 Q-Chem 5.4, Q-Chem, Inc., Pleasanton, CA (2021)
 Q-Chem 5.4.0 for Intel X86 EM64T Linux

User input:
--------------------------------------------------------------
$molecule
0 1
C	0.164018	-6.741404	-0.197767
C	1.003240	-6.155638	-1.198109
C	-0.533192	-5.791452	0.632428
C	1.182482	-4.803786	-1.411364
H	1.567483	-6.821518	-1.870845
C	-0.345145	-4.378638	0.409419
C	0.510347	-3.838032	-0.609565
C	-1.016449	-3.413062	1.210332
C	0.696879	-2.426473	-0.830799
C	-0.839039	-2.059348	0.999856
C	-0.000000	-1.478216	-0.000000
H	-1.403737	-1.394783	1.673483
C	-1.461835	-6.187987	1.736282
C	-1.936119	-3.798164	2.306183
N	-2.093916	-5.170003	2.491597
C	2.104529	-4.424987	-2.510310
C	1.625377	-2.036627	-1.936153
N	2.257873	-3.049156	-2.691451
O	-1.715561	-7.353131	2.034222
O	-2.528858	-2.986854	3.014044
O	2.690385	-5.248946	-3.209622
O	1.891876	-0.878829	-2.251529
C	-3.002711	-5.563799	3.573032
H	-3.032655	-6.664085	3.606932
H	-4.010326	-5.147101	3.382888
H	-2.640711	-5.148785	4.533125
C	3.152408	-2.587487	-3.756832
H	3.564653	-3.483329	-4.249778
H	3.960905	-1.964972	-3.328759
H	2.591422	-1.962932	-4.477709
H	0.044245	-7.822318	-0.055524
C	0.000000	0.000000	0.000000
S	-0.000201	0.793171	1.580530
C	-0.000228	2.430885	0.904911
C	-0.000168	0.997990	-0.985400
C	-0.000267	2.318231	-0.493528
H	-0.000145	0.762343	-2.059934
H	-0.000339	3.199164	-1.152593
H	-0.000311	3.311566	1.556025
$end

$rem
JOBTYPE		SP
EXCHANGE	HF
CORRELATION	pRIMP2
BASIS		cc-pvtz
METHOD		rimp2
AUX_BASIS	rimp2-cc-pvtz
SOLVENT_METHOD	PCM
PURECART	11111
SYMMETRY	false
MEM_TOTAL	110000
SCF_CONVERGENCE = 6
THRESH=10
GUI = 2
$end

$solvent
dielectric 4.90
$end
--------------------------------------------------------------

             Standard Nuclear Orientation (Angstroms)
    I     Atom           X                Y                Z
 ----------------------------------------------------------------
    1      C       0.1640180000    -6.7414040000    -0.1977670000
    2      C       1.0032400000    -6.1556380000    -1.1981090000
    3      C      -0.5331920000    -5.7914520000     0.6324280000
    4      C       1.1824820000    -4.8037860000    -1.4113640000
    5      H       1.5674830000    -6.8215180000    -1.8708450000
    6      C      -0.3451450000    -4.3786380000     0.4094190000
    7      C       0.5103470000    -3.8380320000    -0.6095650000
    8      C      -1.0164490000    -3.4130620000     1.2103320000
    9      C       0.6968790000    -2.4264730000    -0.8307990000
   10      C      -0.8390390000    -2.0593480000     0.9998560000
   11      C       0.0000000000    -1.4782160000     0.0000000000
   12      H      -1.4037370000    -1.3947830000     1.6734830000
   13      C      -1.4618350000    -6.1879870000     1.7362820000
   14      C      -1.9361190000    -3.7981640000     2.3061830000
   15      N      -2.0939160000    -5.1700030000     2.4915970000
   16      C       2.1045290000    -4.4249870000    -2.5103100000
   17      C       1.6253770000    -2.0366270000    -1.9361530000
   18      N       2.2578730000    -3.0491560000    -2.6914510000
   19      O      -1.7155610000    -7.3531310000     2.0342220000
   20      O      -2.5288580000    -2.9868540000     3.0140440000
   21      O       2.6903850000    -5.2489460000    -3.2096220000
   22      O       1.8918760000    -0.8788290000    -2.2515290000
   23      C      -3.0027110000    -5.5637990000     3.5730320000
   24      H      -3.0326550000    -6.6640850000     3.6069320000
   25      H      -4.0103260000    -5.1471010000     3.3828880000
   26      H      -2.6407110000    -5.1487850000     4.5331250000
   27      C       3.1524080000    -2.5874870000    -3.7568320000
   28      H       3.5646530000    -3.4833290000    -4.2497780000
   29      H       3.9609050000    -1.9649720000    -3.3287590000
   30      H       2.5914220000    -1.9629320000    -4.4777090000
   31      H       0.0442450000    -7.8223180000    -0.0555240000
   32      C       0.0000000000     0.0000000000     0.0000000000
   33      S      -0.0002010000     0.7931710000     1.5805300000
   34      C      -0.0002280000     2.4308850000     0.9049110000
   35      C      -0.0001680000     0.9979900000    -0.9854000000
   36      C      -0.0002670000     2.3182310000    -0.4935280000
   37      H      -0.0001450000     0.7623430000    -2.0599340000
   38      H      -0.0003390000     3.1991640000    -1.1525930000
   39      H      -0.0003110000     3.3115660000     1.5560250000
 ----------------------------------------------------------------

   10   -1570.6918246116      7.17e-07  Convergence criterion met
 Total energy in the final basis set =    -1570.6918246116
        RIMP2         total energy =     -1575.3172767452 a.u.

                    Orbital Energies (a.u.)
 --------------------------------------------------------------

 Alpha MOs
 -- Occupied --
-91.9939 -20.5586 -20.5564 -20.5548 -20.5544 -15.6313 -15.6304 -11.4001
-11.3959 -11.3921 -11.3907 -11.3178 -11.3028 -11.3026 -11.3006 -11.2974
-11.2967 -11.2916 -11.2870 -11.2865 -11.2851 -11.2801 -11.2782 -11.2646
-11.2645 -11.2572 -11.2509  -8.9934  -6.6742  -6.6737  -6.6731  -1.4249
 -1.4236  -1.4043  -1.4027  -1.2674  -1.2649  -1.2175  -1.1763  -1.1444
 -1.1171  -1.0637  -1.0498  -0.9928  -0.9901  -0.9851  -0.9590  -0.9480
 -0.8971  -0.8794  -0.8782  -0.8612  -0.7963  -0.7782  -0.7728  -0.7611
 -0.7370  -0.7175  -0.7050  -0.6948  -0.6809  -0.6732  -0.6663  -0.6621
 -0.6565  -0.6420  -0.6370  -0.6330  -0.6292  -0.6127  -0.5876  -0.5842
 -0.5786  -0.5733  -0.5656  -0.5632  -0.5611  -0.5555  -0.5522  -0.5480
 -0.5377  -0.5261  -0.5218  -0.5179  -0.4833  -0.4697  -0.4667  -0.4638
 -0.4599  -0.4531  -0.4284  -0.4183  -0.4092  -0.3699  -0.3538  -0.3366
 -0.3054

          Ground-State Mulliken Net Atomic Charges

     Atom                 Charge (a.u.)
  ----------------------------------------
      1 C                    -0.138062
      2 C                    -0.108034
      3 C                    -0.038910
      4 C                    -0.004874
      5 H                     0.188679
      6 C                    -0.003014
      7 C                     0.074376
      8 C                     0.018917
      9 C                    -0.039291
     10 C                    -0.172802
     11 C                     0.111336
     12 H                     0.179864
     13 C                     0.360429
     14 C                     0.367533
     15 N                    -0.101665
     16 C                     0.360068
     17 C                     0.353233
     18 N                    -0.093640
     19 O                    -0.464444
     20 O                    -0.475948
     21 O                    -0.481737
     22 O                    -0.464053
     23 C                    -0.200954
     24 H                     0.141046
     25 H                     0.112430
     26 H                     0.112507
     27 C                    -0.196554
     28 H                     0.133910
     29 H                     0.113266
     30 H                     0.112106
     31 H                     0.213658
     32 C                    -0.054789
     33 S                     0.028528
     34 C                    -0.199215
     35 C                    -0.127606
     36 C                    -0.214200
     37 H                     0.191903
     38 H                     0.191513
     39 H                     0.214488
  ----------------------------------------
  Sum of atomic charges =     0.000000

                    Cartesian Multipole Moments
 -----------------------------------------------------------------
    Charge (ESU x 10^10)
                 0.0000
    Dipole Moment (Debye)
         X      -0.0787      Y       1.5779      Z      -0.9006
       Tot       1.8185
    Quadrupole Moments (Debye-Ang)
        XX    -172.6581     XY      -0.1900     YY    -165.7177
        XZ      10.2202     YZ       0.9841     ZZ    -169.5716

 Total job time:  267.20s(wall), 7924.11s(cpu)
        *  Thank you very much for using Q-Chem.  Have a nice day.  *
