 Q-Chem 5.4, Q-Chem, Inc., Pleasanton, CA (2021)
 Q-Chem 5.4.0 for Intel X86 EM64T Linux

User input:
--------------------------------------------------------------
$molecule
0 1
C	-0.043160	-6.741404	0.253280
C	-0.269777	-6.155638	1.539213
C	0.145543	-5.791452	-0.814295
C	-0.318377	-4.803786	1.813519
H	-0.422058	-6.821518	2.403941
C	0.094194	-4.378638	-0.527140
C	-0.137191	-3.838032	0.783072
C	0.275104	-3.413062	-1.556403
C	-0.188116	-2.426473	1.067932
C	0.226701	-2.059348	-1.285420
C	-0.000000	-1.478216	-0.000000
H	0.378931	-1.394783	-2.151147
C	0.397845	-6.187987	-2.234582
C	0.523637	-3.798164	-2.965273
N	0.567586	-5.170003	-3.204744
C	-0.567421	-4.424987	3.226257
C	-0.439541	-2.036627	2.489446
N	-0.609650	-3.049156	3.459801
O	0.468608	-7.353131	-2.619468
O	0.683034	-2.986854	-3.874668
O	-0.725131	-5.248946	4.124806
O	-0.512648	-0.878829	2.895819
C	0.813908	-5.563799	-4.595691
H	0.822891	-6.664085	-4.640022
H	1.781600	-5.147101	-4.934830
H	0.020360	-5.148785	-5.246157
C	-0.851649	-2.587487	4.829716
H	-0.962191	-3.483329	5.462742
H	-1.765865	-1.964972	4.863242
H	-0.005383	-1.962932	5.173521
H	-0.010555	-7.822318	0.070208
C	0.000000	0.000000	0.000000
S	-0.000201	0.793171	1.580530
C	-0.000228	2.430885	0.904911
C	-0.000168	0.997990	-0.985400
C	-0.000267	2.318231	-0.493528
H	-0.000145	0.762343	-2.059934
H	-0.000339	3.199164	-1.152593
H	-0.000311	3.311566	1.556025
$end

$rem
JOBTYPE		SP
EXCHANGE	HF
CORRELATION	pRIMP2
BASIS		cc-pvtz
METHOD		rimp2
AUX_BASIS	rimp2-cc-pvtz
SOLVENT_METHOD	PCM
PURECART	11111
SYMMETRY	false
MEM_TOTAL	110000
SCF_CONVERGENCE = 6
THRESH=10
GUI = 2
$end

$solvent
dielectric 4.90
$end
--------------------------------------------------------------

             Standard Nuclear Orientation (Angstroms)
    I     Atom           X                Y                Z
 ----------------------------------------------------------------
    1      C      -0.0431600000    -6.7414040000     0.2532800000
    2      C      -0.2697770000    -6.1556380000     1.5392130000
    3      C       0.1455430000    -5.7914520000    -0.8142950000
    4      C      -0.3183770000    -4.8037860000     1.8135190000
    5      H      -0.4220580000    -6.8215180000     2.4039410000
    6      C       0.0941940000    -4.3786380000    -0.5271400000
    7      C      -0.1371910000    -3.8380320000     0.7830720000
    8      C       0.2751040000    -3.4130620000    -1.5564030000
    9      C      -0.1881160000    -2.4264730000     1.0679320000
   10      C       0.2267010000    -2.0593480000    -1.2854200000
   11      C       0.0000000000    -1.4782160000     0.0000000000
   12      H       0.3789310000    -1.3947830000    -2.1511470000
   13      C       0.3978450000    -6.1879870000    -2.2345820000
   14      C       0.5236370000    -3.7981640000    -2.9652730000
   15      N       0.5675860000    -5.1700030000    -3.2047440000
   16      C      -0.5674210000    -4.4249870000     3.2262570000
   17      C      -0.4395410000    -2.0366270000     2.4894460000
   18      N      -0.6096500000    -3.0491560000     3.4598010000
   19      O       0.4686080000    -7.3531310000    -2.6194680000
   20      O       0.6830340000    -2.9868540000    -3.8746680000
   21      O      -0.7251310000    -5.2489460000     4.1248060000
   22      O      -0.5126480000    -0.8788290000     2.8958190000
   23      C       0.8139080000    -5.5637990000    -4.5956910000
   24      H       0.8228910000    -6.6640850000    -4.6400220000
   25      H       1.7816000000    -5.1471010000    -4.9348300000
   26      H       0.0203600000    -5.1487850000    -5.2461570000
   27      C      -0.8516490000    -2.5874870000     4.8297160000
   28      H      -0.9621910000    -3.4833290000     5.4627420000
   29      H      -1.7658650000    -1.9649720000     4.8632420000
   30      H      -0.0053830000    -1.9629320000     5.1735210000
   31      H      -0.0105550000    -7.8223180000     0.0702080000
   32      C       0.0000000000     0.0000000000     0.0000000000
   33      S      -0.0002010000     0.7931710000     1.5805300000
   34      C      -0.0002280000     2.4308850000     0.9049110000
   35      C      -0.0001680000     0.9979900000    -0.9854000000
   36      C      -0.0002670000     2.3182310000    -0.4935280000
   37      H      -0.0001450000     0.7623430000    -2.0599340000
   38      H      -0.0003390000     3.1991640000    -1.1525930000
   39      H      -0.0003110000     3.3115660000     1.5560250000
 ----------------------------------------------------------------

   10   -1570.6521049970      8.38e-07  Convergence criterion met
 Total energy in the final basis set =    -1570.6521049970
        RIMP2         total energy =     -1575.2897633098 a.u.

                    Orbital Energies (a.u.)
 --------------------------------------------------------------

 Alpha MOs
 -- Occupied --
-91.9767 -20.5593 -20.5592 -20.5572 -20.5545 -15.6326 -15.6318 -11.4009
-11.4004 -11.3923 -11.3915 -11.3217 -11.3028 -11.3019 -11.3006 -11.2961
-11.2944 -11.2902 -11.2881 -11.2840 -11.2797 -11.2792 -11.2693 -11.2658
-11.2649 -11.2600 -11.2424  -8.9763  -6.6567  -6.6553  -6.6545  -1.4338
 -1.4255  -1.4080  -1.4049  -1.2702  -1.2669  -1.2176  -1.1719  -1.1427
 -1.1174  -1.0621  -1.0503  -0.9936  -0.9896  -0.9801  -0.9598  -0.9470
 -0.8980  -0.8809  -0.8787  -0.8638  -0.7939  -0.7789  -0.7774  -0.7596
 -0.7324  -0.7275  -0.7028  -0.6934  -0.6895  -0.6747  -0.6685  -0.6637
 -0.6578  -0.6412  -0.6392  -0.6369  -0.6277  -0.6149  -0.5846  -0.5830
 -0.5814  -0.5755  -0.5711  -0.5653  -0.5620  -0.5566  -0.5564  -0.5495
 -0.5331  -0.5246  -0.5218  -0.5199  -0.4895  -0.4724  -0.4695  -0.4639
 -0.4573  -0.4329  -0.4211  -0.4105  -0.3933  -0.3753  -0.3396  -0.3377
 -0.2957

          Ground-State Mulliken Net Atomic Charges

     Atom                 Charge (a.u.)
  ----------------------------------------
      1 C                    -0.145757
      2 C                    -0.111247
      3 C                    -0.029763
      4 C                    -0.002498
      5 H                     0.188184
      6 C                     0.003790
      7 C                     0.082568
      8 C                    -0.003109
      9 C                    -0.079922
     10 C                    -0.130660
     11 C                     0.076290
     12 H                     0.183551
     13 C                     0.359278
     14 C                     0.365532
     15 N                    -0.101855
     16 C                     0.359977
     17 C                     0.377297
     18 N                    -0.092426
     19 O                    -0.463613
     20 O                    -0.476689
     21 O                    -0.481962
     22 O                    -0.445289
     23 C                    -0.201133
     24 H                     0.141324
     25 H                     0.112476
     26 H                     0.112498
     27 C                    -0.198741
     28 H                     0.135174
     29 H                     0.113833
     30 H                     0.113698
     31 H                     0.212763
     32 C                    -0.028621
     33 S                     0.094080
     34 C                    -0.225272
     35 C                    -0.145464
     36 C                    -0.245889
     37 H                     0.187819
     38 H                     0.182989
     39 H                     0.206792
  ----------------------------------------
  Sum of atomic charges =     0.000000

                    Cartesian Multipole Moments
 -----------------------------------------------------------------
    Charge (ESU x 10^10)
                 0.0000
    Dipole Moment (Debye)
         X      -0.1573      Y       0.9536      Z      -0.1571
       Tot       0.9792
    Quadrupole Moments (Debye-Ang)
        XX    -164.6892     XY       0.0755     YY    -169.5819
        XZ       2.9716     YZ       0.2594     ZZ    -175.0691

 Total job time:  275.14s(wall), 7838.58s(cpu)
        *  Thank you very much for using Q-Chem.  Have a nice day.  *
