 Q-Chem 5.4, Q-Chem, Inc., Pleasanton, CA (2021)
 Q-Chem 5.4.0 for Intel X86 EM64T Linux

User input:
--------------------------------------------------------------
$molecule
0 1
C	-0.086486	-6.741404	0.241938
C	-0.532960	-6.155638	1.468983
C	0.284733	-5.791452	-0.776651
C	-0.628455	-4.803786	1.730681
H	-0.833086	-6.821518	2.294130
C	0.184300	-4.378638	-0.502775
C	-0.271086	-3.838032	0.747353
C	0.541191	-3.413062	-1.484986
C	-0.370703	-2.426473	1.019042
C	0.446468	-2.059348	-1.226525
C	-0.000000	-1.478216	-0.000000
H	0.746717	-1.394783	-2.052666
C	0.779832	-6.187987	-2.131549
C	1.030596	-3.798164	-2.829295
N	1.115461	-5.170003	-3.057496
C	-1.119034	-4.424987	3.078712
C	-0.865151	-2.036627	2.375300
N	-1.201176	-3.049156	3.301374
O	0.916355	-7.353131	-2.498300
O	1.345486	-2.986854	-3.697195
O	-1.430379	-5.248946	3.936224
O	-1.007714	-0.878829	2.762805
C	1.599576	-5.563799	-4.384539
H	1.616121	-6.664085	-4.426636
H	2.611458	-5.147101	-4.550487
H	0.931037	-5.148785	-5.162921
C	-1.677382	-2.587487	4.608454
H	-1.896168	-3.483329	5.212668
H	-2.583531	-1.964972	4.482719
H	-0.903674	-1.962932	5.093988
H	-0.022586	-7.822318	0.067309
C	0.000000	0.000000	0.000000
S	0.396411	0.687007	1.580530
C	1.215245	2.105322	0.904911
C	0.498850	0.864369	-0.985400
C	1.158885	2.007781	-0.493528
H	0.381046	0.660280	-2.059934
H	1.599289	2.770727	-1.152593
H	1.655514	2.868056	1.556025
$end

$rem
JOBTYPE		SP
EXCHANGE	HF
CORRELATION	pRIMP2
BASIS		cc-pvtz
METHOD		rimp2
AUX_BASIS	rimp2-cc-pvtz
SOLVENT_METHOD	PCM
PURECART	11111
SYMMETRY	false
MEM_TOTAL	110000
SCF_CONVERGENCE = 6
THRESH=10
GUI = 2
$end

$solvent
dielectric 4.90
$end
--------------------------------------------------------------

             Standard Nuclear Orientation (Angstroms)
    I     Atom           X                Y                Z
 ----------------------------------------------------------------
    1      C      -0.0864860000    -6.7414040000     0.2419380000
    2      C      -0.5329600000    -6.1556380000     1.4689830000
    3      C       0.2847330000    -5.7914520000    -0.7766510000
    4      C      -0.6284550000    -4.8037860000     1.7306810000
    5      H      -0.8330860000    -6.8215180000     2.2941300000
    6      C       0.1843000000    -4.3786380000    -0.5027750000
    7      C      -0.2710860000    -3.8380320000     0.7473530000
    8      C       0.5411910000    -3.4130620000    -1.4849860000
    9      C      -0.3707030000    -2.4264730000     1.0190420000
   10      C       0.4464680000    -2.0593480000    -1.2265250000
   11      C       0.0000000000    -1.4782160000     0.0000000000
   12      H       0.7467170000    -1.3947830000    -2.0526660000
   13      C       0.7798320000    -6.1879870000    -2.1315490000
   14      C       1.0305960000    -3.7981640000    -2.8292950000
   15      N       1.1154610000    -5.1700030000    -3.0574960000
   16      C      -1.1190340000    -4.4249870000     3.0787120000
   17      C      -0.8651510000    -2.0366270000     2.3753000000
   18      N      -1.2011760000    -3.0491560000     3.3013740000
   19      O       0.9163550000    -7.3531310000    -2.4983000000
   20      O       1.3454860000    -2.9868540000    -3.6971950000
   21      O      -1.4303790000    -5.2489460000     3.9362240000
   22      O      -1.0077140000    -0.8788290000     2.7628050000
   23      C       1.5995760000    -5.5637990000    -4.3845390000
   24      H       1.6161210000    -6.6640850000    -4.4266360000
   25      H       2.6114580000    -5.1471010000    -4.5504870000
   26      H       0.9310370000    -5.1487850000    -5.1629210000
   27      C      -1.6773820000    -2.5874870000     4.6084540000
   28      H      -1.8961680000    -3.4833290000     5.2126680000
   29      H      -2.5835310000    -1.9649720000     4.4827190000
   30      H      -0.9036740000    -1.9629320000     5.0939880000
   31      H      -0.0225860000    -7.8223180000     0.0673090000
   32      C       0.0000000000     0.0000000000     0.0000000000
   33      S       0.3964110000     0.6870070000     1.5805300000
   34      C       1.2152450000     2.1053220000     0.9049110000
   35      C       0.4988500000     0.8643690000    -0.9854000000
   36      C       1.1588850000     2.0077810000    -0.4935280000
   37      H       0.3810460000     0.6602800000    -2.0599340000
   38      H       1.5992890000     2.7707270000    -1.1525930000
   39      H       1.6555140000     2.8680560000     1.5560250000
 ----------------------------------------------------------------

   10   -1570.6631391738      8.96e-07  Convergence criterion met
 Total energy in the final basis set =    -1570.6631391738
        RIMP2         total energy =     -1575.2983251364 a.u.

                    Orbital Energies (a.u.)
 --------------------------------------------------------------

 Alpha MOs
 -- Occupied --
-91.9835 -20.5585 -20.5566 -20.5563 -20.5529 -15.6312 -15.6301 -11.3997
-11.3964 -11.3908 -11.3907 -11.3202 -11.3016 -11.2997 -11.2961 -11.2939
-11.2929 -11.2867 -11.2864 -11.2841 -11.2822 -11.2783 -11.2766 -11.2667
-11.2646 -11.2643 -11.2485  -8.9830  -6.6635  -6.6626  -6.6620  -1.4270
 -1.4249  -1.4046  -1.4043  -1.2675  -1.2654  -1.2162  -1.1772  -1.1424
 -1.1155  -1.0617  -1.0484  -0.9923  -0.9898  -0.9857  -0.9585  -0.9467
 -0.8961  -0.8788  -0.8765  -0.8612  -0.7931  -0.7770  -0.7751  -0.7635
 -0.7319  -0.7198  -0.7043  -0.6933  -0.6866  -0.6745  -0.6665  -0.6623
 -0.6563  -0.6398  -0.6365  -0.6347  -0.6266  -0.6139  -0.5840  -0.5835
 -0.5815  -0.5722  -0.5705  -0.5661  -0.5641  -0.5555  -0.5550  -0.5485
 -0.5324  -0.5263  -0.5194  -0.5164  -0.4880  -0.4734  -0.4629  -0.4618
 -0.4568  -0.4338  -0.4237  -0.4138  -0.4077  -0.3743  -0.3494  -0.3360
 -0.2984

          Ground-State Mulliken Net Atomic Charges

     Atom                 Charge (a.u.)
  ----------------------------------------
      1 C                    -0.148473
      2 C                    -0.110353
      3 C                    -0.028023
      4 C                    -0.005688
      5 H                     0.187914
      6 C                    -0.001824
      7 C                     0.082696
      8 C                     0.011340
      9 C                    -0.085732
     10 C                    -0.140325
     11 C                     0.074901
     12 H                     0.179121
     13 C                     0.358457
     14 C                     0.363754
     15 N                    -0.101771
     16 C                     0.357730
     17 C                     0.372824
     18 N                    -0.093947
     19 O                    -0.464199
     20 O                    -0.478019
     21 O                    -0.483523
     22 O                    -0.473096
     23 C                    -0.201364
     24 H                     0.141218
     25 H                     0.112260
     26 H                     0.112305
     27 C                    -0.197580
     28 H                     0.134305
     29 H                     0.112887
     30 H                     0.112965
     31 H                     0.212178
     32 C                     0.006590
     33 S                     0.099377
     34 C                    -0.206703
     35 C                    -0.196636
     36 C                    -0.206036
     37 H                     0.189172
     38 H                     0.189935
     39 H                     0.211362
  ----------------------------------------
  Sum of atomic charges =     0.000000

                    Cartesian Multipole Moments
 -----------------------------------------------------------------
    Charge (ESU x 10^10)
                 0.0000
    Dipole Moment (Debye)
         X       1.1111      Y       1.9014      Z      -0.6582
       Tot       2.2985
    Quadrupole Moments (Debye-Ang)
        XX    -163.7253     XY       4.7813     YY    -172.9959
        XZ       6.9846     YZ       0.9193     ZZ    -174.7566

 Total job time:  251.18s(wall), 7791.18s(cpu)
        *  Thank you very much for using Q-Chem.  Have a nice day.  *
