 Q-Chem 5.4, Q-Chem, Inc., Pleasanton, CA (2021)
 Q-Chem 5.4.0 for Intel X86 EM64T Linux

User input:
--------------------------------------------------------------
$molecule
0 1
C	-0.223244	-6.741404	-0.127184
C	-1.354118	-6.155638	-0.779949
C	0.715408	-5.791452	0.415271
C	-1.595259	-4.803786	-0.919437
H	-2.114613	-6.821518	-1.218801
C	0.463133	-4.378638	0.268806
C	-0.688925	-3.838032	-0.396744
C	1.368449	-3.413062	0.790835
C	-0.939189	-2.426473	-0.542026
C	1.130363	-2.059348	0.652669
C	-0.000000	-1.478216	-0.000000
H	1.891815	-1.394783	1.091814
C	1.963749	-6.187987	1.138124
C	2.607351	-3.798164	1.506241
N	2.817348	-5.170003	1.629443
C	-2.837621	-4.424987	-1.636646
C	-2.188982	-2.036627	-1.264474
N	-3.042637	-3.049156	-1.756205
O	2.301222	-7.353131	1.336258
O	3.407386	-2.986854	1.967056
O	-3.628041	-5.248946	-2.092167
O	-2.545844	-0.878829	-1.472160
C	4.040164	-5.563799	2.336642
H	4.078749	-6.664085	2.360245
H	4.027880	-5.147101	3.361968
H	4.922811	-5.148785	1.813424
C	-4.247167	-2.587487	-2.452149
H	-4.804209	-3.483329	-2.772531
H	-3.965991	-1.964972	-3.322697
H	-4.859678	-1.962932	-1.774507
H	-0.062364	-7.822318	-0.033931
C	0.000000	0.000000	0.000000
S	0.137535	0.781156	1.580530
C	0.421895	2.393994	0.904911
C	0.173134	0.982857	-0.985400
C	0.402294	2.283058	-0.493528
H	0.132237	0.750786	-2.059934
H	0.555196	3.150621	-1.152593
H	0.574741	3.261310	1.556025
$end

$rem
JOBTYPE		SP
EXCHANGE	HF
CORRELATION	pRIMP2
BASIS		cc-pvtz
METHOD		rimp2
AUX_BASIS	rimp2-cc-pvtz
SOLVENT_METHOD	PCM
PURECART	11111
SYMMETRY	false
MEM_TOTAL	110000
SCF_CONVERGENCE = 6
THRESH=10
GUI = 2
$end

$solvent
dielectric 4.90
$end
--------------------------------------------------------------

             Standard Nuclear Orientation (Angstroms)
    I     Atom           X                Y                Z
 ----------------------------------------------------------------
    1      C      -0.2232440000    -6.7414040000    -0.1271840000
    2      C      -1.3541180000    -6.1556380000    -0.7799490000
    3      C       0.7154080000    -5.7914520000     0.4152710000
    4      C      -1.5952590000    -4.8037860000    -0.9194370000
    5      H      -2.1146130000    -6.8215180000    -1.2188010000
    6      C       0.4631330000    -4.3786380000     0.2688060000
    7      C      -0.6889250000    -3.8380320000    -0.3967440000
    8      C       1.3684490000    -3.4130620000     0.7908350000
    9      C      -0.9391890000    -2.4264730000    -0.5420260000
   10      C       1.1303630000    -2.0593480000     0.6526690000
   11      C       0.0000000000    -1.4782160000     0.0000000000
   12      H       1.8918150000    -1.3947830000     1.0918140000
   13      C       1.9637490000    -6.1879870000     1.1381240000
   14      C       2.6073510000    -3.7981640000     1.5062410000
   15      N       2.8173480000    -5.1700030000     1.6294430000
   16      C      -2.8376210000    -4.4249870000    -1.6366460000
   17      C      -2.1889820000    -2.0366270000    -1.2644740000
   18      N      -3.0426370000    -3.0491560000    -1.7562050000
   19      O       2.3012220000    -7.3531310000     1.3362580000
   20      O       3.4073860000    -2.9868540000     1.9670560000
   21      O      -3.6280410000    -5.2489460000    -2.0921670000
   22      O      -2.5458440000    -0.8788290000    -1.4721600000
   23      C       4.0401640000    -5.5637990000     2.3366420000
   24      H       4.0787490000    -6.6640850000     2.3602450000
   25      H       4.0278800000    -5.1471010000     3.3619680000
   26      H       4.9228110000    -5.1487850000     1.8134240000
   27      C      -4.2471670000    -2.5874870000    -2.4521490000
   28      H      -4.8042090000    -3.4833290000    -2.7725310000
   29      H      -3.9659910000    -1.9649720000    -3.3226970000
   30      H      -4.8596780000    -1.9629320000    -1.7745070000
   31      H      -0.0623640000    -7.8223180000    -0.0339310000
   32      C       0.0000000000     0.0000000000     0.0000000000
   33      S       0.1375350000     0.7811560000     1.5805300000
   34      C       0.4218950000     2.3939940000     0.9049110000
   35      C       0.1731340000     0.9828570000    -0.9854000000
   36      C       0.4022940000     2.2830580000    -0.4935280000
   37      H       0.1322370000     0.7507860000    -2.0599340000
   38      H       0.5551960000     3.1506210000    -1.1525930000
   39      H       0.5747410000     3.2613100000     1.5560250000
 ----------------------------------------------------------------

   10   -1570.6904470261      6.96e-07  Convergence criterion met
 Total energy in the final basis set =    -1570.6904470261
        RIMP2         total energy =     -1575.3147421832 a.u.

                    Orbital Energies (a.u.)
 --------------------------------------------------------------

 Alpha MOs
 -- Occupied --
-91.9932 -20.5587 -20.5565 -20.5563 -20.5553 -15.6314 -15.6311 -11.4003
-11.3969 -11.3929 -11.3908 -11.3168 -11.3059 -11.3030 -11.3011 -11.2990
-11.2984 -11.2934 -11.2866 -11.2866 -11.2830 -11.2807 -11.2788 -11.2648
-11.2646 -11.2563 -11.2508  -8.9925  -6.6734  -6.6729  -6.6723  -1.4250
 -1.4242  -1.4043  -1.4033  -1.2677  -1.2654  -1.2181  -1.1760  -1.1445
 -1.1179  -1.0638  -1.0504  -0.9932  -0.9901  -0.9841  -0.9594  -0.9483
 -0.8976  -0.8797  -0.8784  -0.8612  -0.7963  -0.7780  -0.7732  -0.7600
 -0.7379  -0.7180  -0.7056  -0.6953  -0.6809  -0.6732  -0.6666  -0.6624
 -0.6571  -0.6424  -0.6377  -0.6338  -0.6302  -0.6129  -0.5862  -0.5845
 -0.5785  -0.5733  -0.5664  -0.5642  -0.5609  -0.5554  -0.5526  -0.5485
 -0.5376  -0.5269  -0.5212  -0.5155  -0.4838  -0.4706  -0.4672  -0.4631
 -0.4604  -0.4537  -0.4285  -0.4184  -0.4091  -0.3624  -0.3531  -0.3358
 -0.3140

          Ground-State Mulliken Net Atomic Charges

     Atom                 Charge (a.u.)
  ----------------------------------------
      1 C                    -0.132298
      2 C                    -0.107813
      3 C                    -0.042270
      4 C                    -0.001990
      5 H                     0.188967
      6 C                     0.000574
      7 C                     0.071866
      8 C                     0.004381
      9 C                    -0.017668
     10 C                    -0.129934
     11 C                     0.061617
     12 H                     0.189447
     13 C                     0.360653
     14 C                     0.365157
     15 N                    -0.101759
     16 C                     0.360170
     17 C                     0.345394
     18 N                    -0.096616
     19 O                    -0.464764
     20 O                    -0.475834
     21 O                    -0.480114
     22 O                    -0.459112
     23 C                    -0.201004
     24 H                     0.141048
     25 H                     0.112575
     26 H                     0.112444
     27 C                    -0.195986
     28 H                     0.133813
     29 H                     0.112586
     30 H                     0.113635
     31 H                     0.214284
     32 C                    -0.028620
     33 S                     0.027189
     34 C                    -0.207175
     35 C                    -0.161669
     36 C                    -0.203694
     37 H                     0.188638
     38 H                     0.191743
     39 H                     0.212138
  ----------------------------------------
  Sum of atomic charges =     0.000000

                    Cartesian Multipole Moments
 -----------------------------------------------------------------
    Charge (ESU x 10^10)
                 0.0000
    Dipole Moment (Debye)
         X       0.3997      Y       0.9876      Z      -0.9487
       Tot       1.4266
    Quadrupole Moments (Debye-Ang)
        XX    -179.0688     XY       2.6967     YY    -164.6805
        XZ      -8.7262     YZ       1.2204     ZZ    -162.5632

 Total job time:  269.63s(wall), 7620.53s(cpu)
        *  Thank you very much for using Q-Chem.  Have a nice day.  *
