 Q-Chem 5.4, Q-Chem, Inc., Pleasanton, CA (2021)
 Q-Chem 5.4.0 for Intel X86 EM64T Linux

User input:
--------------------------------------------------------------
$molecule
0 1
C	-0.166281	-6.741404	-0.195868
C	-1.005696	-6.155638	-1.196048
C	0.530233	-5.791452	0.634911
C	-1.184587	-4.803786	-1.409599
H	-1.570232	-6.821518	-1.868538
C	0.343266	-4.378638	0.410996
C	-0.511683	-3.838032	-0.608444
C	1.015440	-3.413062	1.211179
C	-0.697165	-2.426473	-0.830559
C	0.838968	-2.059348	0.999915
C	-0.000000	-1.478216	-0.000000
H	1.404302	-1.394783	1.673009
C	1.456059	-6.187987	1.741129
C	1.934944	-3.798164	2.307170
N	2.090139	-5.170003	2.494766
C	-2.106725	-4.424987	-2.508468
C	-1.624494	-2.036627	-1.936893
N	-2.258486	-3.049156	-2.690936
O	1.705414	-7.353131	2.042736
O	2.529122	-2.986854	3.013823
O	-2.693680	-5.248946	-3.206857
O	-1.888802	-0.878829	-2.254108
C	2.997334	-5.563799	3.577543
H	3.025519	-6.664085	3.612920
H	2.635109	-5.147101	4.536833
H	4.005702	-5.148785	3.387762
C	-3.152347	-2.587487	-3.756883
H	-3.566218	-3.483329	-4.248464
H	-2.590383	-1.964972	-4.478763
H	-3.959687	-1.962932	-3.329599
H	-0.046998	-7.822318	-0.053215
C	0.000000	0.000000	0.000000
S	0.686805	0.396760	1.580530
C	2.105095	1.215640	0.904911
C	0.864201	0.499140	-0.985400
C	2.007514	1.159347	-0.493528
H	0.660136	0.381296	-2.059934
H	2.770388	1.599875	-1.152593
H	2.867745	1.656053	1.556025
$end

$rem
JOBTYPE		SP
EXCHANGE	HF
CORRELATION	pRIMP2
BASIS		cc-pvtz
METHOD		rimp2
AUX_BASIS	rimp2-cc-pvtz
SOLVENT_METHOD	PCM
PURECART	11111
SYMMETRY	false
MEM_TOTAL	110000
SCF_CONVERGENCE = 6
THRESH=10
GUI = 2
$end

$solvent
dielectric 4.90
$end
--------------------------------------------------------------

             Standard Nuclear Orientation (Angstroms)
    I     Atom           X                Y                Z
 ----------------------------------------------------------------
    1      C      -0.1662810000    -6.7414040000    -0.1958680000
    2      C      -1.0056960000    -6.1556380000    -1.1960480000
    3      C       0.5302330000    -5.7914520000     0.6349110000
    4      C      -1.1845870000    -4.8037860000    -1.4095990000
    5      H      -1.5702320000    -6.8215180000    -1.8685380000
    6      C       0.3432660000    -4.3786380000     0.4109960000
    7      C      -0.5116830000    -3.8380320000    -0.6084440000
    8      C       1.0154400000    -3.4130620000     1.2111790000
    9      C      -0.6971650000    -2.4264730000    -0.8305590000
   10      C       0.8389680000    -2.0593480000     0.9999150000
   11      C       0.0000000000    -1.4782160000     0.0000000000
   12      H       1.4043020000    -1.3947830000     1.6730090000
   13      C       1.4560590000    -6.1879870000     1.7411290000
   14      C       1.9349440000    -3.7981640000     2.3071700000
   15      N       2.0901390000    -5.1700030000     2.4947660000
   16      C      -2.1067250000    -4.4249870000    -2.5084680000
   17      C      -1.6244940000    -2.0366270000    -1.9368930000
   18      N      -2.2584860000    -3.0491560000    -2.6909360000
   19      O       1.7054140000    -7.3531310000     2.0427360000
   20      O       2.5291220000    -2.9868540000     3.0138230000
   21      O      -2.6936800000    -5.2489460000    -3.2068570000
   22      O      -1.8888020000    -0.8788290000    -2.2541080000
   23      C       2.9973340000    -5.5637990000     3.5775430000
   24      H       3.0255190000    -6.6640850000     3.6129200000
   25      H       2.6351090000    -5.1471010000     4.5368330000
   26      H       4.0057020000    -5.1487850000     3.3877620000
   27      C      -3.1523470000    -2.5874870000    -3.7568830000
   28      H      -3.5662180000    -3.4833290000    -4.2484640000
   29      H      -2.5903830000    -1.9649720000    -4.4787630000
   30      H      -3.9596870000    -1.9629320000    -3.3295990000
   31      H      -0.0469980000    -7.8223180000    -0.0532150000
   32      C       0.0000000000     0.0000000000     0.0000000000
   33      S       0.6868050000     0.3967600000     1.5805300000
   34      C       2.1050950000     1.2156400000     0.9049110000
   35      C       0.8642010000     0.4991400000    -0.9854000000
   36      C       2.0075140000     1.1593470000    -0.4935280000
   37      H       0.6601360000     0.3812960000    -2.0599340000
   38      H       2.7703880000     1.5998750000    -1.1525930000
   39      H       2.8677450000     1.6560530000     1.5560250000
 ----------------------------------------------------------------

   11   -1570.6015826614      4.64e-07  Convergence criterion met
 Total energy in the final basis set =    -1570.6015826614
        RIMP2         total energy =     -1575.2461434356 a.u.

                    Orbital Energies (a.u.)
 --------------------------------------------------------------

 Alpha MOs
 -- Occupied --
-91.9904 -20.5575 -20.5556 -20.5514 -20.5510 -15.6301 -15.6270 -11.3985
-11.3909 -11.3892 -11.3886 -11.3180 -11.3115 -11.2996 -11.2960 -11.2907
-11.2897 -11.2884 -11.2848 -11.2821 -11.2796 -11.2766 -11.2749 -11.2641
-11.2627 -11.2623 -11.2568  -8.9926  -6.6730  -6.6723  -6.6721  -1.4238
 -1.4200  -1.4032  -1.3992  -1.2657  -1.2618  -1.2186  -1.1930  -1.1393
 -1.1123  -1.0633  -1.0464  -1.0027  -0.9933  -0.9899  -0.9567  -0.9435
 -0.8944  -0.8764  -0.8739  -0.8558  -0.7991  -0.7801  -0.7705  -0.7655
 -0.7343  -0.7199  -0.7052  -0.6938  -0.6794  -0.6736  -0.6644  -0.6599
 -0.6541  -0.6454  -0.6346  -0.6305  -0.6259  -0.6115  -0.5924  -0.5837
 -0.5818  -0.5802  -0.5673  -0.5620  -0.5604  -0.5555  -0.5518  -0.5473
 -0.5427  -0.5251  -0.5198  -0.4871  -0.4812  -0.4713  -0.4636  -0.4594
 -0.4582  -0.4503  -0.4257  -0.4167  -0.4063  -0.3729  -0.3437  -0.3323
 -0.3058

          Ground-State Mulliken Net Atomic Charges

     Atom                 Charge (a.u.)
  ----------------------------------------
      1 C                    -0.151230
      2 C                    -0.109459
      3 C                    -0.026049
      4 C                    -0.002512
      5 H                     0.187163
      6 C                    -0.014496
      7 C                     0.066532
      8 C                     0.060730
      9 C                    -0.077926
     10 C                    -0.200239
     11 C                     0.079047
     12 H                     0.187872
     13 C                     0.357265
     14 C                     0.363352
     15 N                    -0.100330
     16 C                     0.355190
     17 C                     0.363162
     18 N                    -0.094771
     19 O                    -0.465267
     20 O                    -0.480614
     21 O                    -0.486002
     22 O                    -0.473994
     23 C                    -0.201702
     24 H                     0.141040
     25 H                     0.112013
     26 H                     0.111592
     27 C                    -0.198242
     28 H                     0.133034
     29 H                     0.111027
     30 H                     0.112677
     31 H                     0.211288
     32 C                    -0.108266
     33 S                     0.037157
     34 C                    -0.131058
     35 C                    -0.044806
     36 C                    -0.246121
     37 H                     0.207681
     38 H                     0.194916
     39 H                     0.220347
  ----------------------------------------
  Sum of atomic charges =     0.000000

                    Cartesian Multipole Moments
 -----------------------------------------------------------------
    Charge (ESU x 10^10)
                 0.0000
    Dipole Moment (Debye)
         X       3.5427      Y       2.2070      Z      -0.3546
       Tot       4.1889
    Quadrupole Moments (Debye-Ang)
        XX    -163.1129     XY       5.5104     YY    -181.3618
        XZ      -9.8831     YZ      -0.3718     ZZ    -169.3892

 Total job time:  269.18s(wall), 8216.31s(cpu)
        *  Thank you very much for using Q-Chem.  Have a nice day.  *
