 Q-Chem 5.4, Q-Chem, Inc., Pleasanton, CA (2021)
 Q-Chem 5.4.0 for Intel X86 EM64T Linux

User input:
--------------------------------------------------------------
$molecule
0 1
C	-0.253280	-6.741404	-0.043160
C	-1.539213	-6.155638	-0.269777
C	0.814295	-5.791452	0.145543
C	-1.813519	-4.803786	-0.318377
H	-2.403941	-6.821518	-0.422058
C	0.527140	-4.378638	0.094194
C	-0.783072	-3.838032	-0.137191
C	1.556403	-3.413062	0.275104
C	-1.067932	-2.426473	-0.188116
C	1.285420	-2.059348	0.226701
C	-0.000000	-1.478216	-0.000000
H	2.151147	-1.394783	0.378931
C	2.234582	-6.187987	0.397845
C	2.965273	-3.798164	0.523637
N	3.204744	-5.170003	0.567586
C	-3.226257	-4.424987	-0.567421
C	-2.489446	-2.036627	-0.439541
N	-3.459801	-3.049156	-0.609650
O	2.619468	-7.353131	0.468608
O	3.874668	-2.986854	0.683034
O	-4.124806	-5.248946	-0.725131
O	-2.895819	-0.878829	-0.512648
C	4.595691	-5.563799	0.813908
H	4.640022	-6.664085	0.822891
H	4.934830	-5.147101	1.781600
H	5.246157	-5.148785	0.020360
C	-4.829716	-2.587487	-0.851649
H	-5.462742	-3.483329	-0.962191
H	-4.863242	-1.964972	-1.765865
H	-5.173521	-1.962932	-0.005383
H	-0.070208	-7.822318	-0.010555
C	0.000000	0.000000	0.000000
S	0.686805	0.396760	1.580530
C	2.105095	1.215640	0.904911
C	0.864201	0.499140	-0.985400
C	2.007514	1.159347	-0.493528
H	0.660136	0.381296	-2.059934
H	2.770388	1.599875	-1.152593
H	2.867745	1.656053	1.556025
$end

$rem
JOBTYPE		SP
EXCHANGE	HF
CORRELATION	pRIMP2
BASIS		cc-pvtz
METHOD		rimp2
AUX_BASIS	rimp2-cc-pvtz
SOLVENT_METHOD	PCM
PURECART	11111
SYMMETRY	false
MEM_TOTAL	110000
SCF_CONVERGENCE = 6
THRESH=10
GUI = 2
$end

$solvent
dielectric 4.90
$end
--------------------------------------------------------------

             Standard Nuclear Orientation (Angstroms)
    I     Atom           X                Y                Z
 ----------------------------------------------------------------
    1      C      -0.2532800000    -6.7414040000    -0.0431600000
    2      C      -1.5392130000    -6.1556380000    -0.2697770000
    3      C       0.8142950000    -5.7914520000     0.1455430000
    4      C      -1.8135190000    -4.8037860000    -0.3183770000
    5      H      -2.4039410000    -6.8215180000    -0.4220580000
    6      C       0.5271400000    -4.3786380000     0.0941940000
    7      C      -0.7830720000    -3.8380320000    -0.1371910000
    8      C       1.5564030000    -3.4130620000     0.2751040000
    9      C      -1.0679320000    -2.4264730000    -0.1881160000
   10      C       1.2854200000    -2.0593480000     0.2267010000
   11      C       0.0000000000    -1.4782160000     0.0000000000
   12      H       2.1511470000    -1.3947830000     0.3789310000
   13      C       2.2345820000    -6.1879870000     0.3978450000
   14      C       2.9652730000    -3.7981640000     0.5236370000
   15      N       3.2047440000    -5.1700030000     0.5675860000
   16      C      -3.2262570000    -4.4249870000    -0.5674210000
   17      C      -2.4894460000    -2.0366270000    -0.4395410000
   18      N      -3.4598010000    -3.0491560000    -0.6096500000
   19      O       2.6194680000    -7.3531310000     0.4686080000
   20      O       3.8746680000    -2.9868540000     0.6830340000
   21      O      -4.1248060000    -5.2489460000    -0.7251310000
   22      O      -2.8958190000    -0.8788290000    -0.5126480000
   23      C       4.5956910000    -5.5637990000     0.8139080000
   24      H       4.6400220000    -6.6640850000     0.8228910000
   25      H       4.9348300000    -5.1471010000     1.7816000000
   26      H       5.2461570000    -5.1487850000     0.0203600000
   27      C      -4.8297160000    -2.5874870000    -0.8516490000
   28      H      -5.4627420000    -3.4833290000    -0.9621910000
   29      H      -4.8632420000    -1.9649720000    -1.7658650000
   30      H      -5.1735210000    -1.9629320000    -0.0053830000
   31      H      -0.0702080000    -7.8223180000    -0.0105550000
   32      C       0.0000000000     0.0000000000     0.0000000000
   33      S       0.6868050000     0.3967600000     1.5805300000
   34      C       2.1050950000     1.2156400000     0.9049110000
   35      C       0.8642010000     0.4991400000    -0.9854000000
   36      C       2.0075140000     1.1593470000    -0.4935280000
   37      H       0.6601360000     0.3812960000    -2.0599340000
   38      H       2.7703880000     1.5998750000    -1.1525930000
   39      H       2.8677450000     1.6560530000     1.5560250000
 ----------------------------------------------------------------

   11   -1570.6286347509      4.59e-07  Convergence criterion met
 Total energy in the final basis set =    -1570.6286347509
        RIMP2         total energy =     -1575.2679513074 a.u.

                    Orbital Energies (a.u.)
 --------------------------------------------------------------

 Alpha MOs
 -- Occupied --
-91.9954 -20.5568 -20.5540 -20.5530 -20.5525 -15.6296 -15.6282 -11.3982
-11.3928 -11.3902 -11.3883 -11.3160 -11.3060 -11.2992 -11.2956 -11.2944
-11.2934 -11.2932 -11.2823 -11.2802 -11.2777 -11.2759 -11.2742 -11.2728
-11.2639 -11.2631 -11.2584  -8.9956  -6.6763  -6.6755  -6.6753  -1.4232
 -1.4211  -1.4025  -1.4002  -1.2655  -1.2628  -1.2180  -1.1917  -1.1398
 -1.1135  -1.0620  -1.0461  -0.9968  -0.9940  -0.9905  -0.9573  -0.9451
 -0.8946  -0.8765  -0.8728  -0.8560  -0.7952  -0.7769  -0.7724  -0.7650
 -0.7373  -0.7174  -0.7069  -0.6924  -0.6817  -0.6736  -0.6645  -0.6603
 -0.6546  -0.6431  -0.6357  -0.6315  -0.6268  -0.6111  -0.5881  -0.5845
 -0.5794  -0.5764  -0.5675  -0.5624  -0.5603  -0.5541  -0.5521  -0.5465
 -0.5426  -0.5257  -0.5148  -0.4901  -0.4810  -0.4765  -0.4650  -0.4605
 -0.4581  -0.4510  -0.4256  -0.4167  -0.4058  -0.3790  -0.3355  -0.3307
 -0.3226

          Ground-State Mulliken Net Atomic Charges

     Atom                 Charge (a.u.)
  ----------------------------------------
      1 C                    -0.143190
      2 C                    -0.116320
      3 C                    -0.033282
      4 C                     0.002969
      5 H                     0.186855
      6 C                    -0.005686
      7 C                     0.078851
      8 C                    -0.018281
      9 C                    -0.036017
     10 C                    -0.136272
     11 C                     0.037316
     12 H                     0.186993
     13 C                     0.358788
     14 C                     0.358161
     15 N                    -0.100557
     16 C                     0.357930
     17 C                     0.369461
     18 N                    -0.096579
     19 O                    -0.466899
     20 O                    -0.482646
     21 O                    -0.482486
     22 O                    -0.459325
     23 C                    -0.202076
     24 H                     0.141005
     25 H                     0.111770
     26 H                     0.111631
     27 C                    -0.197503
     28 H                     0.132992
     29 H                     0.112211
     30 H                     0.112756
     31 H                     0.212289
     32 C                    -0.100624
     33 S                     0.052242
     34 C                    -0.141834
     35 C                    -0.083294
     36 C                    -0.226932
     37 H                     0.194964
     38 H                     0.193921
     39 H                     0.216697
  ----------------------------------------
  Sum of atomic charges =     0.000000

                    Cartesian Multipole Moments
 -----------------------------------------------------------------
    Charge (ESU x 10^10)
                 0.0000
    Dipole Moment (Debye)
         X       3.0734      Y       1.9096      Z      -0.8248
       Tot       3.7112
    Quadrupole Moments (Debye-Ang)
        XX    -175.7917     XY       6.6784     YY    -180.0063
        XZ      -2.7505     YZ       0.6225     ZZ    -156.9244

 Total job time:  279.22s(wall), 8605.41s(cpu)
        *  Thank you very much for using Q-Chem.  Have a nice day.  *
