 Q-Chem 5.4, Q-Chem, Inc., Pleasanton, CA (2021)
 Q-Chem 5.4.0 for Intel X86 EM64T Linux

User input:
--------------------------------------------------------------
$molecule
0 1
C	-0.241938	-6.741404	-0.086486
C	-1.468983	-6.155638	-0.532960
C	0.776651	-5.791452	0.284733
C	-1.730681	-4.803786	-0.628455
H	-2.294130	-6.821518	-0.833086
C	0.502775	-4.378638	0.184300
C	-0.747353	-3.838032	-0.271086
C	1.484986	-3.413062	0.541191
C	-1.019042	-2.426473	-0.370703
C	1.226525	-2.059348	0.446468
C	-0.000000	-1.478216	-0.000000
H	2.052666	-1.394783	0.746717
C	2.131549	-6.187987	0.779832
C	2.829295	-3.798164	1.030596
N	3.057496	-5.170003	1.115461
C	-3.078712	-4.424987	-1.119034
C	-2.375300	-2.036627	-0.865151
N	-3.301374	-3.049156	-1.201176
O	2.498300	-7.353131	0.916355
O	3.697195	-2.986854	1.345486
O	-3.936224	-5.248946	-1.430379
O	-2.762805	-0.878829	-1.007714
C	4.384539	-5.563799	1.599576
H	4.426636	-6.664085	1.616121
H	4.550487	-5.147101	2.611458
H	5.162921	-5.148785	0.931037
C	-4.608454	-2.587487	-1.677382
H	-5.212668	-3.483329	-1.896168
H	-4.482719	-1.964972	-2.583531
H	-5.093988	-1.962932	-0.903674
H	-0.067309	-7.822318	-0.022586
C	0.000000	0.000000	0.000000
S	0.137535	0.781156	1.580530
C	0.421895	2.393994	0.904911
C	0.173134	0.982857	-0.985400
C	0.402294	2.283058	-0.493528
H	0.132237	0.750786	-2.059934
H	0.555196	3.150621	-1.152593
H	0.574741	3.261310	1.556025
$end

$rem
JOBTYPE		SP
EXCHANGE	HF
CORRELATION	pRIMP2
BASIS		cc-pvtz
METHOD		rimp2
AUX_BASIS	rimp2-cc-pvtz
SOLVENT_METHOD	PCM
PURECART	11111
SYMMETRY	false
MEM_TOTAL	110000
SCF_CONVERGENCE = 6
THRESH=10
GUI = 2
$end

$solvent
dielectric 4.90
$end
--------------------------------------------------------------

             Standard Nuclear Orientation (Angstroms)
    I     Atom           X                Y                Z
 ----------------------------------------------------------------
    1      C      -0.2419380000    -6.7414040000    -0.0864860000
    2      C      -1.4689830000    -6.1556380000    -0.5329600000
    3      C       0.7766510000    -5.7914520000     0.2847330000
    4      C      -1.7306810000    -4.8037860000    -0.6284550000
    5      H      -2.2941300000    -6.8215180000    -0.8330860000
    6      C       0.5027750000    -4.3786380000     0.1843000000
    7      C      -0.7473530000    -3.8380320000    -0.2710860000
    8      C       1.4849860000    -3.4130620000     0.5411910000
    9      C      -1.0190420000    -2.4264730000    -0.3707030000
   10      C       1.2265250000    -2.0593480000     0.4464680000
   11      C       0.0000000000    -1.4782160000     0.0000000000
   12      H       2.0526660000    -1.3947830000     0.7467170000
   13      C       2.1315490000    -6.1879870000     0.7798320000
   14      C       2.8292950000    -3.7981640000     1.0305960000
   15      N       3.0574960000    -5.1700030000     1.1154610000
   16      C      -3.0787120000    -4.4249870000    -1.1190340000
   17      C      -2.3753000000    -2.0366270000    -0.8651510000
   18      N      -3.3013740000    -3.0491560000    -1.2011760000
   19      O       2.4983000000    -7.3531310000     0.9163550000
   20      O       3.6971950000    -2.9868540000     1.3454860000
   21      O      -3.9362240000    -5.2489460000    -1.4303790000
   22      O      -2.7628050000    -0.8788290000    -1.0077140000
   23      C       4.3845390000    -5.5637990000     1.5995760000
   24      H       4.4266360000    -6.6640850000     1.6161210000
   25      H       4.5504870000    -5.1471010000     2.6114580000
   26      H       5.1629210000    -5.1487850000     0.9310370000
   27      C      -4.6084540000    -2.5874870000    -1.6773820000
   28      H      -5.2126680000    -3.4833290000    -1.8961680000
   29      H      -4.4827190000    -1.9649720000    -2.5835310000
   30      H      -5.0939880000    -1.9629320000    -0.9036740000
   31      H      -0.0673090000    -7.8223180000    -0.0225860000
   32      C       0.0000000000     0.0000000000     0.0000000000
   33      S       0.1375350000     0.7811560000     1.5805300000
   34      C       0.4218950000     2.3939940000     0.9049110000
   35      C       0.1731340000     0.9828570000    -0.9854000000
   36      C       0.4022940000     2.2830580000    -0.4935280000
   37      H       0.1322370000     0.7507860000    -2.0599340000
   38      H       0.5551960000     3.1506210000    -1.1525930000
   39      H       0.5747410000     3.2613100000     1.5560250000
 ----------------------------------------------------------------

   10   -1570.6901201955      6.95e-07  Convergence criterion met
 Total energy in the final basis set =    -1570.6901201955
        RIMP2         total energy =     -1575.3138456221 a.u.

                    Orbital Energies (a.u.)
 --------------------------------------------------------------

 Alpha MOs
 -- Occupied --
-91.9930 -20.5588 -20.5573 -20.5563 -20.5557 -15.6315 -15.6314 -11.4005
-11.3975 -11.3933 -11.3908 -11.3165 -11.3074 -11.3033 -11.3014 -11.2997
-11.2991 -11.2939 -11.2872 -11.2866 -11.2815 -11.2810 -11.2793 -11.2649
-11.2647 -11.2553 -11.2505  -8.9923  -6.6731  -6.6726  -6.6720  -1.4251
 -1.4246  -1.4044  -1.4037  -1.2680  -1.2657  -1.2184  -1.1756  -1.1446
 -1.1183  -1.0639  -1.0507  -0.9935  -0.9900  -0.9835  -0.9596  -0.9486
 -0.8979  -0.8800  -0.8786  -0.8614  -0.7963  -0.7781  -0.7734  -0.7596
 -0.7381  -0.7187  -0.7056  -0.6955  -0.6812  -0.6734  -0.6668  -0.6626
 -0.6574  -0.6427  -0.6381  -0.6342  -0.6306  -0.6130  -0.5859  -0.5847
 -0.5785  -0.5732  -0.5666  -0.5644  -0.5612  -0.5555  -0.5529  -0.5487
 -0.5367  -0.5271  -0.5211  -0.5156  -0.4840  -0.4710  -0.4673  -0.4623
 -0.4607  -0.4540  -0.4287  -0.4185  -0.4092  -0.3600  -0.3512  -0.3353
 -0.3188

          Ground-State Mulliken Net Atomic Charges

     Atom                 Charge (a.u.)
  ----------------------------------------
      1 C                    -0.130231
      2 C                    -0.107924
      3 C                    -0.043498
      4 C                    -0.000880
      5 H                     0.189080
      6 C                     0.000012
      7 C                     0.072196
      8 C                     0.002330
      9 C                    -0.011222
     10 C                    -0.115945
     11 C                     0.042924
     12 H                     0.188859
     13 C                     0.360867
     14 C                     0.365898
     15 N                    -0.101973
     16 C                     0.360292
     17 C                     0.347670
     18 N                    -0.097651
     19 O                    -0.464783
     20 O                    -0.476020
     21 O                    -0.479548
     22 O                    -0.457943
     23 C                    -0.200977
     24 H                     0.141031
     25 H                     0.112568
     26 H                     0.112513
     27 C                    -0.195727
     28 H                     0.133761
     29 H                     0.112846
     30 H                     0.113762
     31 H                     0.214640
     32 C                    -0.021602
     33 S                     0.029614
     34 C                    -0.212250
     35 C                    -0.174003
     36 C                    -0.199984
     37 H                     0.188208
     38 H                     0.191708
     39 H                     0.211381
  ----------------------------------------
  Sum of atomic charges =     0.000000

                    Cartesian Multipole Moments
 -----------------------------------------------------------------
    Charge (ESU x 10^10)
                 0.0000
    Dipole Moment (Debye)
         X       0.3314      Y       0.7720      Z      -0.9663
       Tot       1.2805
    Quadrupole Moments (Debye-Ang)
        XX    -181.6294     XY       2.9627     YY    -164.1028
        XZ      -6.4097     YZ       1.1409     ZZ    -159.8691

 Total job time:  390.32s(wall), 9092.31s(cpu)
        *  Thank you very much for using Q-Chem.  Have a nice day.  *
