 Q-Chem 5.4, Q-Chem, Inc., Pleasanton, CA (2021)
 Q-Chem 5.4.0 for Intel X86 EM64T Linux

User input:
--------------------------------------------------------------
$molecule
0 1
C	-0.086486	-6.741404	0.241938
C	-0.532960	-6.155638	1.468983
C	0.284733	-5.791452	-0.776651
C	-0.628455	-4.803786	1.730681
H	-0.833086	-6.821518	2.294130
C	0.184300	-4.378638	-0.502775
C	-0.271086	-3.838032	0.747353
C	0.541191	-3.413062	-1.484986
C	-0.370703	-2.426473	1.019042
C	0.446468	-2.059348	-1.226525
C	-0.000000	-1.478216	-0.000000
H	0.746717	-1.394783	-2.052666
C	0.779832	-6.187987	-2.131549
C	1.030596	-3.798164	-2.829295
N	1.115461	-5.170003	-3.057496
C	-1.119034	-4.424987	3.078712
C	-0.865151	-2.036627	2.375300
N	-1.201176	-3.049156	3.301374
O	0.916355	-7.353131	-2.498300
O	1.345486	-2.986854	-3.697195
O	-1.430379	-5.248946	3.936224
O	-1.007714	-0.878829	2.762805
C	1.599576	-5.563799	-4.384539
H	1.616121	-6.664085	-4.426636
H	2.611458	-5.147101	-4.550487
H	0.931037	-5.148785	-5.162921
C	-1.677382	-2.587487	4.608454
H	-1.896168	-3.483329	5.212668
H	-2.583531	-1.964972	4.482719
H	-0.903674	-1.962932	5.093988
H	-0.022586	-7.822318	0.067309
C	0.000000	0.000000	0.000000
S	-0.000201	0.793171	1.580530
C	-0.000228	2.430885	0.904911
C	-0.000168	0.997990	-0.985400
C	-0.000267	2.318231	-0.493528
H	-0.000145	0.762343	-2.059934
H	-0.000339	3.199164	-1.152593
H	-0.000311	3.311566	1.556025
$end

$rem
JOBTYPE		SP
EXCHANGE	HF
CORRELATION	pRIMP2
BASIS		cc-pvtz
METHOD		rimp2
AUX_BASIS	rimp2-cc-pvtz
SOLVENT_METHOD	PCM
PURECART	11111
SYMMETRY	false
MEM_TOTAL	110000
SCF_CONVERGENCE = 6
THRESH=10
GUI = 2
$end

$solvent
dielectric 4.90
$end
--------------------------------------------------------------

             Standard Nuclear Orientation (Angstroms)
    I     Atom           X                Y                Z
 ----------------------------------------------------------------
    1      C      -0.0864860000    -6.7414040000     0.2419380000
    2      C      -0.5329600000    -6.1556380000     1.4689830000
    3      C       0.2847330000    -5.7914520000    -0.7766510000
    4      C      -0.6284550000    -4.8037860000     1.7306810000
    5      H      -0.8330860000    -6.8215180000     2.2941300000
    6      C       0.1843000000    -4.3786380000    -0.5027750000
    7      C      -0.2710860000    -3.8380320000     0.7473530000
    8      C       0.5411910000    -3.4130620000    -1.4849860000
    9      C      -0.3707030000    -2.4264730000     1.0190420000
   10      C       0.4464680000    -2.0593480000    -1.2265250000
   11      C       0.0000000000    -1.4782160000     0.0000000000
   12      H       0.7467170000    -1.3947830000    -2.0526660000
   13      C       0.7798320000    -6.1879870000    -2.1315490000
   14      C       1.0305960000    -3.7981640000    -2.8292950000
   15      N       1.1154610000    -5.1700030000    -3.0574960000
   16      C      -1.1190340000    -4.4249870000     3.0787120000
   17      C      -0.8651510000    -2.0366270000     2.3753000000
   18      N      -1.2011760000    -3.0491560000     3.3013740000
   19      O       0.9163550000    -7.3531310000    -2.4983000000
   20      O       1.3454860000    -2.9868540000    -3.6971950000
   21      O      -1.4303790000    -5.2489460000     3.9362240000
   22      O      -1.0077140000    -0.8788290000     2.7628050000
   23      C       1.5995760000    -5.5637990000    -4.3845390000
   24      H       1.6161210000    -6.6640850000    -4.4266360000
   25      H       2.6114580000    -5.1471010000    -4.5504870000
   26      H       0.9310370000    -5.1487850000    -5.1629210000
   27      C      -1.6773820000    -2.5874870000     4.6084540000
   28      H      -1.8961680000    -3.4833290000     5.2126680000
   29      H      -2.5835310000    -1.9649720000     4.4827190000
   30      H      -0.9036740000    -1.9629320000     5.0939880000
   31      H      -0.0225860000    -7.8223180000     0.0673090000
   32      C       0.0000000000     0.0000000000     0.0000000000
   33      S      -0.0002010000     0.7931710000     1.5805300000
   34      C      -0.0002280000     2.4308850000     0.9049110000
   35      C      -0.0001680000     0.9979900000    -0.9854000000
   36      C      -0.0002670000     2.3182310000    -0.4935280000
   37      H      -0.0001450000     0.7623430000    -2.0599340000
   38      H      -0.0003390000     3.1991640000    -1.1525930000
   39      H      -0.0003110000     3.3115660000     1.5560250000
 ----------------------------------------------------------------

   10   -1570.6606472821      8.00e-07  Convergence criterion met
 Total energy in the final basis set =    -1570.6606472821
        RIMP2         total energy =     -1575.2966046488 a.u.

                    Orbital Energies (a.u.)
 --------------------------------------------------------------

 Alpha MOs
 -- Occupied --
-91.9794 -20.5590 -20.5570 -20.5564 -20.5544 -15.6318 -15.6316 -11.4003
-11.3992 -11.3921 -11.3913 -11.3206 -11.3026 -11.3016 -11.3005 -11.2961
-11.2948 -11.2896 -11.2876 -11.2841 -11.2796 -11.2787 -11.2746 -11.2653
-11.2649 -11.2598 -11.2428  -8.9791  -6.6595  -6.6585  -6.6578  -1.4302
 -1.4253  -1.4067  -1.4047  -1.2690  -1.2665  -1.2173  -1.1721  -1.1428
 -1.1171  -1.0621  -1.0499  -0.9933  -0.9888  -0.9807  -0.9594  -0.9471
 -0.8974  -0.8804  -0.8782  -0.8631  -0.7938  -0.7780  -0.7761  -0.7598
 -0.7323  -0.7237  -0.7030  -0.6932  -0.6883  -0.6744  -0.6675  -0.6632
 -0.6574  -0.6406  -0.6386  -0.6364  -0.6279  -0.6144  -0.5842  -0.5818
 -0.5815  -0.5734  -0.5700  -0.5651  -0.5634  -0.5562  -0.5558  -0.5492
 -0.5332  -0.5233  -0.5222  -0.5195  -0.4879  -0.4728  -0.4671  -0.4638
 -0.4572  -0.4331  -0.4221  -0.4117  -0.4072  -0.3741  -0.3375  -0.3358
 -0.2974

          Ground-State Mulliken Net Atomic Charges

     Atom                 Charge (a.u.)
  ----------------------------------------
      1 C                    -0.144609
      2 C                    -0.110170
      3 C                    -0.032514
      4 C                    -0.003910
      5 H                     0.188387
      6 C                     0.002037
      7 C                     0.082826
      8 C                    -0.002109
      9 C                    -0.082399
     10 C                    -0.136631
     11 C                     0.096343
     12 H                     0.182809
     13 C                     0.359707
     14 C                     0.366628
     15 N                    -0.101871
     16 C                     0.359987
     17 C                     0.381722
     18 N                    -0.094344
     19 O                    -0.463900
     20 O                    -0.476724
     21 O                    -0.481994
     22 O                    -0.456112
     23 C                    -0.201069
     24 H                     0.141213
     25 H                     0.112459
     26 H                     0.112447
     27 C                    -0.197989
     28 H                     0.134757
     29 H                     0.113434
     30 H                     0.113467
     31 H                     0.212904
     32 C                    -0.044689
     33 S                     0.090875
     34 C                    -0.213978
     35 C                    -0.148373
     36 C                    -0.240055
     37 H                     0.187831
     38 H                     0.184977
     39 H                     0.208631
  ----------------------------------------
  Sum of atomic charges =     0.000000

                    Cartesian Multipole Moments
 -----------------------------------------------------------------
    Charge (ESU x 10^10)
                 0.0000
    Dipole Moment (Debye)
         X      -0.2450      Y       1.1310      Z      -0.2353
       Tot       1.1809
    Quadrupole Moments (Debye-Ang)
        XX    -166.3809     XY       0.0559     YY    -169.0605
        XZ       5.8387     YZ       0.5481     ZZ    -173.8636

 Total job time:  276.47s(wall), 8127.20s(cpu)
        *  Thank you very much for using Q-Chem.  Have a nice day.  *
