 Q-Chem 5.4, Q-Chem, Inc., Pleasanton, CA (2021)
 Q-Chem 5.4.0 for Intel X86 EM64T Linux

User input:
--------------------------------------------------------------
$molecule
0 1
C	-0.197767	-6.741404	-0.164018
C	-1.198109	-6.155638	-1.003240
C	0.632428	-5.791452	0.533192
C	-1.411364	-4.803786	-1.182482
H	-1.870845	-6.821518	-1.567483
C	0.409419	-4.378638	0.345145
C	-0.609565	-3.838032	-0.510347
C	1.210332	-3.413062	1.016449
C	-0.830799	-2.426473	-0.696879
C	0.999856	-2.059348	0.839039
C	-0.000000	-1.478216	-0.000000
H	1.673483	-1.394783	1.403737
C	1.736282	-6.187987	1.461835
C	2.306183	-3.798164	1.936119
N	2.491597	-5.170003	2.093916
C	-2.510310	-4.424987	-2.104529
C	-1.936153	-2.036627	-1.625377
N	-2.691451	-3.049156	-2.257873
O	2.034222	-7.353131	1.715561
O	3.014044	-2.986854	2.528858
O	-3.209622	-5.248946	-2.690385
O	-2.251529	-0.878829	-1.891876
C	3.573032	-5.563799	3.002711
H	3.606932	-6.664085	3.032655
H	3.382888	-5.147101	4.010326
H	4.533125	-5.148785	2.640711
C	-3.756832	-2.587487	-3.152408
H	-4.249778	-3.483329	-3.564653
H	-3.328759	-1.964972	-3.960905
H	-4.477709	-1.962932	-2.591422
H	-0.055524	-7.822318	-0.044245
C	0.000000	0.000000	0.000000
S	0.137535	0.781156	1.580530
C	0.421895	2.393994	0.904911
C	0.173134	0.982857	-0.985400
C	0.402294	2.283058	-0.493528
H	0.132237	0.750786	-2.059934
H	0.555196	3.150621	-1.152593
H	0.574741	3.261310	1.556025
$end

$rem
JOBTYPE		SP
EXCHANGE	HF
CORRELATION	pRIMP2
BASIS		cc-pvtz
METHOD		rimp2
AUX_BASIS	rimp2-cc-pvtz
SOLVENT_METHOD	PCM
PURECART	11111
SYMMETRY	false
MEM_TOTAL	110000
SCF_CONVERGENCE = 6
THRESH=10
GUI = 2
$end

$solvent
dielectric 4.90
$end
--------------------------------------------------------------

             Standard Nuclear Orientation (Angstroms)
    I     Atom           X                Y                Z
 ----------------------------------------------------------------
    1      C      -0.1977670000    -6.7414040000    -0.1640180000
    2      C      -1.1981090000    -6.1556380000    -1.0032400000
    3      C       0.6324280000    -5.7914520000     0.5331920000
    4      C      -1.4113640000    -4.8037860000    -1.1824820000
    5      H      -1.8708450000    -6.8215180000    -1.5674830000
    6      C       0.4094190000    -4.3786380000     0.3451450000
    7      C      -0.6095650000    -3.8380320000    -0.5103470000
    8      C       1.2103320000    -3.4130620000     1.0164490000
    9      C      -0.8307990000    -2.4264730000    -0.6968790000
   10      C       0.9998560000    -2.0593480000     0.8390390000
   11      C       0.0000000000    -1.4782160000     0.0000000000
   12      H       1.6734830000    -1.3947830000     1.4037370000
   13      C       1.7362820000    -6.1879870000     1.4618350000
   14      C       2.3061830000    -3.7981640000     1.9361190000
   15      N       2.4915970000    -5.1700030000     2.0939160000
   16      C      -2.5103100000    -4.4249870000    -2.1045290000
   17      C      -1.9361530000    -2.0366270000    -1.6253770000
   18      N      -2.6914510000    -3.0491560000    -2.2578730000
   19      O       2.0342220000    -7.3531310000     1.7155610000
   20      O       3.0140440000    -2.9868540000     2.5288580000
   21      O      -3.2096220000    -5.2489460000    -2.6903850000
   22      O      -2.2515290000    -0.8788290000    -1.8918760000
   23      C       3.5730320000    -5.5637990000     3.0027110000
   24      H       3.6069320000    -6.6640850000     3.0326550000
   25      H       3.3828880000    -5.1471010000     4.0103260000
   26      H       4.5331250000    -5.1487850000     2.6407110000
   27      C      -3.7568320000    -2.5874870000    -3.1524080000
   28      H      -4.2497780000    -3.4833290000    -3.5646530000
   29      H      -3.3287590000    -1.9649720000    -3.9609050000
   30      H      -4.4777090000    -1.9629320000    -2.5914220000
   31      H      -0.0555240000    -7.8223180000    -0.0442450000
   32      C       0.0000000000     0.0000000000     0.0000000000
   33      S       0.1375350000     0.7811560000     1.5805300000
   34      C       0.4218950000     2.3939940000     0.9049110000
   35      C       0.1731340000     0.9828570000    -0.9854000000
   36      C       0.4022940000     2.2830580000    -0.4935280000
   37      H       0.1322370000     0.7507860000    -2.0599340000
   38      H       0.5551960000     3.1506210000    -1.1525930000
   39      H       0.5747410000     3.2613100000     1.5560250000
 ----------------------------------------------------------------

   10   -1570.6905351475      7.00e-07  Convergence criterion met
 Total energy in the final basis set =    -1570.6905351475
        RIMP2         total energy =     -1575.3155774500 a.u.

                    Orbital Energies (a.u.)
 --------------------------------------------------------------

 Alpha MOs
 -- Occupied --
-91.9934 -20.5587 -20.5563 -20.5558 -20.5549 -15.6313 -15.6307 -11.4002
-11.3963 -11.3925 -11.3907 -11.3173 -11.3042 -11.3028 -11.3008 -11.2982
-11.2976 -11.2929 -11.2867 -11.2858 -11.2849 -11.2804 -11.2781 -11.2647
-11.2646 -11.2575 -11.2510  -8.9928  -6.6736  -6.6732  -6.6725  -1.4250
 -1.4238  -1.4043  -1.4029  -1.2676  -1.2652  -1.2178  -1.1765  -1.1444
 -1.1175  -1.0638  -1.0501  -0.9930  -0.9902  -0.9848  -0.9592  -0.9481
 -0.8974  -0.8795  -0.8783  -0.8610  -0.7964  -0.7782  -0.7730  -0.7606
 -0.7375  -0.7175  -0.7055  -0.6952  -0.6808  -0.6732  -0.6664  -0.6622
 -0.6568  -0.6422  -0.6374  -0.6333  -0.6297  -0.6128  -0.5866  -0.5844
 -0.5788  -0.5733  -0.5662  -0.5639  -0.5608  -0.5554  -0.5525  -0.5483
 -0.5385  -0.5267  -0.5215  -0.5155  -0.4836  -0.4702  -0.4673  -0.4636
 -0.4602  -0.4534  -0.4284  -0.4183  -0.4091  -0.3660  -0.3539  -0.3363
 -0.3096

          Ground-State Mulliken Net Atomic Charges

     Atom                 Charge (a.u.)
  ----------------------------------------
      1 C                    -0.134783
      2 C                    -0.107792
      3 C                    -0.040647
      4 C                    -0.003499
      5 H                     0.188861
      6 C                     0.000787
      7 C                     0.071947
      8 C                     0.009040
      9 C                    -0.026984
     10 C                    -0.144864
     11 C                     0.077615
     12 H                     0.187435
     13 C                     0.360384
     14 C                     0.364855
     15 N                    -0.101690
     16 C                     0.360055
     17 C                     0.345866
     18 N                    -0.095803
     19 O                    -0.464591
     20 O                    -0.475746
     21 O                    -0.480919
     22 O                    -0.461031
     23 C                    -0.200989
     24 H                     0.141047
     25 H                     0.112522
     26 H                     0.112406
     27 C                    -0.196222
     28 H                     0.133781
     29 H                     0.112318
     30 H                     0.113513
     31 H                     0.214021
     32 C                    -0.035498
     33 S                     0.024015
     34 C                    -0.199399
     35 C                    -0.144958
     36 C                    -0.210057
     37 H                     0.190050
     38 H                     0.191750
     39 H                     0.213203
  ----------------------------------------
  Sum of atomic charges =     0.000000

                    Cartesian Multipole Moments
 -----------------------------------------------------------------
    Charge (ESU x 10^10)
                 0.0000
    Dipole Moment (Debye)
         X       0.4684      Y       1.2567      Z      -0.9089
       Tot       1.6201
    Quadrupole Moments (Debye-Ang)
        XX    -175.8280     XY       2.4006     YY    -165.3457
        XZ     -10.0225     YZ       1.1952     ZZ    -165.9241

 Total job time:  268.51s(wall), 7684.24s(cpu)
        *  Thank you very much for using Q-Chem.  Have a nice day.  *
