 Q-Chem 5.4, Q-Chem, Inc., Pleasanton, CA (2021)
 Q-Chem 5.4.0 for Intel X86 EM64T Linux

User input:
--------------------------------------------------------------
$molecule
0 1
C	-0.252767	-6.741404	0.046070
C	-1.538656	-6.155638	0.272935
C	0.814966	-5.791452	-0.141739
C	-1.813042	-4.803786	0.321083
H	-2.403318	-6.821518	0.425592
C	0.527566	-4.378638	-0.091779
C	-0.782769	-3.838032	0.138909
C	1.556632	-3.413062	-0.273808
C	-1.067868	-2.426473	0.188483
C	1.285436	-2.059348	-0.226610
C	-0.000000	-1.478216	-0.000000
H	2.151019	-1.394783	-0.379657
C	2.235891	-6.187987	-0.390420
C	2.965540	-3.798164	-0.522125
N	3.205600	-5.170003	-0.562731
C	-3.225760	-4.424987	0.570244
C	-2.489646	-2.036627	0.438407
N	-3.459662	-3.049156	0.610438
O	2.621768	-7.353131	-0.455563
O	3.874608	-2.986854	-0.683373
O	-4.124059	-5.248946	0.729367
O	-2.896516	-0.878829	0.508697
C	4.596910	-5.563799	-0.806996
H	4.641640	-6.664085	-0.813717
H	5.246567	-5.147101	-0.013655
H	4.936739	-5.148785	-1.775159
C	-4.829729	-2.587487	0.851572
H	-5.462387	-3.483329	0.964204
H	-5.173914	-1.964972	0.003956
H	-4.863360	-1.962932	1.764390
H	-0.069584	-7.822318	0.014094
C	0.000000	0.000000	0.000000
S	0.607475	0.509994	1.580530
C	1.862020	1.562717	0.904911
C	0.764397	0.641624	-0.985400
C	1.775697	1.490335	-0.493528
H	0.583895	0.490135	-2.059934
H	2.450484	2.056643	-1.152593
H	2.536607	2.128872	1.556025
$end

$rem
JOBTYPE		SP
EXCHANGE	HF
CORRELATION	pRIMP2
BASIS		cc-pvtz
METHOD		rimp2
AUX_BASIS	rimp2-cc-pvtz
SOLVENT_METHOD	PCM
PURECART	11111
SYMMETRY	false
MEM_TOTAL	110000
SCF_CONVERGENCE = 6
THRESH=10
GUI = 2
$end

$solvent
dielectric 4.90
$end
--------------------------------------------------------------

             Standard Nuclear Orientation (Angstroms)
    I     Atom           X                Y                Z
 ----------------------------------------------------------------
    1      C      -0.2527670000    -6.7414040000     0.0460700000
    2      C      -1.5386560000    -6.1556380000     0.2729350000
    3      C       0.8149660000    -5.7914520000    -0.1417390000
    4      C      -1.8130420000    -4.8037860000     0.3210830000
    5      H      -2.4033180000    -6.8215180000     0.4255920000
    6      C       0.5275660000    -4.3786380000    -0.0917790000
    7      C      -0.7827690000    -3.8380320000     0.1389090000
    8      C       1.5566320000    -3.4130620000    -0.2738080000
    9      C      -1.0678680000    -2.4264730000     0.1884830000
   10      C       1.2854360000    -2.0593480000    -0.2266100000
   11      C       0.0000000000    -1.4782160000     0.0000000000
   12      H       2.1510190000    -1.3947830000    -0.3796570000
   13      C       2.2358910000    -6.1879870000    -0.3904200000
   14      C       2.9655400000    -3.7981640000    -0.5221250000
   15      N       3.2056000000    -5.1700030000    -0.5627310000
   16      C      -3.2257600000    -4.4249870000     0.5702440000
   17      C      -2.4896460000    -2.0366270000     0.4384070000
   18      N      -3.4596620000    -3.0491560000     0.6104380000
   19      O       2.6217680000    -7.3531310000    -0.4555630000
   20      O       3.8746080000    -2.9868540000    -0.6833730000
   21      O      -4.1240590000    -5.2489460000     0.7293670000
   22      O      -2.8965160000    -0.8788290000     0.5086970000
   23      C       4.5969100000    -5.5637990000    -0.8069960000
   24      H       4.6416400000    -6.6640850000    -0.8137170000
   25      H       5.2465670000    -5.1471010000    -0.0136550000
   26      H       4.9367390000    -5.1487850000    -1.7751590000
   27      C      -4.8297290000    -2.5874870000     0.8515720000
   28      H      -5.4623870000    -3.4833290000     0.9642040000
   29      H      -5.1739140000    -1.9649720000     0.0039560000
   30      H      -4.8633600000    -1.9629320000     1.7643900000
   31      H      -0.0695840000    -7.8223180000     0.0140940000
   32      C       0.0000000000     0.0000000000     0.0000000000
   33      S       0.6074750000     0.5099940000     1.5805300000
   34      C       1.8620200000     1.5627170000     0.9049110000
   35      C       0.7643970000     0.6416240000    -0.9854000000
   36      C       1.7756970000     1.4903350000    -0.4935280000
   37      H       0.5838950000     0.4901350000    -2.0599340000
   38      H       2.4504840000     2.0566430000    -1.1525930000
   39      H       2.5366070000     2.1288720000     1.5560250000
 ----------------------------------------------------------------

   11   -1570.6514671375      4.16e-07  Convergence criterion met
 Total energy in the final basis set =    -1570.6514671375
        RIMP2         total energy =     -1575.2855213034 a.u.

                    Orbital Energies (a.u.)
 --------------------------------------------------------------

 Alpha MOs
 -- Occupied --
-91.9955 -20.5579 -20.5554 -20.5546 -20.5539 -15.6306 -15.6294 -11.3994
-11.3946 -11.3914 -11.3897 -11.3152 -11.3011 -11.2988 -11.2980 -11.2977
-11.2958 -11.2957 -11.2841 -11.2835 -11.2787 -11.2783 -11.2754 -11.2674
-11.2644 -11.2636 -11.2552  -8.9951  -6.6758  -6.6752  -6.6747  -1.4242
 -1.4225  -1.4035  -1.4016  -1.2666  -1.2640  -1.2171  -1.1857  -1.1417
 -1.1154  -1.0622  -1.0479  -0.9928  -0.9918  -0.9911  -0.9582  -0.9462
 -0.8959  -0.8778  -0.8748  -0.8578  -0.7943  -0.7760  -0.7736  -0.7645
 -0.7358  -0.7179  -0.7062  -0.6934  -0.6817  -0.6740  -0.6654  -0.6613
 -0.6558  -0.6420  -0.6367  -0.6328  -0.6280  -0.6121  -0.5857  -0.5845
 -0.5780  -0.5768  -0.5673  -0.5634  -0.5622  -0.5546  -0.5524  -0.5474
 -0.5370  -0.5266  -0.5184  -0.5020  -0.4822  -0.4753  -0.4659  -0.4597
 -0.4584  -0.4523  -0.4268  -0.4174  -0.4072  -0.3706  -0.3375  -0.3349
 -0.3229

          Ground-State Mulliken Net Atomic Charges

     Atom                 Charge (a.u.)
  ----------------------------------------
      1 C                    -0.137897
      2 C                    -0.112247
      3 C                    -0.037007
      4 C                     0.002395
      5 H                     0.187882
      6 C                    -0.006693
      7 C                     0.078616
      8 C                    -0.009188
      9 C                    -0.034627
     10 C                    -0.116572
     11 C                     0.023391
     12 H                     0.186003
     13 C                     0.359451
     14 C                     0.362436
     15 N                    -0.101070
     16 C                     0.357633
     17 C                     0.365717
     18 N                    -0.096777
     19 O                    -0.465614
     20 O                    -0.479292
     21 O                    -0.481391
     22 O                    -0.459471
     23 C                    -0.201654
     24 H                     0.141103
     25 H                     0.112189
     26 H                     0.111944
     27 C                    -0.197105
     28 H                     0.133213
     29 H                     0.112915
     30 H                     0.112924
     31 H                     0.213251
     32 C                    -0.048336
     33 S                     0.047993
     34 C                    -0.163869
     35 C                    -0.154014
     36 C                    -0.210342
     37 H                     0.193448
     38 H                     0.195308
     39 H                     0.215355
  ----------------------------------------
  Sum of atomic charges =     0.000000

                    Cartesian Multipole Moments
 -----------------------------------------------------------------
    Charge (ESU x 10^10)
                 0.0000
    Dipole Moment (Debye)
         X       2.3307      Y       1.4165      Z      -0.8547
       Tot       2.8582
    Quadrupole Moments (Debye-Ang)
        XX    -177.5291     XY       7.1244     YY    -174.2274
        XZ       4.4901     YZ       0.6058     ZZ    -157.3818

 Total job time:  293.33s(wall), 8857.25s(cpu)
        *  Thank you very much for using Q-Chem.  Have a nice day.  *
