 Q-Chem 5.4, Q-Chem, Inc., Pleasanton, CA (2021)
 Q-Chem 5.4.0 for Intel X86 EM64T Linux

User input:
--------------------------------------------------------------
$molecule
0 1
C	0.086486	-6.741404	-0.241938
C	0.532960	-6.155638	-1.468983
C	-0.284733	-5.791452	0.776651
C	0.628455	-4.803786	-1.730681
H	0.833086	-6.821518	-2.294130
C	-0.184300	-4.378638	0.502775
C	0.271086	-3.838032	-0.747353
C	-0.541191	-3.413062	1.484986
C	0.370703	-2.426473	-1.019042
C	-0.446468	-2.059348	1.226525
C	-0.000000	-1.478216	-0.000000
H	-0.746717	-1.394783	2.052666
C	-0.779832	-6.187987	2.131549
C	-1.030596	-3.798164	2.829295
N	-1.115461	-5.170003	3.057496
C	1.119034	-4.424987	-3.078712
C	0.865151	-2.036627	-2.375300
N	1.201176	-3.049156	-3.301374
O	-0.916355	-7.353131	2.498300
O	-1.345486	-2.986854	3.697195
O	1.430379	-5.248946	-3.936224
O	1.007714	-0.878829	-2.762805
C	-1.599576	-5.563799	4.384539
H	-1.616121	-6.664085	4.426636
H	-2.611458	-5.147101	4.550487
H	-0.931037	-5.148785	5.162921
C	1.677382	-2.587487	-4.608454
H	1.896168	-3.483329	-5.212668
H	2.583531	-1.964972	-4.482719
H	0.903674	-1.962932	-5.093988
H	0.022586	-7.822318	-0.067309
C	0.000000	0.000000	0.000000
S	0.686805	0.396760	1.580530
C	2.105095	1.215640	0.904911
C	0.864201	0.499140	-0.985400
C	2.007514	1.159347	-0.493528
H	0.660136	0.381296	-2.059934
H	2.770388	1.599875	-1.152593
H	2.867745	1.656053	1.556025
$end

$rem
JOBTYPE		SP
EXCHANGE	HF
CORRELATION	pRIMP2
BASIS		cc-pvtz
METHOD		rimp2
AUX_BASIS	rimp2-cc-pvtz
SOLVENT_METHOD	PCM
PURECART	11111
SYMMETRY	false
MEM_TOTAL	110000
SCF_CONVERGENCE = 6
THRESH=10
GUI = 2
$end

$solvent
dielectric 4.90
$end
--------------------------------------------------------------

             Standard Nuclear Orientation (Angstroms)
    I     Atom           X                Y                Z
 ----------------------------------------------------------------
    1      C       0.0864860000    -6.7414040000    -0.2419380000
    2      C       0.5329600000    -6.1556380000    -1.4689830000
    3      C      -0.2847330000    -5.7914520000     0.7766510000
    4      C       0.6284550000    -4.8037860000    -1.7306810000
    5      H       0.8330860000    -6.8215180000    -2.2941300000
    6      C      -0.1843000000    -4.3786380000     0.5027750000
    7      C       0.2710860000    -3.8380320000    -0.7473530000
    8      C      -0.5411910000    -3.4130620000     1.4849860000
    9      C       0.3707030000    -2.4264730000    -1.0190420000
   10      C      -0.4464680000    -2.0593480000     1.2265250000
   11      C       0.0000000000    -1.4782160000     0.0000000000
   12      H      -0.7467170000    -1.3947830000     2.0526660000
   13      C      -0.7798320000    -6.1879870000     2.1315490000
   14      C      -1.0305960000    -3.7981640000     2.8292950000
   15      N      -1.1154610000    -5.1700030000     3.0574960000
   16      C       1.1190340000    -4.4249870000    -3.0787120000
   17      C       0.8651510000    -2.0366270000    -2.3753000000
   18      N       1.2011760000    -3.0491560000    -3.3013740000
   19      O      -0.9163550000    -7.3531310000     2.4983000000
   20      O      -1.3454860000    -2.9868540000     3.6971950000
   21      O       1.4303790000    -5.2489460000    -3.9362240000
   22      O       1.0077140000    -0.8788290000    -2.7628050000
   23      C      -1.5995760000    -5.5637990000     4.3845390000
   24      H      -1.6161210000    -6.6640850000     4.4266360000
   25      H      -2.6114580000    -5.1471010000     4.5504870000
   26      H      -0.9310370000    -5.1487850000     5.1629210000
   27      C       1.6773820000    -2.5874870000    -4.6084540000
   28      H       1.8961680000    -3.4833290000    -5.2126680000
   29      H       2.5835310000    -1.9649720000    -4.4827190000
   30      H       0.9036740000    -1.9629320000    -5.0939880000
   31      H       0.0225860000    -7.8223180000    -0.0673090000
   32      C       0.0000000000     0.0000000000     0.0000000000
   33      S       0.6868050000     0.3967600000     1.5805300000
   34      C       2.1050950000     1.2156400000     0.9049110000
   35      C       0.8642010000     0.4991400000    -0.9854000000
   36      C       2.0075140000     1.1593470000    -0.4935280000
   37      H       0.6601360000     0.3812960000    -2.0599340000
   38      H       2.7703880000     1.5998750000    -1.1525930000
   39      H       2.8677450000     1.6560530000     1.5560250000
 ----------------------------------------------------------------

   11   -1570.5853255397      5.97e-07  Convergence criterion met
 Total energy in the final basis set =    -1570.5853255397
        RIMP2         total energy =     -1575.2253608344 a.u.

                    Orbital Energies (a.u.)
 --------------------------------------------------------------

 Alpha MOs
 -- Occupied --
-91.9899 -20.5571 -20.5545 -20.5532 -20.5515 -15.6312 -15.6294 -11.4005
-11.3978 -11.3893 -11.3885 -11.3214 -11.3134 -11.2988 -11.2961 -11.2874
-11.2859 -11.2836 -11.2831 -11.2771 -11.2746 -11.2728 -11.2654 -11.2634
-11.2624 -11.2599 -11.2490  -8.9908  -6.6715  -6.6707  -6.6703  -1.4333
 -1.4231  -1.4060  -1.4024  -1.2686  -1.2645  -1.2159  -1.1870  -1.1398
 -1.1117  -1.0613  -1.0457  -0.9988  -0.9907  -0.9902  -0.9576  -0.9454
 -0.8970  -0.8771  -0.8728  -0.8607  -0.7955  -0.7790  -0.7774  -0.7674
 -0.7401  -0.7327  -0.7004  -0.6914  -0.6803  -0.6722  -0.6667  -0.6616
 -0.6541  -0.6413  -0.6388  -0.6333  -0.6245  -0.6122  -0.5900  -0.5855
 -0.5779  -0.5751  -0.5675  -0.5631  -0.5580  -0.5555  -0.5546  -0.5455
 -0.5324  -0.5210  -0.5181  -0.5120  -0.4771  -0.4666  -0.4626  -0.4576
 -0.4538  -0.4327  -0.4297  -0.4186  -0.4073  -0.3782  -0.3479  -0.3323
 -0.2963

          Ground-State Mulliken Net Atomic Charges

     Atom                 Charge (a.u.)
  ----------------------------------------
      1 C                    -0.168017
      2 C                    -0.111267
      3 C                    -0.021298
      4 C                    -0.005641
      5 H                     0.185880
      6 C                    -0.021990
      7 C                     0.085144
      8 C                     0.017633
      9 C                    -0.129330
     10 C                    -0.129058
     11 C                     0.084537
     12 H                     0.164461
     13 C                     0.359439
     14 C                     0.364876
     15 N                    -0.101329
     16 C                     0.356770
     17 C                     0.394550
     18 N                    -0.087732
     19 O                    -0.464850
     20 O                    -0.478401
     21 O                    -0.485660
     22 O                    -0.461118
     23 C                    -0.201684
     24 H                     0.140766
     25 H                     0.112066
     26 H                     0.111934
     27 C                    -0.200299
     28 H                     0.135304
     29 H                     0.111889
     30 H                     0.113038
     31 H                     0.209561
     32 C                    -0.136899
     33 S                     0.025022
     34 C                    -0.108612
     35 C                    -0.059688
     36 C                    -0.259381
     37 H                     0.246552
     38 H                     0.192676
     39 H                     0.220154
  ----------------------------------------
  Sum of atomic charges =     0.000000

                    Cartesian Multipole Moments
 -----------------------------------------------------------------
    Charge (ESU x 10^10)
                 0.0000
    Dipole Moment (Debye)
         X       3.2746      Y       3.0201      Z      -1.0237
       Tot       4.5707
    Quadrupole Moments (Debye-Ang)
        XX    -156.1801     XY       6.2370     YY    -185.4885
        XZ       7.8322     YZ      -0.4260     ZZ    -175.3166

 Total job time:  276.93s(wall), 8514.55s(cpu)
        *  Thank you very much for using Q-Chem.  Have a nice day.  *
