 Q-Chem 5.4, Q-Chem, Inc., Pleasanton, CA (2021)
 Q-Chem 5.4.0 for Intel X86 EM64T Linux

User input:
--------------------------------------------------------------
$molecule
0 1
C	-0.197767	-6.741404	-0.164018
C	-1.198109	-6.155638	-1.003240
C	0.632428	-5.791452	0.533192
C	-1.411364	-4.803786	-1.182482
H	-1.870845	-6.821518	-1.567483
C	0.409419	-4.378638	0.345145
C	-0.609565	-3.838032	-0.510347
C	1.210332	-3.413062	1.016449
C	-0.830799	-2.426473	-0.696879
C	0.999856	-2.059348	0.839039
C	-0.000000	-1.478216	-0.000000
H	1.673483	-1.394783	1.403737
C	1.736282	-6.187987	1.461835
C	2.306183	-3.798164	1.936119
N	2.491597	-5.170003	2.093916
C	-2.510310	-4.424987	-2.104529
C	-1.936153	-2.036627	-1.625377
N	-2.691451	-3.049156	-2.257873
O	2.034222	-7.353131	1.715561
O	3.014044	-2.986854	2.528858
O	-3.209622	-5.248946	-2.690385
O	-2.251529	-0.878829	-1.891876
C	3.573032	-5.563799	3.002711
H	3.606932	-6.664085	3.032655
H	3.382888	-5.147101	4.010326
H	4.533125	-5.148785	2.640711
C	-3.756832	-2.587487	-3.152408
H	-4.249778	-3.483329	-3.564653
H	-3.328759	-1.964972	-3.960905
H	-4.477709	-1.962932	-2.591422
H	-0.055524	-7.822318	-0.044245
C	0.000000	0.000000	0.000000
S	0.607475	0.509994	1.580530
C	1.862020	1.562717	0.904911
C	0.764397	0.641624	-0.985400
C	1.775697	1.490335	-0.493528
H	0.583895	0.490135	-2.059934
H	2.450484	2.056643	-1.152593
H	2.536607	2.128872	1.556025
$end

$rem
JOBTYPE		SP
EXCHANGE	HF
CORRELATION	pRIMP2
BASIS		cc-pvtz
METHOD		rimp2
AUX_BASIS	rimp2-cc-pvtz
SOLVENT_METHOD	PCM
PURECART	11111
SYMMETRY	false
MEM_TOTAL	110000
SCF_CONVERGENCE = 6
THRESH=10
GUI = 2
$end

$solvent
dielectric 4.90
$end
--------------------------------------------------------------

             Standard Nuclear Orientation (Angstroms)
    I     Atom           X                Y                Z
 ----------------------------------------------------------------
    1      C      -0.1977670000    -6.7414040000    -0.1640180000
    2      C      -1.1981090000    -6.1556380000    -1.0032400000
    3      C       0.6324280000    -5.7914520000     0.5331920000
    4      C      -1.4113640000    -4.8037860000    -1.1824820000
    5      H      -1.8708450000    -6.8215180000    -1.5674830000
    6      C       0.4094190000    -4.3786380000     0.3451450000
    7      C      -0.6095650000    -3.8380320000    -0.5103470000
    8      C       1.2103320000    -3.4130620000     1.0164490000
    9      C      -0.8307990000    -2.4264730000    -0.6968790000
   10      C       0.9998560000    -2.0593480000     0.8390390000
   11      C       0.0000000000    -1.4782160000     0.0000000000
   12      H       1.6734830000    -1.3947830000     1.4037370000
   13      C       1.7362820000    -6.1879870000     1.4618350000
   14      C       2.3061830000    -3.7981640000     1.9361190000
   15      N       2.4915970000    -5.1700030000     2.0939160000
   16      C      -2.5103100000    -4.4249870000    -2.1045290000
   17      C      -1.9361530000    -2.0366270000    -1.6253770000
   18      N      -2.6914510000    -3.0491560000    -2.2578730000
   19      O       2.0342220000    -7.3531310000     1.7155610000
   20      O       3.0140440000    -2.9868540000     2.5288580000
   21      O      -3.2096220000    -5.2489460000    -2.6903850000
   22      O      -2.2515290000    -0.8788290000    -1.8918760000
   23      C       3.5730320000    -5.5637990000     3.0027110000
   24      H       3.6069320000    -6.6640850000     3.0326550000
   25      H       3.3828880000    -5.1471010000     4.0103260000
   26      H       4.5331250000    -5.1487850000     2.6407110000
   27      C      -3.7568320000    -2.5874870000    -3.1524080000
   28      H      -4.2497780000    -3.4833290000    -3.5646530000
   29      H      -3.3287590000    -1.9649720000    -3.9609050000
   30      H      -4.4777090000    -1.9629320000    -2.5914220000
   31      H      -0.0555240000    -7.8223180000    -0.0442450000
   32      C       0.0000000000     0.0000000000     0.0000000000
   33      S       0.6074750000     0.5099940000     1.5805300000
   34      C       1.8620200000     1.5627170000     0.9049110000
   35      C       0.7643970000     0.6416240000    -0.9854000000
   36      C       1.7756970000     1.4903350000    -0.4935280000
   37      H       0.5838950000     0.4901350000    -2.0599340000
   38      H       2.4504840000     2.0566430000    -1.1525930000
   39      H       2.5366070000     2.1288720000     1.5560250000
 ----------------------------------------------------------------

   10   -1570.6393209115      9.25e-07  Convergence criterion met
 Total energy in the final basis set =    -1570.6393209115
        RIMP2         total energy =     -1575.2764548749 a.u.

                    Orbital Energies (a.u.)
 --------------------------------------------------------------

 Alpha MOs
 -- Occupied --
-91.9905 -20.5576 -20.5553 -20.5533 -20.5526 -15.6303 -15.6285 -11.3989
-11.3931 -11.3902 -11.3893 -11.3170 -11.3020 -11.3004 -11.2972 -11.2943
-11.2934 -11.2930 -11.2829 -11.2820 -11.2809 -11.2776 -11.2756 -11.2699
-11.2642 -11.2634 -11.2554  -8.9915  -6.6721  -6.6714  -6.6712  -1.4239
 -1.4215  -1.4032  -1.4006  -1.2661  -1.2631  -1.2168  -1.1877  -1.1410
 -1.1140  -1.0627  -1.0471  -0.9953  -0.9925  -0.9908  -0.9575  -0.9450
 -0.8953  -0.8771  -0.8748  -0.8570  -0.7962  -0.7789  -0.7717  -0.7636
 -0.7358  -0.7177  -0.7064  -0.6940  -0.6800  -0.6734  -0.6649  -0.6607
 -0.6549  -0.6427  -0.6357  -0.6316  -0.6272  -0.6118  -0.5873  -0.5835
 -0.5803  -0.5783  -0.5674  -0.5627  -0.5606  -0.5551  -0.5522  -0.5474
 -0.5430  -0.5259  -0.5188  -0.4941  -0.4820  -0.4715  -0.4663  -0.4620
 -0.4587  -0.4515  -0.4265  -0.4172  -0.4069  -0.3717  -0.3473  -0.3330
 -0.3099

          Ground-State Mulliken Net Atomic Charges

     Atom                 Charge (a.u.)
  ----------------------------------------
      1 C                    -0.144017
      2 C                    -0.110573
      3 C                    -0.032091
      4 C                    -0.000578
      5 H                     0.187627
      6 C                    -0.008296
      7 C                     0.070351
      8 C                     0.021525
      9 C                    -0.059034
     10 C                    -0.149371
     11 C                     0.055373
     12 H                     0.186141
     13 C                     0.358300
     14 C                     0.363349
     15 N                    -0.100904
     16 C                     0.356436
     17 C                     0.363693
     18 N                    -0.095752
     19 O                    -0.465529
     20 O                    -0.479345
     21 O                    -0.483493
     22 O                    -0.468695
     23 C                    -0.201617
     24 H                     0.140995
     25 H                     0.112133
     26 H                     0.111826
     27 C                    -0.197470
     28 H                     0.133248
     29 H                     0.111699
     30 H                     0.112984
     31 H                     0.212351
     32 C                    -0.065145
     33 S                     0.022972
     34 C                    -0.152766
     35 C                    -0.082895
     36 C                    -0.232143
     37 H                     0.197947
     38 H                     0.194171
     39 H                     0.216591
  ----------------------------------------
  Sum of atomic charges =     0.000000

                    Cartesian Multipole Moments
 -----------------------------------------------------------------
    Charge (ESU x 10^10)
                 0.0000
    Dipole Moment (Debye)
         X       2.7005      Y       1.9377      Z      -0.6630
       Tot       3.3892
    Quadrupole Moments (Debye-Ang)
        XX    -169.3551     XY       6.4599     YY    -176.6756
        XZ      -9.8697     YZ       0.5148     ZZ    -165.6625

 Total job time:  259.83s(wall), 8213.86s(cpu)
        *  Thank you very much for using Q-Chem.  Have a nice day.  *
