 Q-Chem 5.4, Q-Chem, Inc., Pleasanton, CA (2021)
 Q-Chem 5.4.0 for Intel X86 EM64T Linux

User input:
--------------------------------------------------------------
$molecule
0 1
C	-0.240927	-6.741404	0.089263
C	-1.467886	-6.155638	0.535973
C	0.777972	-5.791452	-0.281103
C	-1.729742	-4.803786	0.631036
H	-2.292903	-6.821518	0.836458
C	0.503614	-4.378638	-0.181995
C	-0.746756	-3.838032	0.272725
C	1.485437	-3.413062	-0.539954
C	-1.018915	-2.426473	0.371053
C	1.226557	-2.059348	-0.446381
C	-0.000000	-1.478216	-0.000000
H	2.052413	-1.394783	-0.747410
C	2.134128	-6.187987	-0.772747
C	2.829820	-3.798164	-1.029154
N	3.059182	-5.170003	-1.110828
C	-3.077731	-4.424987	1.121728
C	-2.375694	-2.036627	0.864069
N	-3.301101	-3.049156	1.201928
O	2.502830	-7.353131	-0.903908
O	3.697078	-2.986854	-1.345809
O	-3.934752	-5.248946	1.434422
O	-2.764177	-0.878829	1.003943
C	4.386939	-5.563799	-1.592981
H	4.429822	-6.664085	-1.607367
H	5.164489	-5.147101	-0.924504
H	4.553486	-5.148785	-2.605446
C	-4.608481	-2.587487	1.677308
H	-5.211969	-3.483329	1.898089
H	-5.094624	-1.964972	0.902337
H	-4.483092	-1.962932	2.582098
H	-0.066080	-7.822318	0.025963
C	0.000000	0.000000	0.000000
S	0.137535	0.781156	1.580530
C	0.421895	2.393994	0.904911
C	0.173134	0.982857	-0.985400
C	0.402294	2.283058	-0.493528
H	0.132237	0.750786	-2.059934
H	0.555196	3.150621	-1.152593
H	0.574741	3.261310	1.556025
$end

$rem
JOBTYPE		SP
EXCHANGE	HF
CORRELATION	pRIMP2
BASIS		cc-pvtz
METHOD		rimp2
AUX_BASIS	rimp2-cc-pvtz
SOLVENT_METHOD	PCM
PURECART	11111
SYMMETRY	false
MEM_TOTAL	110000
SCF_CONVERGENCE = 6
THRESH=10
GUI = 2
$end

$solvent
dielectric 4.90
$end
--------------------------------------------------------------

             Standard Nuclear Orientation (Angstroms)
    I     Atom           X                Y                Z
 ----------------------------------------------------------------
    1      C      -0.2409270000    -6.7414040000     0.0892630000
    2      C      -1.4678860000    -6.1556380000     0.5359730000
    3      C       0.7779720000    -5.7914520000    -0.2811030000
    4      C      -1.7297420000    -4.8037860000     0.6310360000
    5      H      -2.2929030000    -6.8215180000     0.8364580000
    6      C       0.5036140000    -4.3786380000    -0.1819950000
    7      C      -0.7467560000    -3.8380320000     0.2727250000
    8      C       1.4854370000    -3.4130620000    -0.5399540000
    9      C      -1.0189150000    -2.4264730000     0.3710530000
   10      C       1.2265570000    -2.0593480000    -0.4463810000
   11      C       0.0000000000    -1.4782160000     0.0000000000
   12      H       2.0524130000    -1.3947830000    -0.7474100000
   13      C       2.1341280000    -6.1879870000    -0.7727470000
   14      C       2.8298200000    -3.7981640000    -1.0291540000
   15      N       3.0591820000    -5.1700030000    -1.1108280000
   16      C      -3.0777310000    -4.4249870000     1.1217280000
   17      C      -2.3756940000    -2.0366270000     0.8640690000
   18      N      -3.3011010000    -3.0491560000     1.2019280000
   19      O       2.5028300000    -7.3531310000    -0.9039080000
   20      O       3.6970780000    -2.9868540000    -1.3458090000
   21      O      -3.9347520000    -5.2489460000     1.4344220000
   22      O      -2.7641770000    -0.8788290000     1.0039430000
   23      C       4.3869390000    -5.5637990000    -1.5929810000
   24      H       4.4298220000    -6.6640850000    -1.6073670000
   25      H       5.1644890000    -5.1471010000    -0.9245040000
   26      H       4.5534860000    -5.1487850000    -2.6054460000
   27      C      -4.6084810000    -2.5874870000     1.6773080000
   28      H      -5.2119690000    -3.4833290000     1.8980890000
   29      H      -5.0946240000    -1.9649720000     0.9023370000
   30      H      -4.4830920000    -1.9629320000     2.5820980000
   31      H      -0.0660800000    -7.8223180000     0.0259630000
   32      C       0.0000000000     0.0000000000     0.0000000000
   33      S       0.1375350000     0.7811560000     1.5805300000
   34      C       0.4218950000     2.3939940000     0.9049110000
   35      C       0.1731340000     0.9828570000    -0.9854000000
   36      C       0.4022940000     2.2830580000    -0.4935280000
   37      H       0.1322370000     0.7507860000    -2.0599340000
   38      H       0.5551960000     3.1506210000    -1.1525930000
   39      H       0.5747410000     3.2613100000     1.5560250000
 ----------------------------------------------------------------

   10   -1570.6898832095      7.06e-07  Convergence criterion met
 Total energy in the final basis set =    -1570.6898832095
        RIMP2         total energy =     -1575.3139366583 a.u.

                    Orbital Energies (a.u.)
 --------------------------------------------------------------

 Alpha MOs
 -- Occupied --
-91.9904 -20.5589 -20.5572 -20.5566 -20.5556 -15.6316 -15.6313 -11.4006
-11.3973 -11.3932 -11.3910 -11.3165 -11.3077 -11.3034 -11.3016 -11.2998
-11.2992 -11.2938 -11.2872 -11.2866 -11.2811 -11.2811 -11.2792 -11.2648
-11.2647 -11.2561 -11.2498  -8.9897  -6.6705  -6.6700  -6.6694  -1.4253
 -1.4246  -1.4046  -1.4036  -1.2680  -1.2657  -1.2185  -1.1749  -1.1446
 -1.1185  -1.0636  -1.0508  -0.9935  -0.9895  -0.9830  -0.9596  -0.9487
 -0.8978  -0.8800  -0.8785  -0.8615  -0.7958  -0.7777  -0.7737  -0.7606
 -0.7358  -0.7194  -0.7055  -0.6953  -0.6817  -0.6739  -0.6668  -0.6626
 -0.6575  -0.6425  -0.6381  -0.6343  -0.6305  -0.6132  -0.5853  -0.5848
 -0.5784  -0.5728  -0.5666  -0.5645  -0.5635  -0.5555  -0.5534  -0.5487
 -0.5335  -0.5262  -0.5196  -0.5183  -0.4838  -0.4715  -0.4670  -0.4610
 -0.4593  -0.4538  -0.4287  -0.4185  -0.4093  -0.3578  -0.3511  -0.3358
 -0.3188

          Ground-State Mulliken Net Atomic Charges

     Atom                 Charge (a.u.)
  ----------------------------------------
      1 C                    -0.130259
      2 C                    -0.108260
      3 C                    -0.043592
      4 C                    -0.000039
      5 H                     0.189167
      6 C                     0.001055
      7 C                     0.072035
      8 C                     0.004289
      9 C                    -0.018447
     10 C                    -0.109336
     11 C                     0.040479
     12 H                     0.186009
     13 C                     0.360799
     14 C                     0.365998
     15 N                    -0.101926
     16 C                     0.359982
     17 C                     0.351277
     18 N                    -0.097531
     19 O                    -0.464677
     20 O                    -0.476283
     21 O                    -0.479683
     22 O                    -0.456777
     23 C                    -0.201003
     24 H                     0.141098
     25 H                     0.112665
     26 H                     0.112348
     27 C                    -0.195811
     28 H                     0.133646
     29 H                     0.113424
     30 H                     0.113467
     31 H                     0.214664
     32 C                    -0.017739
     33 S                     0.037881
     34 C                    -0.211034
     35 C                    -0.192559
     36 C                    -0.199365
     37 H                     0.191432
     38 H                     0.191745
     39 H                     0.210865
  ----------------------------------------
  Sum of atomic charges =     0.000000

                    Cartesian Multipole Moments
 -----------------------------------------------------------------
    Charge (ESU x 10^10)
                 0.0000
    Dipole Moment (Debye)
         X       0.2720      Y       0.7032      Z      -0.8755
       Tot       1.1554
    Quadrupole Moments (Debye-Ang)
        XX    -181.6285     XY       2.9551     YY    -164.0614
        XZ       6.4976     YZ       0.3743     ZZ    -159.8377

 Total job time:  404.12s(wall), 9349.94s(cpu)
        *  Thank you very much for using Q-Chem.  Have a nice day.  *
