 Q-Chem 5.4, Q-Chem, Inc., Pleasanton, CA (2021)
 Q-Chem 5.4.0 for Intel X86 EM64T Linux

User input:
--------------------------------------------------------------
$molecule
0 1
C	0.586080	-6.715879	-0.256927
C	0.534902	-6.132354	-1.562675
C	0.502834	-5.769583	0.827197
C	0.417309	-4.785626	-1.841253
H	0.592747	-6.795716	-2.440709
C	0.380402	-4.362083	0.535488
C	0.333638	-3.823504	-0.794999
C	0.296812	-3.400131	1.580529
C	0.211295	-2.417255	-1.084374
C	0.179438	-2.051515	1.305258
C	0.128835	-1.472591	-0.000000
H	0.121931	-1.389444	2.184267
C	0.535563	-6.164769	2.269719
C	0.330267	-3.783778	3.011152
N	0.448140	-5.150545	3.254617
C	0.384235	-4.408274	-3.275775
C	0.178078	-2.028827	-2.527951
N	0.265353	-3.037588	-3.513104
O	0.634270	-7.325728	2.661046
O	0.260493	-2.975473	3.934410
O	0.455333	-5.229160	-4.188059
O	0.078594	-0.875310	-2.940845
C	0.481421	-5.542933	4.667206
H	0.576173	-6.639132	4.712423
H	-0.445595	-5.205747	5.169231
H	1.336290	-5.051542	5.169992
C	0.225553	-2.577637	-4.904229
H	0.302574	-3.470163	-5.546833
H	1.062399	-1.879530	-5.095998
H	-0.718592	-2.033299	-5.095858
H	0.679970	-7.792708	-0.070974
C	0.000000	0.000000	0.000000
S	0.335026	0.718942	1.580530
C	1.027130	2.203226	0.904911
C	0.421617	0.904557	-0.985400
C	0.979485	2.101144	-0.493528
H	0.322049	0.690978	-2.059934
H	1.351718	2.899571	-1.152593
H	1.399246	3.001430	1.556025
$end

$rem
JOBTYPE		SP
EXCHANGE	HF
CORRELATION	pRIMP2
BASIS		cc-pvtz
METHOD		rimp2
AUX_BASIS	rimp2-cc-pvtz
SOLVENT_METHOD	PCM
PURECART	11111
SYMMETRY	false
MEM_TOTAL	110000
SCF_CONVERGENCE = 6
THRESH=10
GUI = 2
$end

$solvent
dielectric 4.90
$end
--------------------------------------------------------------

             Standard Nuclear Orientation (Angstroms)
    I     Atom           X                Y                Z
 ----------------------------------------------------------------
    1      C       0.5860800000    -6.7158790000    -0.2569270000
    2      C       0.5349020000    -6.1323540000    -1.5626750000
    3      C       0.5028340000    -5.7695830000     0.8271970000
    4      C       0.4173090000    -4.7856260000    -1.8412530000
    5      H       0.5927470000    -6.7957160000    -2.4407090000
    6      C       0.3804020000    -4.3620830000     0.5354880000
    7      C       0.3336380000    -3.8235040000    -0.7949990000
    8      C       0.2968120000    -3.4001310000     1.5805290000
    9      C       0.2112950000    -2.4172550000    -1.0843740000
   10      C       0.1794380000    -2.0515150000     1.3052580000
   11      C       0.1288350000    -1.4725910000     0.0000000000
   12      H       0.1219310000    -1.3894440000     2.1842670000
   13      C       0.5355630000    -6.1647690000     2.2697190000
   14      C       0.3302670000    -3.7837780000     3.0111520000
   15      N       0.4481400000    -5.1505450000     3.2546170000
   16      C       0.3842350000    -4.4082740000    -3.2757750000
   17      C       0.1780780000    -2.0288270000    -2.5279510000
   18      N       0.2653530000    -3.0375880000    -3.5131040000
   19      O       0.6342700000    -7.3257280000     2.6610460000
   20      O       0.2604930000    -2.9754730000     3.9344100000
   21      O       0.4553330000    -5.2291600000    -4.1880590000
   22      O       0.0785940000    -0.8753100000    -2.9408450000
   23      C       0.4814210000    -5.5429330000     4.6672060000
   24      H       0.5761730000    -6.6391320000     4.7124230000
   25      H      -0.4455950000    -5.2057470000     5.1692310000
   26      H       1.3362900000    -5.0515420000     5.1699920000
   27      C       0.2255530000    -2.5776370000    -4.9042290000
   28      H       0.3025740000    -3.4701630000    -5.5468330000
   29      H       1.0623990000    -1.8795300000    -5.0959980000
   30      H      -0.7185920000    -2.0332990000    -5.0958580000
   31      H       0.6799700000    -7.7927080000    -0.0709740000
   32      C       0.0000000000     0.0000000000     0.0000000000
   33      S       0.3350260000     0.7189420000     1.5805300000
   34      C       1.0271300000     2.2032260000     0.9049110000
   35      C       0.4216170000     0.9045570000    -0.9854000000
   36      C       0.9794850000     2.1011440000    -0.4935280000
   37      H       0.3220490000     0.6909780000    -2.0599340000
   38      H       1.3517180000     2.8995710000    -1.1525930000
   39      H       1.3992460000     3.0014300000     1.5560250000
 ----------------------------------------------------------------

   10   -1570.6660666349      9.51e-07  Convergence criterion met
 Total energy in the final basis set =    -1570.6660666349
        RIMP2         total energy =     -1575.2974731766 a.u.

                    Orbital Energies (a.u.)
 --------------------------------------------------------------

 Alpha MOs
 -- Occupied --
-91.9926 -20.5580 -20.5560 -20.5548 -20.5526 -15.6306 -15.6299 -11.3992
-11.3964 -11.3904 -11.3902 -11.3199 -11.3010 -11.2986 -11.2965 -11.2941
-11.2928 -11.2918 -11.2862 -11.2862 -11.2814 -11.2777 -11.2760 -11.2646
-11.2641 -11.2570 -11.2504  -8.9929  -6.6737  -6.6731  -6.6725  -1.4254
 -1.4243  -1.4037  -1.4036  -1.2669  -1.2649  -1.2160  -1.1803  -1.1428
 -1.1147  -1.0630  -1.0481  -0.9920  -0.9906  -0.9898  -0.9581  -0.9464
 -0.8965  -0.8781  -0.8773  -0.8606  -0.7962  -0.7798  -0.7725  -0.7632
 -0.7348  -0.7255  -0.7024  -0.6936  -0.6819  -0.6736  -0.6660  -0.6618
 -0.6553  -0.6409  -0.6373  -0.6336  -0.6268  -0.6126  -0.5911  -0.5832
 -0.5791  -0.5706  -0.5689  -0.5635  -0.5610  -0.5559  -0.5537  -0.5466
 -0.5353  -0.5246  -0.5238  -0.5132  -0.4807  -0.4668  -0.4643  -0.4610
 -0.4574  -0.4492  -0.4286  -0.4188  -0.4092  -0.3774  -0.3558  -0.3353
 -0.2986

          Ground-State Mulliken Net Atomic Charges

     Atom                 Charge (a.u.)
  ----------------------------------------
      1 C                    -0.150515
      2 C                    -0.111959
      3 C                    -0.026698
      4 C                    -0.002278
      5 H                     0.187344
      6 C                    -0.004911
      7 C                     0.075115
      8 C                     0.050009
      9 C                    -0.083906
     10 C                    -0.162297
     11 C                     0.043480
     12 H                     0.171207
     13 C                     0.358479
     14 C                     0.362114
     15 N                    -0.101253
     16 C                     0.358066
     17 C                     0.383990
     18 N                    -0.091986
     19 O                    -0.464439
     20 O                    -0.477130
     21 O                    -0.484330
     22 O                    -0.482094
     23 C                    -0.201308
     24 H                     0.141024
     25 H                     0.112381
     26 H                     0.112275
     27 C                    -0.198556
     28 H                     0.134541
     29 H                     0.111974
     30 H                     0.112626
     31 H                     0.211813
     32 C                     0.004940
     33 S                     0.017194
     34 C                    -0.176334
     35 C                    -0.146105
     36 C                    -0.233426
     37 H                     0.238385
     38 H                     0.193554
     39 H                     0.219016
  ----------------------------------------
  Sum of atomic charges =     0.000000

                    Cartesian Multipole Moments
 -----------------------------------------------------------------
    Charge (ESU x 10^10)
                -0.0000
    Dipole Moment (Debye)
         X       1.2252      Y       2.7086      Z      -0.7271
       Tot       3.0604
    Quadrupole Moments (Debye-Ang)
        XX    -161.8195     XY       6.2457     YY    -172.0898
        XZ       0.4291     YZ       0.1996     ZZ    -178.3640

 Total job time:  260.60s(wall), 8051.60s(cpu)
        *  Thank you very much for using Q-Chem.  Have a nice day.  *
