 Q-Chem 5.4, Q-Chem, Inc., Pleasanton, CA (2021)
 Q-Chem 5.4.0 for Intel X86 EM64T Linux

User input:
--------------------------------------------------------------
$molecule
0 1
C	0.252767	-6.741404	-0.046070
C	1.538656	-6.155638	-0.272935
C	-0.814966	-5.791452	0.141739
C	1.813042	-4.803786	-0.321083
H	2.403318	-6.821518	-0.425592
C	-0.527566	-4.378638	0.091779
C	0.782769	-3.838032	-0.138909
C	-1.556632	-3.413062	0.273808
C	1.067868	-2.426473	-0.188483
C	-1.285436	-2.059348	0.226610
C	-0.000000	-1.478216	-0.000000
H	-2.151019	-1.394783	0.379657
C	-2.235891	-6.187987	0.390420
C	-2.965540	-3.798164	0.522125
N	-3.205600	-5.170003	0.562731
C	3.225760	-4.424987	-0.570244
C	2.489646	-2.036627	-0.438407
N	3.459662	-3.049156	-0.610438
O	-2.621768	-7.353131	0.455563
O	-3.874608	-2.986854	0.683373
O	4.124059	-5.248946	-0.729367
O	2.896516	-0.878829	-0.508697
C	-4.596910	-5.563799	0.806996
H	-4.641640	-6.664085	0.813717
H	-5.246567	-5.147101	0.013655
H	-4.936739	-5.148785	1.775159
C	4.829729	-2.587487	-0.851572
H	5.462387	-3.483329	-0.964204
H	5.173914	-1.964972	-0.003956
H	4.863360	-1.962932	-1.764390
H	0.069584	-7.822318	-0.014094
C	0.000000	0.000000	0.000000
S	0.607475	0.509994	1.580530
C	1.862020	1.562717	0.904911
C	0.764397	0.641624	-0.985400
C	1.775697	1.490335	-0.493528
H	0.583895	0.490135	-2.059934
H	2.450484	2.056643	-1.152593
H	2.536607	2.128872	1.556025
$end

$rem
JOBTYPE		SP
EXCHANGE	HF
CORRELATION	pRIMP2
BASIS		cc-pvtz
METHOD		rimp2
AUX_BASIS	rimp2-cc-pvtz
SOLVENT_METHOD	PCM
PURECART	11111
SYMMETRY	false
MEM_TOTAL	110000
SCF_CONVERGENCE = 6
THRESH=10
GUI = 2
$end

$solvent
dielectric 4.90
$end
--------------------------------------------------------------

             Standard Nuclear Orientation (Angstroms)
    I     Atom           X                Y                Z
 ----------------------------------------------------------------
    1      C       0.2527670000    -6.7414040000    -0.0460700000
    2      C       1.5386560000    -6.1556380000    -0.2729350000
    3      C      -0.8149660000    -5.7914520000     0.1417390000
    4      C       1.8130420000    -4.8037860000    -0.3210830000
    5      H       2.4033180000    -6.8215180000    -0.4255920000
    6      C      -0.5275660000    -4.3786380000     0.0917790000
    7      C       0.7827690000    -3.8380320000    -0.1389090000
    8      C      -1.5566320000    -3.4130620000     0.2738080000
    9      C       1.0678680000    -2.4264730000    -0.1884830000
   10      C      -1.2854360000    -2.0593480000     0.2266100000
   11      C       0.0000000000    -1.4782160000     0.0000000000
   12      H      -2.1510190000    -1.3947830000     0.3796570000
   13      C      -2.2358910000    -6.1879870000     0.3904200000
   14      C      -2.9655400000    -3.7981640000     0.5221250000
   15      N      -3.2056000000    -5.1700030000     0.5627310000
   16      C       3.2257600000    -4.4249870000    -0.5702440000
   17      C       2.4896460000    -2.0366270000    -0.4384070000
   18      N       3.4596620000    -3.0491560000    -0.6104380000
   19      O      -2.6217680000    -7.3531310000     0.4555630000
   20      O      -3.8746080000    -2.9868540000     0.6833730000
   21      O       4.1240590000    -5.2489460000    -0.7293670000
   22      O       2.8965160000    -0.8788290000    -0.5086970000
   23      C      -4.5969100000    -5.5637990000     0.8069960000
   24      H      -4.6416400000    -6.6640850000     0.8137170000
   25      H      -5.2465670000    -5.1471010000     0.0136550000
   26      H      -4.9367390000    -5.1487850000     1.7751590000
   27      C       4.8297290000    -2.5874870000    -0.8515720000
   28      H       5.4623870000    -3.4833290000    -0.9642040000
   29      H       5.1739140000    -1.9649720000    -0.0039560000
   30      H       4.8633600000    -1.9629320000    -1.7643900000
   31      H       0.0695840000    -7.8223180000    -0.0140940000
   32      C       0.0000000000     0.0000000000     0.0000000000
   33      S       0.6074750000     0.5099940000     1.5805300000
   34      C       1.8620200000     1.5627170000     0.9049110000
   35      C       0.7643970000     0.6416240000    -0.9854000000
   36      C       1.7756970000     1.4903350000    -0.4935280000
   37      H       0.5838950000     0.4901350000    -2.0599340000
   38      H       2.4504840000     2.0566430000    -1.1525930000
   39      H       2.5366070000     2.1288720000     1.5560250000
 ----------------------------------------------------------------

   11   -1570.6351145413      4.36e-07  Convergence criterion met
 Total energy in the final basis set =    -1570.6351145413
        RIMP2         total energy =     -1575.2737305474 a.u.

                    Orbital Energies (a.u.)
 --------------------------------------------------------------

 Alpha MOs
 -- Occupied --
-91.9874 -20.5575 -20.5545 -20.5535 -20.5505 -15.6298 -15.6290 -11.3989
-11.3928 -11.3910 -11.3885 -11.3117 -11.3011 -11.2986 -11.2976 -11.2952
-11.2948 -11.2919 -11.2836 -11.2822 -11.2787 -11.2696 -11.2676 -11.2645
-11.2637 -11.2630 -11.2456  -8.9872  -6.6680  -6.6673  -6.6669  -1.4235
 -1.4225  -1.4028  -1.4017  -1.2660  -1.2638  -1.2151  -1.1775  -1.1407
 -1.1143  -1.0595  -1.0468  -0.9917  -0.9871  -0.9846  -0.9579  -0.9475
 -0.8950  -0.8778  -0.8708  -0.8587  -0.7907  -0.7747  -0.7720  -0.7591
 -0.7351  -0.7171  -0.7036  -0.6935  -0.6797  -0.6697  -0.6650  -0.6610
 -0.6550  -0.6425  -0.6360  -0.6341  -0.6271  -0.6104  -0.5849  -0.5830
 -0.5754  -0.5743  -0.5659  -0.5630  -0.5565  -0.5536  -0.5517  -0.5479
 -0.5362  -0.5253  -0.5182  -0.5001  -0.4798  -0.4692  -0.4626  -0.4585
 -0.4539  -0.4432  -0.4264  -0.4171  -0.4070  -0.3560  -0.3399  -0.3312
 -0.3190

          Ground-State Mulliken Net Atomic Charges

     Atom                 Charge (a.u.)
  ----------------------------------------
      1 C                    -0.139282
      2 C                    -0.109105
      3 C                    -0.038740
      4 C                    -0.001333
      5 H                     0.187558
      6 C                    -0.010099
      7 C                     0.072906
      8 C                     0.014954
      9 C                    -0.038590
     10 C                    -0.145730
     11 C                     0.072858
     12 H                     0.181012
     13 C                     0.360402
     14 C                     0.364538
     15 N                    -0.101227
     16 C                     0.356610
     17 C                     0.374789
     18 N                    -0.091527
     19 O                    -0.465541
     20 O                    -0.476673
     21 O                    -0.483281
     22 O                    -0.461029
     23 C                    -0.201526
     24 H                     0.140730
     25 H                     0.112068
     26 H                     0.112219
     27 C                    -0.196617
     28 H                     0.134255
     29 H                     0.111953
     30 H                     0.110937
     31 H                     0.213123
     32 C                    -0.128446
     33 S                     0.022875
     34 C                    -0.166997
     35 C                    -0.127416
     36 C                    -0.142966
     37 H                     0.190257
     38 H                     0.181070
     39 H                     0.211010
  ----------------------------------------
  Sum of atomic charges =     0.000000

                    Cartesian Multipole Moments
 -----------------------------------------------------------------
    Charge (ESU x 10^10)
                 0.0000
    Dipole Moment (Debye)
         X       2.7625      Y       1.4568      Z      -1.1752
       Tot       3.3369
    Quadrupole Moments (Debye-Ang)
        XX    -176.6292     XY       5.8537     YY    -175.7679
        XZ       4.2596     YZ       0.5284     ZZ    -157.9173

 Total job time:  292.90s(wall), 8773.24s(cpu)
        *  Thank you very much for using Q-Chem.  Have a nice day.  *
