 Q-Chem 5.4, Q-Chem, Inc., Pleasanton, CA (2021)
 Q-Chem 5.4.0 for Intel X86 EM64T Linux

User input:
--------------------------------------------------------------
$molecule
0 1
C	0.241938	-6.741404	0.086486
C	1.468983	-6.155638	0.532960
C	-0.776651	-5.791452	-0.284733
C	1.730681	-4.803786	0.628455
H	2.294130	-6.821518	0.833086
C	-0.502775	-4.378638	-0.184300
C	0.747353	-3.838032	0.271086
C	-1.484986	-3.413062	-0.541191
C	1.019042	-2.426473	0.370703
C	-1.226525	-2.059348	-0.446468
C	0.000000	-1.478216	0.000000
H	-2.052666	-1.394783	-0.746717
C	-2.131549	-6.187987	-0.779832
C	-2.829295	-3.798164	-1.030596
N	-3.057496	-5.170003	-1.115461
C	3.078712	-4.424987	1.119034
C	2.375300	-2.036627	0.865151
N	3.301374	-3.049156	1.201176
O	-2.498300	-7.353131	-0.916355
O	-3.697195	-2.986854	-1.345486
O	3.936224	-5.248946	1.430379
O	2.762805	-0.878829	1.007714
C	-4.384539	-5.563799	-1.599576
H	-4.426636	-6.664085	-1.616121
H	-4.550487	-5.147101	-2.611458
H	-5.162921	-5.148785	-0.931037
C	4.608454	-2.587487	1.677382
H	5.212668	-3.483329	1.896168
H	4.482719	-1.964972	2.583531
H	5.093988	-1.962932	0.903674
H	0.067309	-7.822318	0.022586
C	0.000000	0.000000	0.000000
S	0.509686	0.607733	1.580530
C	1.562368	1.862312	0.904911
C	0.641367	0.764613	-0.985400
C	1.489926	1.776040	-0.493528
H	0.489914	0.584081	-2.059934
H	2.056124	2.450920	-1.152593
H	2.128395	2.537007	1.556025
$end

$rem
JOBTYPE		SP
EXCHANGE	HF
CORRELATION	pRIMP2
BASIS		cc-pvtz
METHOD		rimp2
AUX_BASIS	rimp2-cc-pvtz
SOLVENT_METHOD	PCM
PURECART	11111
SYMMETRY	false
MEM_TOTAL	110000
SCF_CONVERGENCE = 6
THRESH=10
GUI = 2
$end

$solvent
dielectric 4.90
$end
--------------------------------------------------------------

             Standard Nuclear Orientation (Angstroms)
    I     Atom           X                Y                Z
 ----------------------------------------------------------------
    1      C       0.2419380000    -6.7414040000     0.0864860000
    2      C       1.4689830000    -6.1556380000     0.5329600000
    3      C      -0.7766510000    -5.7914520000    -0.2847330000
    4      C       1.7306810000    -4.8037860000     0.6284550000
    5      H       2.2941300000    -6.8215180000     0.8330860000
    6      C      -0.5027750000    -4.3786380000    -0.1843000000
    7      C       0.7473530000    -3.8380320000     0.2710860000
    8      C      -1.4849860000    -3.4130620000    -0.5411910000
    9      C       1.0190420000    -2.4264730000     0.3707030000
   10      C      -1.2265250000    -2.0593480000    -0.4464680000
   11      C       0.0000000000    -1.4782160000     0.0000000000
   12      H      -2.0526660000    -1.3947830000    -0.7467170000
   13      C      -2.1315490000    -6.1879870000    -0.7798320000
   14      C      -2.8292950000    -3.7981640000    -1.0305960000
   15      N      -3.0574960000    -5.1700030000    -1.1154610000
   16      C       3.0787120000    -4.4249870000     1.1190340000
   17      C       2.3753000000    -2.0366270000     0.8651510000
   18      N       3.3013740000    -3.0491560000     1.2011760000
   19      O      -2.4983000000    -7.3531310000    -0.9163550000
   20      O      -3.6971950000    -2.9868540000    -1.3454860000
   21      O       3.9362240000    -5.2489460000     1.4303790000
   22      O       2.7628050000    -0.8788290000     1.0077140000
   23      C      -4.3845390000    -5.5637990000    -1.5995760000
   24      H      -4.4266360000    -6.6640850000    -1.6161210000
   25      H      -4.5504870000    -5.1471010000    -2.6114580000
   26      H      -5.1629210000    -5.1487850000    -0.9310370000
   27      C       4.6084540000    -2.5874870000     1.6773820000
   28      H       5.2126680000    -3.4833290000     1.8961680000
   29      H       4.4827190000    -1.9649720000     2.5835310000
   30      H       5.0939880000    -1.9629320000     0.9036740000
   31      H       0.0673090000    -7.8223180000     0.0225860000
   32      C       0.0000000000     0.0000000000     0.0000000000
   33      S       0.5096860000     0.6077330000     1.5805300000
   34      C       1.5623680000     1.8623120000     0.9049110000
   35      C       0.6413670000     0.7646130000    -0.9854000000
   36      C       1.4899260000     1.7760400000    -0.4935280000
   37      H       0.4899140000     0.5840810000    -2.0599340000
   38      H       2.0561240000     2.4509200000    -1.1525930000
   39      H       2.1283950000     2.5370070000     1.5560250000
 ----------------------------------------------------------------

   10   -1570.6518503686      9.44e-07  Convergence criterion met
 Total energy in the final basis set =    -1570.6518503686
        RIMP2         total energy =     -1575.2882073910 a.u.

                    Orbital Energies (a.u.)
 --------------------------------------------------------------

 Alpha MOs
 -- Occupied --
-91.9824 -20.5579 -20.5552 -20.5533 -20.5516 -15.6304 -15.6287 -11.3994
-11.3920 -11.3910 -11.3892 -11.3132 -11.3016 -11.3012 -11.2991 -11.2962
-11.2960 -11.2889 -11.2846 -11.2834 -11.2792 -11.2745 -11.2724 -11.2655
-11.2641 -11.2640 -11.2473  -8.9823  -6.6631  -6.6624  -6.6621  -1.4241
 -1.4221  -1.4033  -1.4013  -1.2664  -1.2637  -1.2158  -1.1752  -1.1418
 -1.1154  -1.0605  -1.0478  -0.9919  -0.9875  -0.9826  -0.9581  -0.9476
 -0.8950  -0.8783  -0.8730  -0.8598  -0.7913  -0.7755  -0.7724  -0.7593
 -0.7341  -0.7179  -0.7042  -0.6938  -0.6793  -0.6710  -0.6651  -0.6611
 -0.6557  -0.6422  -0.6361  -0.6345  -0.6280  -0.6111  -0.5848  -0.5829
 -0.5755  -0.5733  -0.5662  -0.5632  -0.5598  -0.5545  -0.5523  -0.5478
 -0.5377  -0.5251  -0.5194  -0.5020  -0.4800  -0.4692  -0.4628  -0.4578
 -0.4543  -0.4439  -0.4266  -0.4179  -0.4081  -0.3562  -0.3403  -0.3328
 -0.3182

          Ground-State Mulliken Net Atomic Charges

     Atom                 Charge (a.u.)
  ----------------------------------------
      1 C                    -0.136590
      2 C                    -0.108959
      3 C                    -0.040362
      4 C                    -0.000565
      5 H                     0.188085
      6 C                    -0.008794
      7 C                     0.067156
      8 C                     0.012514
      9 C                    -0.019790
     10 C                    -0.147184
     11 C                     0.070447
     12 H                     0.179724
     13 C                     0.360601
     14 C                     0.364849
     15 N                    -0.101534
     16 C                     0.355841
     17 C                     0.373308
     18 N                    -0.092941
     19 O                    -0.465371
     20 O                    -0.476552
     21 O                    -0.483138
     22 O                    -0.457124
     23 C                    -0.201268
     24 H                     0.140829
     25 H                     0.112015
     26 H                     0.112393
     27 C                    -0.196653
     28 H                     0.133741
     29 H                     0.111857
     30 H                     0.111830
     31 H                     0.213537
     32 C                    -0.084182
     33 S                     0.029055
     34 C                    -0.146444
     35 C                    -0.143105
     36 C                    -0.215925
     37 H                     0.189546
     38 H                     0.189584
     39 H                     0.209573
  ----------------------------------------
  Sum of atomic charges =     0.000000

                    Cartesian Multipole Moments
 -----------------------------------------------------------------
    Charge (ESU x 10^10)
                 0.0000
    Dipole Moment (Debye)
         X       2.1098      Y       1.3475      Z      -0.8291
       Tot       2.6371
    Quadrupole Moments (Debye-Ang)
        XX    -177.3844     XY       5.7992     YY    -172.6013
        XZ      -5.5237     YZ       0.3062     ZZ    -159.7206

 Total job time:  253.42s(wall), 7880.01s(cpu)
        *  Thank you very much for using Q-Chem.  Have a nice day.  *
