 Q-Chem 5.4, Q-Chem, Inc., Pleasanton, CA (2021)
 Q-Chem 5.4.0 for Intel X86 EM64T Linux

User input:
--------------------------------------------------------------
$molecule
0 1
C	0.164018	-6.741404	-0.197767
C	1.003240	-6.155638	-1.198109
C	-0.533192	-5.791452	0.632428
C	1.182482	-4.803786	-1.411364
H	1.567483	-6.821518	-1.870845
C	-0.345145	-4.378638	0.409419
C	0.510347	-3.838032	-0.609565
C	-1.016449	-3.413062	1.210332
C	0.696879	-2.426473	-0.830799
C	-0.839039	-2.059348	0.999856
C	-0.000000	-1.478216	-0.000000
H	-1.403737	-1.394783	1.673483
C	-1.461835	-6.187987	1.736282
C	-1.936119	-3.798164	2.306183
N	-2.093916	-5.170003	2.491597
C	2.104529	-4.424987	-2.510310
C	1.625377	-2.036627	-1.936153
N	2.257873	-3.049156	-2.691451
O	-1.715561	-7.353131	2.034222
O	-2.528858	-2.986854	3.014044
O	2.690385	-5.248946	-3.209622
O	1.891876	-0.878829	-2.251529
C	-3.002711	-5.563799	3.573032
H	-3.032655	-6.664085	3.606932
H	-4.010326	-5.147101	3.382888
H	-2.640711	-5.148785	4.533125
C	3.152408	-2.587487	-3.756832
H	3.564653	-3.483329	-4.249778
H	3.960905	-1.964972	-3.328759
H	2.591422	-1.962932	-4.477709
H	0.044245	-7.822318	-0.055524
C	0.000000	0.000000	0.000000
S	0.335026	0.718942	1.580530
C	1.027130	2.203226	0.904911
C	0.421617	0.904557	-0.985400
C	0.979485	2.101144	-0.493528
H	0.322049	0.690978	-2.059934
H	1.351718	2.899571	-1.152593
H	1.399246	3.001430	1.556025
$end

$rem
JOBTYPE		SP
EXCHANGE	HF
CORRELATION	pRIMP2
BASIS		cc-pvtz
METHOD		rimp2
AUX_BASIS	rimp2-cc-pvtz
SOLVENT_METHOD	PCM
PURECART	11111
SYMMETRY	false
MEM_TOTAL	110000
SCF_CONVERGENCE = 6
THRESH=10
GUI = 2
$end

$solvent
dielectric 4.90
$end
--------------------------------------------------------------

             Standard Nuclear Orientation (Angstroms)
    I     Atom           X                Y                Z
 ----------------------------------------------------------------
    1      C       0.1640180000    -6.7414040000    -0.1977670000
    2      C       1.0032400000    -6.1556380000    -1.1981090000
    3      C      -0.5331920000    -5.7914520000     0.6324280000
    4      C       1.1824820000    -4.8037860000    -1.4113640000
    5      H       1.5674830000    -6.8215180000    -1.8708450000
    6      C      -0.3451450000    -4.3786380000     0.4094190000
    7      C       0.5103470000    -3.8380320000    -0.6095650000
    8      C      -1.0164490000    -3.4130620000     1.2103320000
    9      C       0.6968790000    -2.4264730000    -0.8307990000
   10      C      -0.8390390000    -2.0593480000     0.9998560000
   11      C       0.0000000000    -1.4782160000     0.0000000000
   12      H      -1.4037370000    -1.3947830000     1.6734830000
   13      C      -1.4618350000    -6.1879870000     1.7362820000
   14      C      -1.9361190000    -3.7981640000     2.3061830000
   15      N      -2.0939160000    -5.1700030000     2.4915970000
   16      C       2.1045290000    -4.4249870000    -2.5103100000
   17      C       1.6253770000    -2.0366270000    -1.9361530000
   18      N       2.2578730000    -3.0491560000    -2.6914510000
   19      O      -1.7155610000    -7.3531310000     2.0342220000
   20      O      -2.5288580000    -2.9868540000     3.0140440000
   21      O       2.6903850000    -5.2489460000    -3.2096220000
   22      O       1.8918760000    -0.8788290000    -2.2515290000
   23      C      -3.0027110000    -5.5637990000     3.5730320000
   24      H      -3.0326550000    -6.6640850000     3.6069320000
   25      H      -4.0103260000    -5.1471010000     3.3828880000
   26      H      -2.6407110000    -5.1487850000     4.5331250000
   27      C       3.1524080000    -2.5874870000    -3.7568320000
   28      H       3.5646530000    -3.4833290000    -4.2497780000
   29      H       3.9609050000    -1.9649720000    -3.3287590000
   30      H       2.5914220000    -1.9629320000    -4.4777090000
   31      H       0.0442450000    -7.8223180000    -0.0555240000
   32      C       0.0000000000     0.0000000000     0.0000000000
   33      S       0.3350260000     0.7189420000     1.5805300000
   34      C       1.0271300000     2.2032260000     0.9049110000
   35      C       0.4216170000     0.9045570000    -0.9854000000
   36      C       0.9794850000     2.1011440000    -0.4935280000
   37      H       0.3220490000     0.6909780000    -2.0599340000
   38      H       1.3517180000     2.8995710000    -1.1525930000
   39      H       1.3992460000     3.0014300000     1.5560250000
 ----------------------------------------------------------------

   10   -1570.6773719955      8.60e-07  Convergence criterion met
 Total energy in the final basis set =    -1570.6773719955
        RIMP2         total energy =     -1575.3056114286 a.u.

                    Orbital Energies (a.u.)
 --------------------------------------------------------------

 Alpha MOs
 -- Occupied --
-91.9935 -20.5582 -20.5558 -20.5536 -20.5523 -15.6307 -15.6297 -11.3995
-11.3951 -11.3912 -11.3901 -11.3170 -11.3018 -11.2997 -11.2986 -11.2953
-11.2946 -11.2923 -11.2859 -11.2835 -11.2820 -11.2789 -11.2765 -11.2645
-11.2642 -11.2600 -11.2504  -8.9929  -6.6737  -6.6732  -6.6726  -1.4244
 -1.4233  -1.4037  -1.4024  -1.2669  -1.2645  -1.2162  -1.1768  -1.1435
 -1.1157  -1.0623  -1.0485  -0.9922  -0.9895  -0.9862  -0.9584  -0.9476
 -0.8959  -0.8786  -0.8761  -0.8607  -0.7949  -0.7768  -0.7722  -0.7617
 -0.7359  -0.7191  -0.7042  -0.6934  -0.6806  -0.6723  -0.6658  -0.6616
 -0.6556  -0.6412  -0.6362  -0.6331  -0.6278  -0.6120  -0.5875  -0.5837
 -0.5769  -0.5753  -0.5650  -0.5619  -0.5603  -0.5551  -0.5516  -0.5475
 -0.5351  -0.5244  -0.5218  -0.5176  -0.4822  -0.4700  -0.4644  -0.4627
 -0.4585  -0.4520  -0.4277  -0.4179  -0.4084  -0.3709  -0.3502  -0.3359
 -0.3034

          Ground-State Mulliken Net Atomic Charges

     Atom                 Charge (a.u.)
  ----------------------------------------
      1 C                    -0.143139
      2 C                    -0.108596
      3 C                    -0.036745
      4 C                    -0.006368
      5 H                     0.187954
      6 C                    -0.012037
      7 C                     0.081996
      8 C                     0.024193
      9 C                    -0.045857
     10 C                    -0.182970
     11 C                     0.114894
     12 H                     0.175249
     13 C                     0.360807
     14 C                     0.365622
     15 N                    -0.101267
     16 C                     0.359456
     17 C                     0.378950
     18 N                    -0.093065
     19 O                    -0.464623
     20 O                    -0.476156
     21 O                    -0.482835
     22 O                    -0.473290
     23 C                    -0.201119
     24 H                     0.140967
     25 H                     0.112317
     26 H                     0.112365
     27 C                    -0.197231
     28 H                     0.134108
     29 H                     0.112861
     30 H                     0.111755
     31 H                     0.212853
     32 C                    -0.079064
     33 S                     0.038487
     34 C                    -0.192474
     35 C                    -0.128401
     36 C                    -0.199728
     37 H                     0.193094
     38 H                     0.191665
     39 H                     0.215376
  ----------------------------------------
  Sum of atomic charges =     0.000000

                    Cartesian Multipole Moments
 -----------------------------------------------------------------
    Charge (ESU x 10^10)
                 0.0000
    Dipole Moment (Debye)
         X       1.0969      Y       2.0813      Z      -1.0210
       Tot       2.5647
    Quadrupole Moments (Debye-Ang)
        XX    -170.5787     XY       4.7663     YY    -169.8941
        XZ      10.7035     YZ       0.7034     ZZ    -169.6879

 Total job time:  247.21s(wall), 7807.65s(cpu)
        *  Thank you very much for using Q-Chem.  Have a nice day.  *
