 Q-Chem 5.4, Q-Chem, Inc., Pleasanton, CA (2021)
 Q-Chem 5.4.0 for Intel X86 EM64T Linux

User input:
--------------------------------------------------------------
$molecule
0 1
C	0.001478	-6.741404	0.256927
C	0.001603	-6.155638	1.562675
C	0.001931	-5.791452	-0.827197
C	0.001374	-4.803786	1.841253
H	0.001794	-6.821518	2.440709
C	0.001227	-4.378638	-0.535488
C	0.000872	-3.838032	0.794999
C	0.000658	-3.413062	-1.580529
C	0.000186	-2.426473	1.084374
C	0.000046	-2.059348	-1.305258
C	-0.000000	-1.478216	-0.000000
H	-0.000369	-1.394783	-2.184267
C	0.003770	-6.187987	-2.269719
C	0.000767	-3.798164	-3.011152
N	0.002465	-5.170003	-3.254617
C	0.001433	-4.424987	3.275775
C	-0.000576	-2.036627	2.527951
N	0.000400	-3.049156	3.513104
O	0.006623	-7.353131	-2.661046
O	-0.000172	-2.986854	-3.934410
O	0.002151	-5.248946	4.188059
O	-0.002006	-0.878829	2.940845
C	0.003509	-5.563799	-4.667206
H	0.004658	-6.664085	-4.712423
H	0.897610	-5.147101	-5.169231
H	-0.890935	-5.148785	-5.169992
C	-0.000039	-2.587487	4.904229
H	0.001022	-3.483329	5.546833
H	-0.894545	-1.964972	5.095998
H	0.893071	-1.962932	5.095858
H	0.001797	-7.822318	0.070974
C	0.000000	0.000000	0.000000
S	0.137535	0.781156	1.580530
C	0.421895	2.393994	0.904911
C	0.173134	0.982857	-0.985400
C	0.402294	2.283058	-0.493528
H	0.132237	0.750786	-2.059934
H	0.555196	3.150621	-1.152593
H	0.574741	3.261310	1.556025
$end

$rem
JOBTYPE		SP
EXCHANGE	HF
CORRELATION	pRIMP2
BASIS		cc-pvtz
METHOD		rimp2
AUX_BASIS	rimp2-cc-pvtz
SOLVENT_METHOD	PCM
PURECART	11111
SYMMETRY	false
MEM_TOTAL	110000
SCF_CONVERGENCE = 6
THRESH=10
GUI = 2
$end

$solvent
dielectric 4.90
$end
--------------------------------------------------------------

             Standard Nuclear Orientation (Angstroms)
    I     Atom           X                Y                Z
 ----------------------------------------------------------------
    1      C       0.0014780000    -6.7414040000     0.2569270000
    2      C       0.0016030000    -6.1556380000     1.5626750000
    3      C       0.0019310000    -5.7914520000    -0.8271970000
    4      C       0.0013740000    -4.8037860000     1.8412530000
    5      H       0.0017940000    -6.8215180000     2.4407090000
    6      C       0.0012270000    -4.3786380000    -0.5354880000
    7      C       0.0008720000    -3.8380320000     0.7949990000
    8      C       0.0006580000    -3.4130620000    -1.5805290000
    9      C       0.0001860000    -2.4264730000     1.0843740000
   10      C       0.0000460000    -2.0593480000    -1.3052580000
   11      C       0.0000000000    -1.4782160000     0.0000000000
   12      H      -0.0003690000    -1.3947830000    -2.1842670000
   13      C       0.0037700000    -6.1879870000    -2.2697190000
   14      C       0.0007670000    -3.7981640000    -3.0111520000
   15      N       0.0024650000    -5.1700030000    -3.2546170000
   16      C       0.0014330000    -4.4249870000     3.2757750000
   17      C      -0.0005760000    -2.0366270000     2.5279510000
   18      N       0.0004000000    -3.0491560000     3.5131040000
   19      O       0.0066230000    -7.3531310000    -2.6610460000
   20      O      -0.0001720000    -2.9868540000    -3.9344100000
   21      O       0.0021510000    -5.2489460000     4.1880590000
   22      O      -0.0020060000    -0.8788290000     2.9408450000
   23      C       0.0035090000    -5.5637990000    -4.6672060000
   24      H       0.0046580000    -6.6640850000    -4.7124230000
   25      H       0.8976100000    -5.1471010000    -5.1692310000
   26      H      -0.8909350000    -5.1487850000    -5.1699920000
   27      C      -0.0000390000    -2.5874870000     4.9042290000
   28      H       0.0010220000    -3.4833290000     5.5468330000
   29      H      -0.8945450000    -1.9649720000     5.0959980000
   30      H       0.8930710000    -1.9629320000     5.0958580000
   31      H       0.0017970000    -7.8223180000     0.0709740000
   32      C       0.0000000000     0.0000000000     0.0000000000
   33      S       0.1375350000     0.7811560000     1.5805300000
   34      C       0.4218950000     2.3939940000     0.9049110000
   35      C       0.1731340000     0.9828570000    -0.9854000000
   36      C       0.4022940000     2.2830580000    -0.4935280000
   37      H       0.1322370000     0.7507860000    -2.0599340000
   38      H       0.5551960000     3.1506210000    -1.1525930000
   39      H       0.5747410000     3.2613100000     1.5560250000
 ----------------------------------------------------------------

   10   -1570.6462368923      8.79e-07  Convergence criterion met
 Total energy in the final basis set =    -1570.6462368923
        RIMP2         total energy =     -1575.2849532309 a.u.

                    Orbital Energies (a.u.)
 --------------------------------------------------------------

 Alpha MOs
 -- Occupied --
-91.9753 -20.5606 -20.5591 -20.5572 -20.5544 -15.6328 -15.6318 -11.4013
-11.4004 -11.3923 -11.3915 -11.3221 -11.3027 -11.3017 -11.3001 -11.2957
-11.2940 -11.2899 -11.2881 -11.2837 -11.2794 -11.2791 -11.2674 -11.2659
-11.2650 -11.2607 -11.2424  -8.9750  -6.6554  -6.6539  -6.6530  -1.4355
 -1.4255  -1.4084  -1.4049  -1.2706  -1.2669  -1.2175  -1.1720  -1.1425
 -1.1172  -1.0620  -1.0502  -0.9936  -0.9900  -0.9800  -0.9598  -0.9469
 -0.8982  -0.8810  -0.8787  -0.8640  -0.7937  -0.7792  -0.7778  -0.7596
 -0.7325  -0.7291  -0.7026  -0.6934  -0.6896  -0.6747  -0.6688  -0.6638
 -0.6579  -0.6415  -0.6391  -0.6369  -0.6275  -0.6150  -0.5847  -0.5836
 -0.5813  -0.5764  -0.5715  -0.5653  -0.5617  -0.5568  -0.5565  -0.5496
 -0.5330  -0.5255  -0.5216  -0.5193  -0.4901  -0.4724  -0.4697  -0.4638
 -0.4572  -0.4330  -0.4210  -0.4104  -0.3842  -0.3756  -0.3428  -0.3377
 -0.2950

          Ground-State Mulliken Net Atomic Charges

     Atom                 Charge (a.u.)
  ----------------------------------------
      1 C                    -0.146637
      2 C                    -0.111797
      3 C                    -0.028398
      4 C                    -0.001533
      5 H                     0.188078
      6 C                     0.004675
      7 C                     0.081848
      8 C                     0.000601
      9 C                    -0.082299
     10 C                    -0.132052
     11 C                     0.065457
     12 H                     0.183743
     13 C                     0.359013
     14 C                     0.363712
     15 N                    -0.101857
     16 C                     0.359213
     17 C                     0.375531
     18 N                    -0.091428
     19 O                    -0.463662
     20 O                    -0.476728
     21 O                    -0.481971
     22 O                    -0.440410
     23 C                    -0.201137
     24 H                     0.141308
     25 H                     0.112461
     26 H                     0.112492
     27 C                    -0.198995
     28 H                     0.135491
     29 H                     0.113767
     30 H                     0.113697
     31 H                     0.212596
     32 C                    -0.003348
     33 S                     0.098227
     34 C                    -0.233250
     35 C                    -0.161339
     36 C                    -0.240825
     37 H                     0.187226
     38 H                     0.182844
     39 H                     0.205684
  ----------------------------------------
  Sum of atomic charges =     0.000000

                    Cartesian Multipole Moments
 -----------------------------------------------------------------
    Charge (ESU x 10^10)
                 0.0000
    Dipole Moment (Debye)
         X       0.2848      Y       0.9243      Z      -0.1395
       Tot       0.9772
    Quadrupole Moments (Debye-Ang)
        XX    -163.8340     XY       1.6770     YY    -170.3259
        XZ       0.1983     YZ       0.1257     ZZ    -175.5085

 Total job time:  267.57s(wall), 7730.92s(cpu)
        *  Thank you very much for using Q-Chem.  Have a nice day.  *
