 Q-Chem 5.4, Q-Chem, Inc., Pleasanton, CA (2021)
 Q-Chem 5.4.0 for Intel X86 EM64T Linux

User input:
--------------------------------------------------------------
$molecule
0 1
C	-0.164018	-6.741404	0.197767
C	-1.003240	-6.155638	1.198109
C	0.533192	-5.791452	-0.632428
C	-1.182482	-4.803786	1.411364
H	-1.567483	-6.821518	1.870845
C	0.345145	-4.378638	-0.409419
C	-0.510347	-3.838032	0.609565
C	1.016449	-3.413062	-1.210332
C	-0.696879	-2.426473	0.830799
C	0.839039	-2.059348	-0.999856
C	-0.000000	-1.478216	-0.000000
H	1.403737	-1.394783	-1.673483
C	1.461835	-6.187987	-1.736282
C	1.936119	-3.798164	-2.306183
N	2.093916	-5.170003	-2.491597
C	-2.104529	-4.424987	2.510310
C	-1.625377	-2.036627	1.936153
N	-2.257873	-3.049156	2.691451
O	1.715561	-7.353131	-2.034222
O	2.528858	-2.986854	-3.014044
O	-2.690385	-5.248946	3.209622
O	-1.891876	-0.878829	2.251529
C	3.002711	-5.563799	-3.573032
H	3.032655	-6.664085	-3.606932
H	4.010326	-5.147101	-3.382888
H	2.640711	-5.148785	-4.533125
C	-3.152408	-2.587487	3.756832
H	-3.564653	-3.483329	4.249778
H	-3.960905	-1.964972	3.328759
H	-2.591422	-1.962932	4.477709
H	-0.044245	-7.822318	0.055524
C	0.000000	0.000000	0.000000
S	0.271091	0.745405	1.580530
C	0.831198	2.284363	0.904911
C	0.341175	0.937861	-0.985400
C	0.792631	2.178516	-0.493528
H	0.260601	0.716417	-2.059934
H	1.093860	3.006347	-1.152593
H	1.132330	3.111961	1.556025
$end

$rem
JOBTYPE		SP
EXCHANGE	HF
CORRELATION	pRIMP2
BASIS		cc-pvtz
METHOD		rimp2
AUX_BASIS	rimp2-cc-pvtz
SOLVENT_METHOD	PCM
PURECART	11111
SYMMETRY	false
MEM_TOTAL	110000
SCF_CONVERGENCE = 6
THRESH=10
GUI = 2
$end

$solvent
dielectric 4.90
$end
--------------------------------------------------------------

             Standard Nuclear Orientation (Angstroms)
    I     Atom           X                Y                Z
 ----------------------------------------------------------------
    1      C      -0.1640180000    -6.7414040000     0.1977670000
    2      C      -1.0032400000    -6.1556380000     1.1981090000
    3      C       0.5331920000    -5.7914520000    -0.6324280000
    4      C      -1.1824820000    -4.8037860000     1.4113640000
    5      H      -1.5674830000    -6.8215180000     1.8708450000
    6      C       0.3451450000    -4.3786380000    -0.4094190000
    7      C      -0.5103470000    -3.8380320000     0.6095650000
    8      C       1.0164490000    -3.4130620000    -1.2103320000
    9      C      -0.6968790000    -2.4264730000     0.8307990000
   10      C       0.8390390000    -2.0593480000    -0.9998560000
   11      C       0.0000000000    -1.4782160000     0.0000000000
   12      H       1.4037370000    -1.3947830000    -1.6734830000
   13      C       1.4618350000    -6.1879870000    -1.7362820000
   14      C       1.9361190000    -3.7981640000    -2.3061830000
   15      N       2.0939160000    -5.1700030000    -2.4915970000
   16      C      -2.1045290000    -4.4249870000     2.5103100000
   17      C      -1.6253770000    -2.0366270000     1.9361530000
   18      N      -2.2578730000    -3.0491560000     2.6914510000
   19      O       1.7155610000    -7.3531310000    -2.0342220000
   20      O       2.5288580000    -2.9868540000    -3.0140440000
   21      O      -2.6903850000    -5.2489460000     3.2096220000
   22      O      -1.8918760000    -0.8788290000     2.2515290000
   23      C       3.0027110000    -5.5637990000    -3.5730320000
   24      H       3.0326550000    -6.6640850000    -3.6069320000
   25      H       4.0103260000    -5.1471010000    -3.3828880000
   26      H       2.6407110000    -5.1487850000    -4.5331250000
   27      C      -3.1524080000    -2.5874870000     3.7568320000
   28      H      -3.5646530000    -3.4833290000     4.2497780000
   29      H      -3.9609050000    -1.9649720000     3.3287590000
   30      H      -2.5914220000    -1.9629320000     4.4777090000
   31      H      -0.0442450000    -7.8223180000     0.0555240000
   32      C       0.0000000000     0.0000000000     0.0000000000
   33      S       0.2710910000     0.7454050000     1.5805300000
   34      C       0.8311980000     2.2843630000     0.9049110000
   35      C       0.3411750000     0.9378610000    -0.9854000000
   36      C       0.7926310000     2.1785160000    -0.4935280000
   37      H       0.2606010000     0.7164170000    -2.0599340000
   38      H       1.0938600000     3.0063470000    -1.1525930000
   39      H       1.1323300000     3.1119610000     1.5560250000
 ----------------------------------------------------------------

   10   -1570.6829119974      7.58e-07  Convergence criterion met
 Total energy in the final basis set =    -1570.6829119974
        RIMP2         total energy =     -1575.3118327826 a.u.

                    Orbital Energies (a.u.)
 --------------------------------------------------------------

 Alpha MOs
 -- Occupied --
-91.9878 -20.5587 -20.5567 -20.5550 -20.5541 -15.6314 -15.6302 -11.4001
-11.3960 -11.3917 -11.3909 -11.3181 -11.3024 -11.3016 -11.3004 -11.2967
-11.2960 -11.2904 -11.2866 -11.2853 -11.2846 -11.2798 -11.2777 -11.2648
-11.2642 -11.2616 -11.2492  -8.9872  -6.6678  -6.6673  -6.6667  -1.4251
 -1.4242  -1.4045  -1.4032  -1.2675  -1.2650  -1.2171  -1.1760  -1.1436
 -1.1169  -1.0627  -1.0495  -0.9927  -0.9895  -0.9847  -0.9588  -0.9476
 -0.8967  -0.8792  -0.8774  -0.8610  -0.7945  -0.7769  -0.7739  -0.7629
 -0.7330  -0.7180  -0.7052  -0.6942  -0.6831  -0.6744  -0.6663  -0.6621
 -0.6566  -0.6409  -0.6371  -0.6333  -0.6284  -0.6134  -0.5841  -0.5839
 -0.5795  -0.5720  -0.5668  -0.5668  -0.5641  -0.5554  -0.5539  -0.5484
 -0.5320  -0.5228  -0.5226  -0.5185  -0.4845  -0.4727  -0.4643  -0.4603
 -0.4581  -0.4484  -0.4279  -0.4179  -0.4089  -0.3692  -0.3493  -0.3365
 -0.3048

          Ground-State Mulliken Net Atomic Charges

     Atom                 Charge (a.u.)
  ----------------------------------------
      1 C                    -0.139648
      2 C                    -0.108622
      3 C                    -0.036210
      4 C                    -0.004920
      5 H                     0.188643
      6 C                     0.001939
      7 C                     0.081559
      8 C                     0.003496
      9 C                    -0.060558
     10 C                    -0.135458
     11 C                     0.085470
     12 H                     0.185174
     13 C                     0.359525
     14 C                     0.364405
     15 N                    -0.101562
     16 C                     0.358869
     17 C                     0.357406
     18 N                    -0.095797
     19 O                    -0.464389
     20 O                    -0.476822
     21 O                    -0.481844
     22 O                    -0.466750
     23 C                    -0.201195
     24 H                     0.141205
     25 H                     0.112434
     26 H                     0.112215
     27 C                    -0.196644
     28 H                     0.133751
     29 H                     0.113182
     30 H                     0.112921
     31 H                     0.213394
     32 C                    -0.013555
     33 S                     0.074759
     34 C                    -0.207443
     35 C                    -0.206844
     36 C                    -0.198397
     37 H                     0.193213
     38 H                     0.191209
     39 H                     0.211889
  ----------------------------------------
  Sum of atomic charges =     0.000000

                    Cartesian Multipole Moments
 -----------------------------------------------------------------
    Charge (ESU x 10^10)
                 0.0000
    Dipole Moment (Debye)
         X       0.7258      Y       1.4501      Z      -0.7823
       Tot       1.8004
    Quadrupole Moments (Debye-Ang)
        XX    -171.3449     XY       3.8493     YY    -168.1369
        XZ      10.2826     YZ       0.6320     ZZ    -169.1250

 Total job time:  256.24s(wall), 8109.40s(cpu)
        *  Thank you very much for using Q-Chem.  Have a nice day.  *
