 Q-Chem 5.4, Q-Chem, Inc., Pleasanton, CA (2021)
 Q-Chem 5.4.0 for Intel X86 EM64T Linux

User input:
--------------------------------------------------------------
$molecule
0 1
C	0.221766	-6.741404	-0.129743
C	1.352515	-6.155638	-0.782726
C	-0.717339	-5.791452	0.411926
C	1.593885	-4.803786	-0.921816
H	2.112819	-6.821518	-1.221908
C	-0.464360	-4.378638	0.266682
C	0.688053	-3.838032	-0.398255
C	-1.369108	-3.413062	0.789694
C	0.939002	-2.426473	-0.542349
C	-1.130409	-2.059348	0.652589
C	-0.000000	-1.478216	-0.000000
H	-1.891446	-1.394783	1.092453
C	-1.967519	-6.187987	1.131595
C	-2.608118	-3.798164	1.504912
N	-2.819813	-5.170003	1.625174
C	2.836188	-4.424987	-1.639129
C	2.189558	-2.036627	-1.263477
N	3.042237	-3.049156	-1.756898
O	-2.307845	-7.353131	1.324787
O	-3.407213	-2.986854	1.967354
O	3.625890	-5.248946	-2.095892
O	2.547850	-0.878829	-1.468685
C	-4.043674	-5.563799	2.330564
H	-4.083407	-6.664085	2.352178
H	-4.925490	-5.147101	1.807263
H	-4.031877	-5.148785	3.356568
C	4.247206	-2.587487	-2.452080
H	4.803187	-3.483329	-2.774302
H	4.860536	-1.964972	-1.773301
H	3.966607	-1.962932	-3.321351
H	0.060567	-7.822318	-0.037043
C	0.000000	0.000000	0.000000
S	0.271091	0.745405	1.580530
C	0.831198	2.284363	0.904911
C	0.341175	0.937861	-0.985400
C	0.792631	2.178516	-0.493528
H	0.260601	0.716417	-2.059934
H	1.093860	3.006347	-1.152593
H	1.132330	3.111961	1.556025
$end

$rem
JOBTYPE		SP
EXCHANGE	HF
CORRELATION	pRIMP2
BASIS		cc-pvtz
METHOD		rimp2
AUX_BASIS	rimp2-cc-pvtz
SOLVENT_METHOD	PCM
PURECART	11111
SYMMETRY	false
MEM_TOTAL	110000
SCF_CONVERGENCE = 6
THRESH=10
GUI = 2
$end

$solvent
dielectric 4.90
$end
--------------------------------------------------------------

             Standard Nuclear Orientation (Angstroms)
    I     Atom           X                Y                Z
 ----------------------------------------------------------------
    1      C       0.2217660000    -6.7414040000    -0.1297430000
    2      C       1.3525150000    -6.1556380000    -0.7827260000
    3      C      -0.7173390000    -5.7914520000     0.4119260000
    4      C       1.5938850000    -4.8037860000    -0.9218160000
    5      H       2.1128190000    -6.8215180000    -1.2219080000
    6      C      -0.4643600000    -4.3786380000     0.2666820000
    7      C       0.6880530000    -3.8380320000    -0.3982550000
    8      C      -1.3691080000    -3.4130620000     0.7896940000
    9      C       0.9390020000    -2.4264730000    -0.5423490000
   10      C      -1.1304090000    -2.0593480000     0.6525890000
   11      C       0.0000000000    -1.4782160000     0.0000000000
   12      H      -1.8914460000    -1.3947830000     1.0924530000
   13      C      -1.9675190000    -6.1879870000     1.1315950000
   14      C      -2.6081180000    -3.7981640000     1.5049120000
   15      N      -2.8198130000    -5.1700030000     1.6251740000
   16      C       2.8361880000    -4.4249870000    -1.6391290000
   17      C       2.1895580000    -2.0366270000    -1.2634770000
   18      N       3.0422370000    -3.0491560000    -1.7568980000
   19      O      -2.3078450000    -7.3531310000     1.3247870000
   20      O      -3.4072130000    -2.9868540000     1.9673540000
   21      O       3.6258900000    -5.2489460000    -2.0958920000
   22      O       2.5478500000    -0.8788290000    -1.4686850000
   23      C      -4.0436740000    -5.5637990000     2.3305640000
   24      H      -4.0834070000    -6.6640850000     2.3521780000
   25      H      -4.9254900000    -5.1471010000     1.8072630000
   26      H      -4.0318770000    -5.1487850000     3.3565680000
   27      C       4.2472060000    -2.5874870000    -2.4520800000
   28      H       4.8031870000    -3.4833290000    -2.7743020000
   29      H       4.8605360000    -1.9649720000    -1.7733010000
   30      H       3.9666070000    -1.9629320000    -3.3213510000
   31      H       0.0605670000    -7.8223180000    -0.0370430000
   32      C       0.0000000000     0.0000000000     0.0000000000
   33      S       0.2710910000     0.7454050000     1.5805300000
   34      C       0.8311980000     2.2843630000     0.9049110000
   35      C       0.3411750000     0.9378610000    -0.9854000000
   36      C       0.7926310000     2.1785160000    -0.4935280000
   37      H       0.2606010000     0.7164170000    -2.0599340000
   38      H       1.0938600000     3.0063470000    -1.1525930000
   39      H       1.1323300000     3.1119610000     1.5560250000
 ----------------------------------------------------------------

   10   -1570.6830304982      7.81e-07  Convergence criterion met
 Total energy in the final basis set =    -1570.6830304982
        RIMP2         total energy =     -1575.3093005947 a.u.

                    Orbital Energies (a.u.)
 --------------------------------------------------------------

 Alpha MOs
 -- Occupied --
-91.9932 -20.5584 -20.5559 -20.5547 -20.5540 -15.6310 -15.6303 -11.4000
-11.3956 -11.3923 -11.3902 -11.3152 -11.3039 -11.3025 -11.3004 -11.2978
-11.2974 -11.2867 -11.2857 -11.2857 -11.2847 -11.2801 -11.2767 -11.2646
-11.2644 -11.2577 -11.2499  -8.9925  -6.6733  -6.6728  -6.6722  -1.4247
 -1.4233  -1.4040  -1.4024  -1.2672  -1.2648  -1.2171  -1.1749  -1.1439
 -1.1170  -1.0626  -1.0494  -0.9927  -0.9891  -0.9838  -0.9589  -0.9483
 -0.8966  -0.8793  -0.8765  -0.8610  -0.7949  -0.7769  -0.7726  -0.7600
 -0.7370  -0.7176  -0.7049  -0.6946  -0.6802  -0.6720  -0.6661  -0.6619
 -0.6564  -0.6420  -0.6369  -0.6334  -0.6291  -0.6122  -0.5859  -0.5841
 -0.5773  -0.5741  -0.5654  -0.5633  -0.5602  -0.5550  -0.5517  -0.5484
 -0.5357  -0.5260  -0.5202  -0.5165  -0.4829  -0.4707  -0.4652  -0.4611
 -0.4594  -0.4529  -0.4278  -0.4179  -0.4086  -0.3621  -0.3510  -0.3351
 -0.3123

          Ground-State Mulliken Net Atomic Charges

     Atom                 Charge (a.u.)
  ----------------------------------------
      1 C                    -0.134896
      2 C                    -0.107524
      3 C                    -0.041763
      4 C                    -0.002990
      5 H                     0.188510
      6 C                    -0.013735
      7 C                     0.079346
      8 C                     0.024019
      9 C                    -0.010497
     10 C                    -0.181598
     11 C                     0.111706
     12 H                     0.182545
     13 C                     0.361252
     14 C                     0.367650
     15 N                    -0.101366
     16 C                     0.359355
     17 C                     0.365677
     18 N                    -0.094398
     19 O                    -0.464915
     20 O                    -0.476078
     21 O                    -0.480931
     22 O                    -0.460745
     23 C                    -0.201020
     24 H                     0.140972
     25 H                     0.112341
     26 H                     0.112500
     27 C                    -0.196487
     28 H                     0.133864
     29 H                     0.113327
     30 H                     0.111944
     31 H                     0.213888
     32 C                    -0.092091
     33 S                     0.035660
     34 C                    -0.200722
     35 C                    -0.141680
     36 C                    -0.199054
     37 H                     0.184662
     38 H                     0.189938
     39 H                     0.213333
  ----------------------------------------
  Sum of atomic charges =     0.000000

                    Cartesian Multipole Moments
 -----------------------------------------------------------------
    Charge (ESU x 10^10)
                 0.0000
    Dipole Moment (Debye)
         X       0.8683      Y       1.3514      Z      -1.0497
       Tot       1.9189
    Quadrupole Moments (Debye-Ang)
        XX    -178.2866     XY       3.2630     YY    -166.7156
        XZ       9.1955     YZ       1.0231     ZZ    -162.5860

 Total job time:  274.73s(wall), 8276.11s(cpu)
        *  Thank you very much for using Q-Chem.  Have a nice day.  *
