 Q-Chem 5.4, Q-Chem, Inc., Pleasanton, CA (2021)
 Q-Chem 5.4.0 for Intel X86 EM64T Linux

User input:
--------------------------------------------------------------
$molecule
0 1
C	0.240927	-6.741404	-0.089263
C	1.467886	-6.155638	-0.535973
C	-0.777972	-5.791452	0.281103
C	1.729742	-4.803786	-0.631036
H	2.292903	-6.821518	-0.836458
C	-0.503614	-4.378638	0.181995
C	0.746756	-3.838032	-0.272725
C	-1.485437	-3.413062	0.539954
C	1.018915	-2.426473	-0.371053
C	-1.226557	-2.059348	0.446381
C	-0.000000	-1.478216	-0.000000
H	-2.052413	-1.394783	0.747410
C	-2.134128	-6.187987	0.772747
C	-2.829820	-3.798164	1.029154
N	-3.059182	-5.170003	1.110828
C	3.077731	-4.424987	-1.121728
C	2.375694	-2.036627	-0.864069
N	3.301101	-3.049156	-1.201928
O	-2.502830	-7.353131	0.903908
O	-3.697078	-2.986854	1.345809
O	3.934752	-5.248946	-1.434422
O	2.764177	-0.878829	-1.003943
C	-4.386939	-5.563799	1.592981
H	-4.429822	-6.664085	1.607367
H	-5.164489	-5.147101	0.924504
H	-4.553486	-5.148785	2.605446
C	4.608481	-2.587487	-1.677308
H	5.211969	-3.483329	-1.898089
H	5.094624	-1.964972	-0.902337
H	4.483092	-1.962932	-2.582098
H	0.066080	-7.822318	-0.025963
C	0.000000	0.000000	0.000000
S	-0.000201	0.793171	1.580530
C	-0.000228	2.430885	0.904911
C	-0.000168	0.997990	-0.985400
C	-0.000267	2.318231	-0.493528
H	-0.000145	0.762343	-2.059934
H	-0.000339	3.199164	-1.152593
H	-0.000311	3.311566	1.556025
$end

$rem
JOBTYPE		SP
EXCHANGE	HF
CORRELATION	pRIMP2
BASIS		cc-pvtz
METHOD		rimp2
AUX_BASIS	rimp2-cc-pvtz
SOLVENT_METHOD	PCM
PURECART	11111
SYMMETRY	false
MEM_TOTAL	110000
SCF_CONVERGENCE = 6
THRESH=10
GUI = 2
$end

$solvent
dielectric 4.90
$end
--------------------------------------------------------------

             Standard Nuclear Orientation (Angstroms)
    I     Atom           X                Y                Z
 ----------------------------------------------------------------
    1      C       0.2409270000    -6.7414040000    -0.0892630000
    2      C       1.4678860000    -6.1556380000    -0.5359730000
    3      C      -0.7779720000    -5.7914520000     0.2811030000
    4      C       1.7297420000    -4.8037860000    -0.6310360000
    5      H       2.2929030000    -6.8215180000    -0.8364580000
    6      C      -0.5036140000    -4.3786380000     0.1819950000
    7      C       0.7467560000    -3.8380320000    -0.2727250000
    8      C      -1.4854370000    -3.4130620000     0.5399540000
    9      C       1.0189150000    -2.4264730000    -0.3710530000
   10      C      -1.2265570000    -2.0593480000     0.4463810000
   11      C       0.0000000000    -1.4782160000     0.0000000000
   12      H      -2.0524130000    -1.3947830000     0.7474100000
   13      C      -2.1341280000    -6.1879870000     0.7727470000
   14      C      -2.8298200000    -3.7981640000     1.0291540000
   15      N      -3.0591820000    -5.1700030000     1.1108280000
   16      C       3.0777310000    -4.4249870000    -1.1217280000
   17      C       2.3756940000    -2.0366270000    -0.8640690000
   18      N       3.3011010000    -3.0491560000    -1.2019280000
   19      O      -2.5028300000    -7.3531310000     0.9039080000
   20      O      -3.6970780000    -2.9868540000     1.3458090000
   21      O       3.9347520000    -5.2489460000    -1.4344220000
   22      O       2.7641770000    -0.8788290000    -1.0039430000
   23      C      -4.3869390000    -5.5637990000     1.5929810000
   24      H      -4.4298220000    -6.6640850000     1.6073670000
   25      H      -5.1644890000    -5.1471010000     0.9245040000
   26      H      -4.5534860000    -5.1487850000     2.6054460000
   27      C       4.6084810000    -2.5874870000    -1.6773080000
   28      H       5.2119690000    -3.4833290000    -1.8980890000
   29      H       5.0946240000    -1.9649720000    -0.9023370000
   30      H       4.4830920000    -1.9629320000    -2.5820980000
   31      H       0.0660800000    -7.8223180000    -0.0259630000
   32      C       0.0000000000     0.0000000000     0.0000000000
   33      S      -0.0002010000     0.7931710000     1.5805300000
   34      C      -0.0002280000     2.4308850000     0.9049110000
   35      C      -0.0001680000     0.9979900000    -0.9854000000
   36      C      -0.0002670000     2.3182310000    -0.4935280000
   37      H      -0.0001450000     0.7623430000    -2.0599340000
   38      H      -0.0003390000     3.1991640000    -1.1525930000
   39      H      -0.0003110000     3.3115660000     1.5560250000
 ----------------------------------------------------------------

   10   -1570.6910586141      6.99e-07  Convergence criterion met
 Total energy in the final basis set =    -1570.6910586141
        RIMP2         total energy =     -1575.3145887210 a.u.

                    Orbital Energies (a.u.)
 --------------------------------------------------------------

 Alpha MOs
 -- Occupied --
-91.9932 -20.5588 -20.5568 -20.5564 -20.5557 -15.6315 -15.6313 -11.4005
-11.3973 -11.3933 -11.3908 -11.3162 -11.3077 -11.3033 -11.3015 -11.2998
-11.2992 -11.2930 -11.2873 -11.2866 -11.2813 -11.2811 -11.2791 -11.2649
-11.2647 -11.2546 -11.2502  -8.9923  -6.6731  -6.6727  -6.6721  -1.4251
 -1.4245  -1.4044  -1.4035  -1.2679  -1.2656  -1.2184  -1.1748  -1.1447
 -1.1184  -1.0638  -1.0508  -0.9935  -0.9897  -0.9829  -0.9596  -0.9488
 -0.8978  -0.8801  -0.8784  -0.8617  -0.7962  -0.7780  -0.7733  -0.7593
 -0.7381  -0.7186  -0.7054  -0.6955  -0.6810  -0.6731  -0.6668  -0.6626
 -0.6574  -0.6428  -0.6380  -0.6342  -0.6306  -0.6129  -0.5859  -0.5847
 -0.5784  -0.5731  -0.5663  -0.5644  -0.5611  -0.5555  -0.5527  -0.5488
 -0.5359  -0.5269  -0.5200  -0.5179  -0.4838  -0.4709  -0.4669  -0.4619
 -0.4606  -0.4539  -0.4286  -0.4184  -0.4092  -0.3577  -0.3531  -0.3353
 -0.3183

          Ground-State Mulliken Net Atomic Charges

     Atom                 Charge (a.u.)
  ----------------------------------------
      1 C                    -0.130450
      2 C                    -0.107377
      3 C                    -0.043199
      4 C                    -0.001442
      5 H                     0.189055
      6 C                    -0.004194
      7 C                     0.073441
      8 C                     0.003965
      9 C                    -0.011563
     10 C                    -0.132441
     11 C                     0.068620
     12 H                     0.185738
     13 C                     0.361049
     14 C                     0.368972
     15 N                    -0.102023
     16 C                     0.360203
     17 C                     0.350809
     18 N                    -0.096407
     19 O                    -0.464735
     20 O                    -0.476155
     21 O                    -0.479680
     22 O                    -0.456322
     23 C                    -0.200924
     24 H                     0.141022
     25 H                     0.112510
     26 H                     0.112602
     27 C                    -0.195847
     28 H                     0.133771
     29 H                     0.113747
     30 H                     0.112746
     31 H                     0.214686
     32 C                    -0.046836
     33 S                     0.032012
     34 C                    -0.211629
     35 C                    -0.160138
     36 C                    -0.203870
     37 H                     0.187546
     38 H                     0.191186
     39 H                     0.211555
  ----------------------------------------
  Sum of atomic charges =     0.000000

                    Cartesian Multipole Moments
 -----------------------------------------------------------------
    Charge (ESU x 10^10)
                 0.0000
    Dipole Moment (Debye)
         X       0.0582      Y       0.7878      Z      -0.9828
       Tot       1.2609
    Quadrupole Moments (Debye-Ang)
        XX    -181.9962     XY      -1.0268     YY    -163.6529
        XZ       6.5139     YZ       1.0288     ZZ    -159.8912

 Total job time:  271.72s(wall), 8009.66s(cpu)
        *  Thank you very much for using Q-Chem.  Have a nice day.  *
