 Q-Chem 5.4, Q-Chem, Inc., Pleasanton, CA (2021)
 Q-Chem 5.4.0 for Intel X86 EM64T Linux

User input:
--------------------------------------------------------------
$molecule
0 1
C	0.256927	-6.741404	-0.001478
C	1.562675	-6.155638	-0.001603
C	-0.827197	-5.791452	-0.001931
C	1.841253	-4.803786	-0.001374
H	2.440709	-6.821518	-0.001794
C	-0.535488	-4.378638	-0.001227
C	0.794999	-3.838032	-0.000872
C	-1.580529	-3.413062	-0.000658
C	1.084374	-2.426473	-0.000186
C	-1.305258	-2.059348	-0.000046
C	-0.000000	-1.478216	-0.000000
H	-2.184267	-1.394783	0.000369
C	-2.269719	-6.187987	-0.003770
C	-3.011152	-3.798164	-0.000767
N	-3.254617	-5.170003	-0.002465
C	3.275775	-4.424987	-0.001433
C	2.527951	-2.036627	0.000576
N	3.513104	-3.049156	-0.000400
O	-2.661046	-7.353131	-0.006623
O	-3.934410	-2.986854	0.000172
O	4.188059	-5.248946	-0.002151
O	2.940845	-0.878829	0.002006
C	-4.667206	-5.563799	-0.003509
H	-4.712423	-6.664085	-0.004658
H	-5.169231	-5.147101	-0.897610
H	-5.169992	-5.148785	0.890935
C	4.904229	-2.587487	0.000039
H	5.546833	-3.483329	-0.001022
H	5.095998	-1.964972	0.894545
H	5.095858	-1.962932	-0.893071
H	0.070974	-7.822318	-0.001797
C	0.000000	0.000000	0.000000
S	0.137535	0.781156	1.580530
C	0.421895	2.393994	0.904911
C	0.173134	0.982857	-0.985400
C	0.402294	2.283058	-0.493528
H	0.132237	0.750786	-2.059934
H	0.555196	3.150621	-1.152593
H	0.574741	3.261310	1.556025
$end

$rem
JOBTYPE		SP
EXCHANGE	HF
CORRELATION	pRIMP2
BASIS		cc-pvtz
METHOD		rimp2
AUX_BASIS	rimp2-cc-pvtz
SOLVENT_METHOD	PCM
PURECART	11111
SYMMETRY	false
MEM_TOTAL	110000
SCF_CONVERGENCE = 6
THRESH=10
GUI = 2
$end

$solvent
dielectric 4.90
$end
--------------------------------------------------------------

             Standard Nuclear Orientation (Angstroms)
    I     Atom           X                Y                Z
 ----------------------------------------------------------------
    1      C       0.2569270000    -6.7414040000    -0.0014780000
    2      C       1.5626750000    -6.1556380000    -0.0016030000
    3      C      -0.8271970000    -5.7914520000    -0.0019310000
    4      C       1.8412530000    -4.8037860000    -0.0013740000
    5      H       2.4407090000    -6.8215180000    -0.0017940000
    6      C      -0.5354880000    -4.3786380000    -0.0012270000
    7      C       0.7949990000    -3.8380320000    -0.0008720000
    8      C      -1.5805290000    -3.4130620000    -0.0006580000
    9      C       1.0843740000    -2.4264730000    -0.0001860000
   10      C      -1.3052580000    -2.0593480000    -0.0000460000
   11      C       0.0000000000    -1.4782160000     0.0000000000
   12      H      -2.1842670000    -1.3947830000     0.0003690000
   13      C      -2.2697190000    -6.1879870000    -0.0037700000
   14      C      -3.0111520000    -3.7981640000    -0.0007670000
   15      N      -3.2546170000    -5.1700030000    -0.0024650000
   16      C       3.2757750000    -4.4249870000    -0.0014330000
   17      C       2.5279510000    -2.0366270000     0.0005760000
   18      N       3.5131040000    -3.0491560000    -0.0004000000
   19      O      -2.6610460000    -7.3531310000    -0.0066230000
   20      O      -3.9344100000    -2.9868540000     0.0001720000
   21      O       4.1880590000    -5.2489460000    -0.0021510000
   22      O       2.9408450000    -0.8788290000     0.0020060000
   23      C      -4.6672060000    -5.5637990000    -0.0035090000
   24      H      -4.7124230000    -6.6640850000    -0.0046580000
   25      H      -5.1692310000    -5.1471010000    -0.8976100000
   26      H      -5.1699920000    -5.1487850000     0.8909350000
   27      C       4.9042290000    -2.5874870000     0.0000390000
   28      H       5.5468330000    -3.4833290000    -0.0010220000
   29      H       5.0959980000    -1.9649720000     0.8945450000
   30      H       5.0958580000    -1.9629320000    -0.8930710000
   31      H       0.0709740000    -7.8223180000    -0.0017970000
   32      C       0.0000000000     0.0000000000     0.0000000000
   33      S       0.1375350000     0.7811560000     1.5805300000
   34      C       0.4218950000     2.3939940000     0.9049110000
   35      C       0.1731340000     0.9828570000    -0.9854000000
   36      C       0.4022940000     2.2830580000    -0.4935280000
   37      H       0.1322370000     0.7507860000    -2.0599340000
   38      H       0.5551960000     3.1506210000    -1.1525930000
   39      H       0.5747410000     3.2613100000     1.5560250000
 ----------------------------------------------------------------

   10   -1570.6881061431      7.10e-07  Convergence criterion met
 Total energy in the final basis set =    -1570.6881061431
        RIMP2         total energy =     -1575.3121539532 a.u.

                    Orbital Energies (a.u.)
 --------------------------------------------------------------

 Alpha MOs
 -- Occupied --
-91.9913 -20.5588 -20.5572 -20.5563 -20.5557 -15.6314 -15.6313 -11.4005
-11.3972 -11.3933 -11.3907 -11.3153 -11.3086 -11.3034 -11.3016 -11.3000
-11.2996 -11.2914 -11.2876 -11.2861 -11.2812 -11.2810 -11.2784 -11.2648
-11.2647 -11.2550 -11.2496  -8.9905  -6.6713  -6.6708  -6.6702  -1.4251
 -1.4245  -1.4044  -1.4036  -1.2679  -1.2656  -1.2183  -1.1740  -1.1445
 -1.1184  -1.0634  -1.0507  -0.9935  -0.9892  -0.9823  -0.9596  -0.9490
 -0.8976  -0.8801  -0.8779  -0.8618  -0.7955  -0.7777  -0.7734  -0.7591
 -0.7372  -0.7192  -0.7054  -0.6955  -0.6809  -0.6730  -0.6667  -0.6625
 -0.6574  -0.6428  -0.6380  -0.6344  -0.6306  -0.6128  -0.5855  -0.5847
 -0.5781  -0.5728  -0.5662  -0.5644  -0.5619  -0.5554  -0.5530  -0.5488
 -0.5351  -0.5270  -0.5198  -0.5155  -0.4835  -0.4709  -0.4664  -0.4608
 -0.4594  -0.4536  -0.4285  -0.4184  -0.4092  -0.3531  -0.3514  -0.3332
 -0.3251

          Ground-State Mulliken Net Atomic Charges

     Atom                 Charge (a.u.)
  ----------------------------------------
      1 C                    -0.128822
      2 C                    -0.107402
      3 C                    -0.044585
      4 C                    -0.000026
      5 H                     0.188996
      6 C                    -0.004142
      7 C                     0.071022
      8 C                     0.007172
      9 C                     0.001272
     10 C                    -0.131123
     11 C                     0.067481
     12 H                     0.179922
     13 C                     0.361196
     14 C                     0.370025
     15 N                    -0.101907
     16 C                     0.359140
     17 C                     0.361679
     18 N                    -0.096719
     19 O                    -0.464853
     20 O                    -0.476239
     21 O                    -0.479413
     22 O                    -0.457203
     23 C                    -0.200929
     24 H                     0.141052
     25 H                     0.112381
     26 H                     0.112606
     27 C                    -0.196036
     28 H                     0.133858
     29 H                     0.113614
     30 H                     0.112975
     31 H                     0.214845
     32 C                    -0.055057
     33 S                     0.031996
     34 C                    -0.210614
     35 C                    -0.176047
     36 C                    -0.200066
     37 H                     0.188104
     38 H                     0.190913
     39 H                     0.210935
  ----------------------------------------
  Sum of atomic charges =     0.000000

                    Cartesian Multipole Moments
 -----------------------------------------------------------------
    Charge (ESU x 10^10)
                 0.0000
    Dipole Moment (Debye)
         X       0.4901      Y       0.6584      Z      -0.9422
       Tot       1.2496
    Quadrupole Moments (Debye-Ang)
        XX    -184.0067     XY       0.7093     YY    -163.7212
        XZ       0.1664     YZ       0.6317     ZZ    -157.5427

 Total job time:  261.35s(wall), 7635.55s(cpu)
        *  Thank you very much for using Q-Chem.  Have a nice day.  *
