 Q-Chem 5.4, Q-Chem, Inc., Pleasanton, CA (2021)
 Q-Chem 5.4.0 for Intel X86 EM64T Linux

User input:
--------------------------------------------------------------
$molecule
0 1
C	0.223244	-6.741404	0.127184
C	1.354118	-6.155638	0.779949
C	-0.715408	-5.791452	-0.415271
C	1.595259	-4.803786	0.919437
H	2.114613	-6.821518	1.218801
C	-0.463133	-4.378638	-0.268806
C	0.688925	-3.838032	0.396744
C	-1.368449	-3.413062	-0.790835
C	0.939189	-2.426473	0.542026
C	-1.130363	-2.059348	-0.652669
C	0.000000	-1.478216	0.000000
H	-1.891815	-1.394783	-1.091814
C	-1.963749	-6.187987	-1.138124
C	-2.607351	-3.798164	-1.506241
N	-2.817348	-5.170003	-1.629443
C	2.837621	-4.424987	1.636646
C	2.188982	-2.036627	1.264474
N	3.042637	-3.049156	1.756205
O	-2.301222	-7.353131	-1.336258
O	-3.407386	-2.986854	-1.967056
O	3.628041	-5.248946	2.092167
O	2.545844	-0.878829	1.472160
C	-4.040164	-5.563799	-2.336642
H	-4.078749	-6.664085	-2.360245
H	-4.027880	-5.147101	-3.361968
H	-4.922811	-5.148785	-1.813424
C	4.247167	-2.587487	2.452149
H	4.804209	-3.483329	2.772531
H	3.965991	-1.964972	3.322697
H	4.859678	-1.962932	1.774507
H	0.062364	-7.822318	0.033931
C	0.000000	0.000000	0.000000
S	0.205093	0.766196	1.580530
C	0.628939	2.348114	0.904911
C	0.258137	0.964028	-0.985400
C	0.599745	2.239309	-0.493528
H	0.197169	0.736404	-2.059934
H	0.827678	3.090243	-1.152593
H	0.856796	3.198808	1.556025
$end

$rem
JOBTYPE		SP
EXCHANGE	HF
CORRELATION	pRIMP2
BASIS		cc-pvtz
METHOD		rimp2
AUX_BASIS	rimp2-cc-pvtz
SOLVENT_METHOD	PCM
PURECART	11111
SYMMETRY	false
MEM_TOTAL	110000
SCF_CONVERGENCE = 6
THRESH=10
GUI = 2
$end

$solvent
dielectric 4.90
$end
--------------------------------------------------------------

             Standard Nuclear Orientation (Angstroms)
    I     Atom           X                Y                Z
 ----------------------------------------------------------------
    1      C       0.2232440000    -6.7414040000     0.1271840000
    2      C       1.3541180000    -6.1556380000     0.7799490000
    3      C      -0.7154080000    -5.7914520000    -0.4152710000
    4      C       1.5952590000    -4.8037860000     0.9194370000
    5      H       2.1146130000    -6.8215180000     1.2188010000
    6      C      -0.4631330000    -4.3786380000    -0.2688060000
    7      C       0.6889250000    -3.8380320000     0.3967440000
    8      C      -1.3684490000    -3.4130620000    -0.7908350000
    9      C       0.9391890000    -2.4264730000     0.5420260000
   10      C      -1.1303630000    -2.0593480000    -0.6526690000
   11      C       0.0000000000    -1.4782160000     0.0000000000
   12      H      -1.8918150000    -1.3947830000    -1.0918140000
   13      C      -1.9637490000    -6.1879870000    -1.1381240000
   14      C      -2.6073510000    -3.7981640000    -1.5062410000
   15      N      -2.8173480000    -5.1700030000    -1.6294430000
   16      C       2.8376210000    -4.4249870000     1.6366460000
   17      C       2.1889820000    -2.0366270000     1.2644740000
   18      N       3.0426370000    -3.0491560000     1.7562050000
   19      O      -2.3012220000    -7.3531310000    -1.3362580000
   20      O      -3.4073860000    -2.9868540000    -1.9670560000
   21      O       3.6280410000    -5.2489460000     2.0921670000
   22      O       2.5458440000    -0.8788290000     1.4721600000
   23      C      -4.0401640000    -5.5637990000    -2.3366420000
   24      H      -4.0787490000    -6.6640850000    -2.3602450000
   25      H      -4.0278800000    -5.1471010000    -3.3619680000
   26      H      -4.9228110000    -5.1487850000    -1.8134240000
   27      C       4.2471670000    -2.5874870000     2.4521490000
   28      H       4.8042090000    -3.4833290000     2.7725310000
   29      H       3.9659910000    -1.9649720000     3.3226970000
   30      H       4.8596780000    -1.9629320000     1.7745070000
   31      H       0.0623640000    -7.8223180000     0.0339310000
   32      C       0.0000000000     0.0000000000     0.0000000000
   33      S       0.2050930000     0.7661960000     1.5805300000
   34      C       0.6289390000     2.3481140000     0.9049110000
   35      C       0.2581370000     0.9640280000    -0.9854000000
   36      C       0.5997450000     2.2393090000    -0.4935280000
   37      H       0.1971690000     0.7364040000    -2.0599340000
   38      H       0.8276780000     3.0902430000    -1.1525930000
   39      H       0.8567960000     3.1988080000     1.5560250000
 ----------------------------------------------------------------

   10   -1570.6797893129      7.37e-07  Convergence criterion met
 Total energy in the final basis set =    -1570.6797893129
        RIMP2         total energy =     -1575.3080974499 a.u.

                    Orbital Energies (a.u.)
 --------------------------------------------------------------

 Alpha MOs
 -- Occupied --
-91.9849 -20.5587 -20.5563 -20.5547 -20.5536 -15.6313 -15.6301 -11.4003
-11.3952 -11.3923 -11.3906 -11.3159 -11.3058 -11.3029 -11.3011 -11.2985
-11.2981 -11.2886 -11.2863 -11.2859 -11.2829 -11.2805 -11.2774 -11.2646
-11.2643 -11.2591 -11.2476  -8.9845  -6.6652  -6.6647  -6.6642  -1.4250
 -1.4235  -1.4043  -1.4026  -1.2675  -1.2649  -1.2175  -1.1733  -1.1438
 -1.1175  -1.0626  -1.0499  -0.9929  -0.9884  -0.9816  -0.9591  -0.9483
 -0.8967  -0.8797  -0.8770  -0.8615  -0.7942  -0.7769  -0.7735  -0.7597
 -0.7346  -0.7189  -0.7048  -0.6946  -0.6811  -0.6731  -0.6662  -0.6620
 -0.6569  -0.6420  -0.6374  -0.6339  -0.6296  -0.6127  -0.5849  -0.5839
 -0.5777  -0.5716  -0.5662  -0.5641  -0.5639  -0.5553  -0.5532  -0.5484
 -0.5354  -0.5258  -0.5208  -0.5120  -0.4826  -0.4705  -0.4648  -0.4588
 -0.4575  -0.4519  -0.4278  -0.4181  -0.4090  -0.3604  -0.3437  -0.3356
 -0.3140

          Ground-State Mulliken Net Atomic Charges

     Atom                 Charge (a.u.)
  ----------------------------------------
      1 C                    -0.133096
      2 C                    -0.108263
      3 C                    -0.041923
      4 C                    -0.002187
      5 H                     0.188789
      6 C                    -0.005963
      7 C                     0.073967
      8 C                     0.010653
      9 C                    -0.021075
     10 C                    -0.148341
     11 C                     0.082285
     12 H                     0.181435
     13 C                     0.361106
     14 C                     0.368328
     15 N                    -0.101543
     16 C                     0.358686
     17 C                     0.375049
     18 N                    -0.095338
     19 O                    -0.464808
     20 O                    -0.476412
     21 O                    -0.480892
     22 O                    -0.456541
     23 C                    -0.200971
     24 H                     0.141075
     25 H                     0.112266
     26 H                     0.112525
     27 C                    -0.196201
     28 H                     0.133682
     29 H                     0.112774
     30 H                     0.112944
     31 H                     0.214145
     32 C                    -0.063271
     33 S                     0.047250
     34 C                    -0.197242
     35 C                    -0.176595
     36 C                    -0.209097
     37 H                     0.191863
     38 H                     0.190499
     39 H                     0.210439
  ----------------------------------------
  Sum of atomic charges =     0.000000

                    Cartesian Multipole Moments
 -----------------------------------------------------------------
    Charge (ESU x 10^10)
                 0.0000
    Dipole Moment (Debye)
         X       0.7933      Y       0.9814      Z      -0.7333
       Tot       1.4595
    Quadrupole Moments (Debye-Ang)
        XX    -178.7180     XY       2.3909     YY    -166.1269
        XZ      -8.1747     YZ       0.3061     ZZ    -162.3941

 Total job time:  258.84s(wall), 7649.34s(cpu)
        *  Thank you very much for using Q-Chem.  Have a nice day.  *
