 Q-Chem 5.4, Q-Chem, Inc., Pleasanton, CA (2021)
 Q-Chem 5.4.0 for Intel X86 EM64T Linux

User input:
--------------------------------------------------------------
$molecule
0 1
C	-0.221766	-6.741404	0.129743
C	-1.352515	-6.155638	0.782726
C	0.717339	-5.791452	-0.411926
C	-1.593885	-4.803786	0.921816
H	-2.112819	-6.821518	1.221908
C	0.464360	-4.378638	-0.266682
C	-0.688053	-3.838032	0.398255
C	1.369108	-3.413062	-0.789694
C	-0.939002	-2.426473	0.542349
C	1.130409	-2.059348	-0.652589
C	-0.000000	-1.478216	-0.000000
H	1.891446	-1.394783	-1.092453
C	1.967519	-6.187987	-1.131595
C	2.608118	-3.798164	-1.504912
N	2.819813	-5.170003	-1.625174
C	-2.836188	-4.424987	1.639129
C	-2.189558	-2.036627	1.263477
N	-3.042237	-3.049156	1.756898
O	2.307845	-7.353131	-1.324787
O	3.407213	-2.986854	-1.967354
O	-3.625890	-5.248946	2.095892
O	-2.547850	-0.878829	1.468685
C	4.043674	-5.563799	-2.330564
H	4.083407	-6.664085	-2.352178
H	4.925490	-5.147101	-1.807263
H	4.031877	-5.148785	-3.356568
C	-4.247206	-2.587487	2.452080
H	-4.803187	-3.483329	2.774302
H	-4.860536	-1.964972	1.773301
H	-3.966607	-1.962932	3.321351
H	-0.060567	-7.822318	0.037043
C	0.000000	0.000000	0.000000
S	0.686805	0.396760	1.580530
C	2.105095	1.215640	0.904911
C	0.864201	0.499140	-0.985400
C	2.007514	1.159347	-0.493528
H	0.660136	0.381296	-2.059934
H	2.770388	1.599875	-1.152593
H	2.867745	1.656053	1.556025
$end

$rem
JOBTYPE		SP
EXCHANGE	HF
CORRELATION	pRIMP2
BASIS		cc-pvtz
METHOD		rimp2
AUX_BASIS	rimp2-cc-pvtz
SOLVENT_METHOD	PCM
PURECART	11111
SYMMETRY	false
MEM_TOTAL	110000
SCF_CONVERGENCE = 6
THRESH=10
GUI = 2
$end

$solvent
dielectric 4.90
$end
--------------------------------------------------------------

             Standard Nuclear Orientation (Angstroms)
    I     Atom           X                Y                Z
 ----------------------------------------------------------------
    1      C      -0.2217660000    -6.7414040000     0.1297430000
    2      C      -1.3525150000    -6.1556380000     0.7827260000
    3      C       0.7173390000    -5.7914520000    -0.4119260000
    4      C      -1.5938850000    -4.8037860000     0.9218160000
    5      H      -2.1128190000    -6.8215180000     1.2219080000
    6      C       0.4643600000    -4.3786380000    -0.2666820000
    7      C      -0.6880530000    -3.8380320000     0.3982550000
    8      C       1.3691080000    -3.4130620000    -0.7896940000
    9      C      -0.9390020000    -2.4264730000     0.5423490000
   10      C       1.1304090000    -2.0593480000    -0.6525890000
   11      C       0.0000000000    -1.4782160000     0.0000000000
   12      H       1.8914460000    -1.3947830000    -1.0924530000
   13      C       1.9675190000    -6.1879870000    -1.1315950000
   14      C       2.6081180000    -3.7981640000    -1.5049120000
   15      N       2.8198130000    -5.1700030000    -1.6251740000
   16      C      -2.8361880000    -4.4249870000     1.6391290000
   17      C      -2.1895580000    -2.0366270000     1.2634770000
   18      N      -3.0422370000    -3.0491560000     1.7568980000
   19      O       2.3078450000    -7.3531310000    -1.3247870000
   20      O       3.4072130000    -2.9868540000    -1.9673540000
   21      O      -3.6258900000    -5.2489460000     2.0958920000
   22      O      -2.5478500000    -0.8788290000     1.4686850000
   23      C       4.0436740000    -5.5637990000    -2.3305640000
   24      H       4.0834070000    -6.6640850000    -2.3521780000
   25      H       4.9254900000    -5.1471010000    -1.8072630000
   26      H       4.0318770000    -5.1487850000    -3.3565680000
   27      C      -4.2472060000    -2.5874870000     2.4520800000
   28      H      -4.8031870000    -3.4833290000     2.7743020000
   29      H      -4.8605360000    -1.9649720000     1.7733010000
   30      H      -3.9666070000    -1.9629320000     3.3213510000
   31      H      -0.0605670000    -7.8223180000     0.0370430000
   32      C       0.0000000000     0.0000000000     0.0000000000
   33      S       0.6868050000     0.3967600000     1.5805300000
   34      C       2.1050950000     1.2156400000     0.9049110000
   35      C       0.8642010000     0.4991400000    -0.9854000000
   36      C       2.0075140000     1.1593470000    -0.4935280000
   37      H       0.6601360000     0.3812960000    -2.0599340000
   38      H       2.7703880000     1.5998750000    -1.1525930000
   39      H       2.8677450000     1.6560530000     1.5560250000
 ----------------------------------------------------------------

   11   -1570.6298304834      5.23e-07  Convergence criterion met
 Total energy in the final basis set =    -1570.6298304834
        RIMP2         total energy =     -1575.2690385455 a.u.

                    Orbital Energies (a.u.)
 --------------------------------------------------------------

 Alpha MOs
 -- Occupied --
-91.9981 -20.5580 -20.5562 -20.5522 -20.5519 -15.6307 -15.6275 -11.3992
-11.3919 -11.3901 -11.3895 -11.3155 -11.3091 -11.3006 -11.2970 -11.2930
-11.2926 -11.2912 -11.2839 -11.2814 -11.2777 -11.2758 -11.2711 -11.2693
-11.2645 -11.2626 -11.2570  -8.9977  -6.6783  -6.6776  -6.6773  -1.4245
 -1.4206  -1.4039  -1.3998  -1.2664  -1.2624  -1.2177  -1.1911  -1.1403
 -1.1137  -1.0623  -1.0467  -0.9974  -0.9939  -0.9906  -0.9573  -0.9451
 -0.8946  -0.8767  -0.8731  -0.8565  -0.7940  -0.7766  -0.7746  -0.7673
 -0.7342  -0.7168  -0.7066  -0.6929  -0.6823  -0.6743  -0.6650  -0.6602
 -0.6550  -0.6423  -0.6355  -0.6313  -0.6262  -0.6118  -0.5906  -0.5853
 -0.5789  -0.5761  -0.5668  -0.5632  -0.5622  -0.5546  -0.5522  -0.5468
 -0.5337  -0.5269  -0.5167  -0.5020  -0.4819  -0.4769  -0.4646  -0.4592
 -0.4546  -0.4510  -0.4261  -0.4169  -0.4065  -0.3713  -0.3460  -0.3365
 -0.3113

          Ground-State Mulliken Net Atomic Charges

     Atom                 Charge (a.u.)
  ----------------------------------------
      1 C                    -0.145648
      2 C                    -0.108613
      3 C                    -0.030261
      4 C                    -0.001442
      5 H                     0.187675
      6 C                    -0.011627
      7 C                     0.073169
      8 C                     0.022369
      9 C                    -0.067614
     10 C                    -0.195973
     11 C                     0.115788
     12 H                     0.183251
     13 C                     0.358258
     14 C                     0.360790
     15 N                    -0.100658
     16 C                     0.355904
     17 C                     0.362243
     18 N                    -0.094544
     19 O                    -0.465026
     20 O                    -0.479413
     21 O                    -0.484259
     22 O                    -0.467768
     23 C                    -0.201627
     24 H                     0.141217
     25 H                     0.111963
     26 H                     0.111918
     27 C                    -0.198144
     28 H                     0.132910
     29 H                     0.112621
     30 H                     0.112450
     31 H                     0.212125
     32 C                    -0.148255
     33 S                     0.066891
     34 C                    -0.137034
     35 C                    -0.064507
     36 C                    -0.236014
     37 H                     0.201019
     38 H                     0.197049
     39 H                     0.218818
  ----------------------------------------
  Sum of atomic charges =     0.000000

                    Cartesian Multipole Moments
 -----------------------------------------------------------------
    Charge (ESU x 10^10)
                 0.0000
    Dipole Moment (Debye)
         X       3.3498      Y       1.7899      Z      -0.9556
       Tot       3.9163
    Quadrupole Moments (Debye-Ang)
        XX    -170.5698     XY       5.9716     YY    -178.3244
        XZ      10.8257     YZ       0.7871     ZZ    -161.8044

 Total job time:  292.22s(wall), 9544.27s(cpu)
        *  Thank you very much for using Q-Chem.  Have a nice day.  *
