 Q-Chem 5.4, Q-Chem, Inc., Pleasanton, CA (2021)
 Q-Chem 5.4.0 for Intel X86 EM64T Linux

User input:
--------------------------------------------------------------
$molecule
0 1
C	-0.223244	-6.741404	-0.127184
C	-1.354118	-6.155638	-0.779949
C	0.715408	-5.791452	0.415271
C	-1.595259	-4.803786	-0.919437
H	-2.114613	-6.821518	-1.218801
C	0.463133	-4.378638	0.268806
C	-0.688925	-3.838032	-0.396744
C	1.368449	-3.413062	0.790835
C	-0.939189	-2.426473	-0.542026
C	1.130363	-2.059348	0.652669
C	-0.000000	-1.478216	-0.000000
H	1.891815	-1.394783	1.091814
C	1.963749	-6.187987	1.138124
C	2.607351	-3.798164	1.506241
N	2.817348	-5.170003	1.629443
C	-2.837621	-4.424987	-1.636646
C	-2.188982	-2.036627	-1.264474
N	-3.042637	-3.049156	-1.756205
O	2.301222	-7.353131	1.336258
O	3.407386	-2.986854	1.967056
O	-3.628041	-5.248946	-2.092167
O	-2.545844	-0.878829	-1.472160
C	4.040164	-5.563799	2.336642
H	4.078749	-6.664085	2.360245
H	4.027880	-5.147101	3.361968
H	4.922811	-5.148785	1.813424
C	-4.247167	-2.587487	-2.452149
H	-4.804209	-3.483329	-2.772531
H	-3.965991	-1.964972	-3.322697
H	-4.859678	-1.962932	-1.774507
H	-0.062364	-7.822318	-0.033931
C	0.000000	0.000000	0.000000
S	0.396411	0.687007	1.580530
C	1.215245	2.105322	0.904911
C	0.498850	0.864369	-0.985400
C	1.158885	2.007781	-0.493528
H	0.381046	0.660280	-2.059934
H	1.599289	2.770727	-1.152593
H	1.655514	2.868056	1.556025
$end

$rem
JOBTYPE		SP
EXCHANGE	HF
CORRELATION	pRIMP2
BASIS		cc-pvtz
METHOD		rimp2
AUX_BASIS	rimp2-cc-pvtz
SOLVENT_METHOD	PCM
PURECART	11111
SYMMETRY	false
MEM_TOTAL	110000
SCF_CONVERGENCE = 6
THRESH=10
GUI = 2
$end

$solvent
dielectric 4.90
$end
--------------------------------------------------------------

             Standard Nuclear Orientation (Angstroms)
    I     Atom           X                Y                Z
 ----------------------------------------------------------------
    1      C      -0.2232440000    -6.7414040000    -0.1271840000
    2      C      -1.3541180000    -6.1556380000    -0.7799490000
    3      C       0.7154080000    -5.7914520000     0.4152710000
    4      C      -1.5952590000    -4.8037860000    -0.9194370000
    5      H      -2.1146130000    -6.8215180000    -1.2188010000
    6      C       0.4631330000    -4.3786380000     0.2688060000
    7      C      -0.6889250000    -3.8380320000    -0.3967440000
    8      C       1.3684490000    -3.4130620000     0.7908350000
    9      C      -0.9391890000    -2.4264730000    -0.5420260000
   10      C       1.1303630000    -2.0593480000     0.6526690000
   11      C       0.0000000000    -1.4782160000     0.0000000000
   12      H       1.8918150000    -1.3947830000     1.0918140000
   13      C       1.9637490000    -6.1879870000     1.1381240000
   14      C       2.6073510000    -3.7981640000     1.5062410000
   15      N       2.8173480000    -5.1700030000     1.6294430000
   16      C      -2.8376210000    -4.4249870000    -1.6366460000
   17      C      -2.1889820000    -2.0366270000    -1.2644740000
   18      N      -3.0426370000    -3.0491560000    -1.7562050000
   19      O       2.3012220000    -7.3531310000     1.3362580000
   20      O       3.4073860000    -2.9868540000     1.9670560000
   21      O      -3.6280410000    -5.2489460000    -2.0921670000
   22      O      -2.5458440000    -0.8788290000    -1.4721600000
   23      C       4.0401640000    -5.5637990000     2.3366420000
   24      H       4.0787490000    -6.6640850000     2.3602450000
   25      H       4.0278800000    -5.1471010000     3.3619680000
   26      H       4.9228110000    -5.1487850000     1.8134240000
   27      C      -4.2471670000    -2.5874870000    -2.4521490000
   28      H      -4.8042090000    -3.4833290000    -2.7725310000
   29      H      -3.9659910000    -1.9649720000    -3.3226970000
   30      H      -4.8596780000    -1.9629320000    -1.7745070000
   31      H      -0.0623640000    -7.8223180000    -0.0339310000
   32      C       0.0000000000     0.0000000000     0.0000000000
   33      S       0.3964110000     0.6870070000     1.5805300000
   34      C       1.2152450000     2.1053220000     0.9049110000
   35      C       0.4988500000     0.8643690000    -0.9854000000
   36      C       1.1588850000     2.0077810000    -0.4935280000
   37      H       0.3810460000     0.6602800000    -2.0599340000
   38      H       1.5992890000     2.7707270000    -1.1525930000
   39      H       1.6555140000     2.8680560000     1.5560250000
 ----------------------------------------------------------------

   10   -1570.6765842484      7.37e-07  Convergence criterion met
 Total energy in the final basis set =    -1570.6765842484
        RIMP2         total energy =     -1575.3045476978 a.u.

                    Orbital Energies (a.u.)
 --------------------------------------------------------------

 Alpha MOs
 -- Occupied --
-91.9921 -20.5583 -20.5562 -20.5558 -20.5547 -15.6310 -15.6305 -11.3999
-11.3962 -11.3922 -11.3902 -11.3167 -11.3027 -11.3022 -11.2996 -11.2973
-11.2970 -11.2901 -11.2882 -11.2853 -11.2853 -11.2797 -11.2768 -11.2644
-11.2644 -11.2620 -11.2522  -8.9919  -6.6727  -6.6721  -6.6716  -1.4246
 -1.4237  -1.4039  -1.4027  -1.2672  -1.2649  -1.2174  -1.1796  -1.1434
 -1.1168  -1.0632  -1.0493  -0.9926  -0.9910  -0.9870  -0.9588  -0.9473
 -0.8971  -0.8788  -0.8773  -0.8597  -0.7958  -0.7779  -0.7729  -0.7613
 -0.7373  -0.7176  -0.7061  -0.6949  -0.6808  -0.6734  -0.6661  -0.6620
 -0.6565  -0.6419  -0.6373  -0.6333  -0.6294  -0.6126  -0.5857  -0.5841
 -0.5788  -0.5745  -0.5672  -0.5638  -0.5611  -0.5551  -0.5527  -0.5480
 -0.5403  -0.5269  -0.5204  -0.5079  -0.4833  -0.4708  -0.4673  -0.4630
 -0.4599  -0.4531  -0.4279  -0.4181  -0.4084  -0.3664  -0.3493  -0.3350
 -0.3146

          Ground-State Mulliken Net Atomic Charges

     Atom                 Charge (a.u.)
  ----------------------------------------
      1 C                    -0.134646
      2 C                    -0.109631
      3 C                    -0.040256
      4 C                    -0.000083
      5 H                     0.188527
      6 C                     0.002418
      7 C                     0.072505
      8 C                    -0.001528
      9 C                    -0.028749
     10 C                    -0.110395
     11 C                     0.028836
     12 H                     0.190132
     13 C                     0.360051
     14 C                     0.363418
     15 N                    -0.101407
     16 C                     0.358872
     17 C                     0.354858
     18 N                    -0.097137
     19 O                    -0.465183
     20 O                    -0.476756
     21 O                    -0.480627
     22 O                    -0.463035
     23 C                    -0.201258
     24 H                     0.141024
     25 H                     0.112443
     26 H                     0.112268
     27 C                    -0.196394
     28 H                     0.133669
     29 H                     0.112445
     30 H                     0.113460
     31 H                     0.213750
     32 C                    -0.011219
     33 S                     0.018281
     34 C                    -0.190652
     35 C                    -0.154125
     36 C                    -0.209720
     37 H                     0.190177
     38 H                     0.192949
     39 H                     0.212716
  ----------------------------------------
  Sum of atomic charges =     0.000000

                    Cartesian Multipole Moments
 -----------------------------------------------------------------
    Charge (ESU x 10^10)
                 0.0000
    Dipole Moment (Debye)
         X       1.3228      Y       1.2427      Z      -0.8868
       Tot       2.0200
    Quadrupole Moments (Debye-Ang)
        XX    -176.7400     XY       5.7922     YY    -168.7021
        XZ      -8.5844     YZ       1.1131     ZZ    -162.4240

 Total job time:  244.86s(wall), 7672.95s(cpu)
        *  Thank you very much for using Q-Chem.  Have a nice day.  *
