 Q-Chem 5.4, Q-Chem, Inc., Pleasanton, CA (2021)
 Q-Chem 5.4.0 for Intel X86 EM64T Linux

User input:
--------------------------------------------------------------
$molecule
0 1
C	0.586080	-6.715879	-0.256927
C	0.534902	-6.132354	-1.562675
C	0.502834	-5.769583	0.827197
C	0.417309	-4.785626	-1.841253
H	0.592747	-6.795716	-2.440709
C	0.380402	-4.362083	0.535488
C	0.333638	-3.823504	-0.794999
C	0.296812	-3.400131	1.580529
C	0.211295	-2.417255	-1.084374
C	0.179438	-2.051515	1.305258
C	0.128835	-1.472591	0.000000
H	0.121931	-1.389444	2.184267
C	0.535563	-6.164769	2.269719
C	0.330267	-3.783778	3.011152
N	0.448140	-5.150545	3.254617
C	0.384235	-4.408274	-3.275775
C	0.178078	-2.028827	-2.527951
N	0.265353	-3.037588	-3.513104
O	0.634270	-7.325728	2.661046
O	0.260493	-2.975473	3.934410
O	0.455333	-5.229160	-4.188059
O	0.078594	-0.875310	-2.940845
C	0.481421	-5.542933	4.667206
H	0.576173	-6.639132	4.712423
H	-0.445595	-5.205747	5.169231
H	1.336290	-5.051542	5.169992
C	0.225553	-2.577637	-4.904229
H	0.302574	-3.470163	-5.546833
H	1.062399	-1.879530	-5.095998
H	-0.718592	-2.033299	-5.095858
H	0.679970	-7.792708	-0.070974
C	0.000000	0.000000	0.000000
S	0.137535	0.781156	1.580530
C	0.421895	2.393994	0.904911
C	0.173134	0.982857	-0.985400
C	0.402294	2.283058	-0.493528
H	0.132237	0.750786	-2.059934
H	0.555196	3.150621	-1.152593
H	0.574741	3.261310	1.556025
$end

$rem
JOBTYPE		SP
EXCHANGE	HF
CORRELATION	pRIMP2
BASIS		cc-pvtz
METHOD		rimp2
AUX_BASIS	rimp2-cc-pvtz
SOLVENT_METHOD	PCM
PURECART	11111
SYMMETRY	false
MEM_TOTAL	110000
SCF_CONVERGENCE = 6
THRESH=10
GUI = 2
$end

$solvent
dielectric 4.90
$end
--------------------------------------------------------------

             Standard Nuclear Orientation (Angstroms)
    I     Atom           X                Y                Z
 ----------------------------------------------------------------
    1      C       0.5860800000    -6.7158790000    -0.2569270000
    2      C       0.5349020000    -6.1323540000    -1.5626750000
    3      C       0.5028340000    -5.7695830000     0.8271970000
    4      C       0.4173090000    -4.7856260000    -1.8412530000
    5      H       0.5927470000    -6.7957160000    -2.4407090000
    6      C       0.3804020000    -4.3620830000     0.5354880000
    7      C       0.3336380000    -3.8235040000    -0.7949990000
    8      C       0.2968120000    -3.4001310000     1.5805290000
    9      C       0.2112950000    -2.4172550000    -1.0843740000
   10      C       0.1794380000    -2.0515150000     1.3052580000
   11      C       0.1288350000    -1.4725910000     0.0000000000
   12      H       0.1219310000    -1.3894440000     2.1842670000
   13      C       0.5355630000    -6.1647690000     2.2697190000
   14      C       0.3302670000    -3.7837780000     3.0111520000
   15      N       0.4481400000    -5.1505450000     3.2546170000
   16      C       0.3842350000    -4.4082740000    -3.2757750000
   17      C       0.1780780000    -2.0288270000    -2.5279510000
   18      N       0.2653530000    -3.0375880000    -3.5131040000
   19      O       0.6342700000    -7.3257280000     2.6610460000
   20      O       0.2604930000    -2.9754730000     3.9344100000
   21      O       0.4553330000    -5.2291600000    -4.1880590000
   22      O       0.0785940000    -0.8753100000    -2.9408450000
   23      C       0.4814210000    -5.5429330000     4.6672060000
   24      H       0.5761730000    -6.6391320000     4.7124230000
   25      H      -0.4455950000    -5.2057470000     5.1692310000
   26      H       1.3362900000    -5.0515420000     5.1699920000
   27      C       0.2255530000    -2.5776370000    -4.9042290000
   28      H       0.3025740000    -3.4701630000    -5.5468330000
   29      H       1.0623990000    -1.8795300000    -5.0959980000
   30      H      -0.7185920000    -2.0332990000    -5.0958580000
   31      H       0.6799700000    -7.7927080000    -0.0709740000
   32      C       0.0000000000     0.0000000000     0.0000000000
   33      S       0.1375350000     0.7811560000     1.5805300000
   34      C       0.4218950000     2.3939940000     0.9049110000
   35      C       0.1731340000     0.9828570000    -0.9854000000
   36      C       0.4022940000     2.2830580000    -0.4935280000
   37      H       0.1322370000     0.7507860000    -2.0599340000
   38      H       0.5551960000     3.1506210000    -1.1525930000
   39      H       0.5747410000     3.2613100000     1.5560250000
 ----------------------------------------------------------------

   10   -1570.6807351861      8.27e-07  Convergence criterion met
 Total energy in the final basis set =    -1570.6807351861
        RIMP2         total energy =     -1575.3094383169 a.u.

                    Orbital Energies (a.u.)
 --------------------------------------------------------------

 Alpha MOs
 -- Occupied --
-91.9931 -20.5584 -20.5564 -20.5558 -20.5534 -15.6311 -15.6306 -11.3997
-11.3974 -11.3912 -11.3907 -11.3200 -11.3019 -11.2999 -11.2977 -11.2948
-11.2936 -11.2915 -11.2904 -11.2873 -11.2829 -11.2787 -11.2782 -11.2649
-11.2643 -11.2532 -11.2499  -8.9931  -6.6739  -6.6734  -6.6727  -1.4258
 -1.4247  -1.4042  -1.4041  -1.2675  -1.2654  -1.2168  -1.1780  -1.1438
 -1.1160  -1.0636  -1.0492  -0.9924  -0.9903  -0.9876  -0.9587  -0.9472
 -0.8973  -0.8791  -0.8785  -0.8615  -0.7965  -0.7801  -0.7731  -0.7625
 -0.7356  -0.7246  -0.7032  -0.6940  -0.6823  -0.6740  -0.6665  -0.6623
 -0.6560  -0.6414  -0.6377  -0.6340  -0.6278  -0.6129  -0.5913  -0.5835
 -0.5791  -0.5708  -0.5667  -0.5640  -0.5614  -0.5561  -0.5542  -0.5470
 -0.5351  -0.5252  -0.5247  -0.5156  -0.4815  -0.4690  -0.4652  -0.4618
 -0.4579  -0.4502  -0.4293  -0.4193  -0.4098  -0.3776  -0.3554  -0.3364
 -0.2991

          Ground-State Mulliken Net Atomic Charges

     Atom                 Charge (a.u.)
  ----------------------------------------
      1 C                    -0.145377
      2 C                    -0.111919
      3 C                    -0.028751
      4 C                    -0.002450
      5 H                     0.187814
      6 C                     0.003659
      7 C                     0.072765
      8 C                     0.056151
      9 C                    -0.077448
     10 C                    -0.172286
     11 C                     0.042697
     12 H                     0.169717
     13 C                     0.358232
     14 C                     0.363167
     15 N                    -0.101317
     16 C                     0.358908
     17 C                     0.383834
     18 N                    -0.091714
     19 O                    -0.464243
     20 O                    -0.476593
     21 O                    -0.483326
     22 O                    -0.479747
     23 C                    -0.201160
     24 H                     0.141080
     25 H                     0.112509
     26 H                     0.112461
     27 C                    -0.198297
     28 H                     0.134638
     29 H                     0.112373
     30 H                     0.112756
     31 H                     0.212482
     32 C                     0.014522
     33 S                     0.009872
     34 C                    -0.190108
     35 C                    -0.145255
     36 C                    -0.236680
     37 H                     0.234900
     38 H                     0.192598
     39 H                     0.219534
  ----------------------------------------
  Sum of atomic charges =     0.000000

                    Cartesian Multipole Moments
 -----------------------------------------------------------------
    Charge (ESU x 10^10)
                -0.0000
    Dipole Moment (Debye)
         X       0.4840      Y       2.2913      Z      -0.8269
       Tot       2.4836
    Quadrupole Moments (Debye-Ang)
        XX    -163.7182     XY       3.3919     YY    -168.4481
        XZ       0.1565     YZ       0.4924     ZZ    -178.1100

 Total job time:  527.28s(wall), 22078.18s(cpu)
        *  Thank you very much for using Q-Chem.  Have a nice day.  *
