 Q-Chem 5.4, Q-Chem, Inc., Pleasanton, CA (2021)
 Q-Chem 5.4.0 for Intel X86 EM64T Linux

User input:
--------------------------------------------------------------
$molecule
0 1
C	0.240927	-6.741404	-0.089263
C	1.467886	-6.155638	-0.535973
C	-0.777972	-5.791452	0.281103
C	1.729742	-4.803786	-0.631036
H	2.292903	-6.821518	-0.836458
C	-0.503614	-4.378638	0.181995
C	0.746756	-3.838032	-0.272725
C	-1.485437	-3.413062	0.539954
C	1.018915	-2.426473	-0.371053
C	-1.226557	-2.059348	0.446381
C	-0.000000	-1.478216	-0.000000
H	-2.052413	-1.394783	0.747410
C	-2.134128	-6.187987	0.772747
C	-2.829820	-3.798164	1.029154
N	-3.059182	-5.170003	1.110828
C	3.077731	-4.424987	-1.121728
C	2.375694	-2.036627	-0.864069
N	3.301101	-3.049156	-1.201928
O	-2.502830	-7.353131	0.903908
O	-3.697078	-2.986854	1.345809
O	3.934752	-5.248946	-1.434422
O	2.764177	-0.878829	-1.003943
C	-4.386939	-5.563799	1.592981
H	-4.429822	-6.664085	1.607367
H	-5.164489	-5.147101	0.924504
H	-4.553486	-5.148785	2.605446
C	4.608481	-2.587487	-1.677308
H	5.211969	-3.483329	-1.898089
H	5.094624	-1.964972	-0.902337
H	4.483092	-1.962932	-2.582098
H	0.066080	-7.822318	-0.025963
C	0.000000	0.000000	0.000000
S	0.686805	0.396760	1.580530
C	2.105095	1.215640	0.904911
C	0.864201	0.499140	-0.985400
C	2.007514	1.159347	-0.493528
H	0.660136	0.381296	-2.059934
H	2.770388	1.599875	-1.152593
H	2.867745	1.656053	1.556025
$end

$rem
JOBTYPE		SP
EXCHANGE	HF
CORRELATION	pRIMP2
BASIS		cc-pvtz
METHOD		rimp2
AUX_BASIS	rimp2-cc-pvtz
SOLVENT_METHOD	PCM
PURECART	11111
SYMMETRY	false
MEM_TOTAL	110000
SCF_CONVERGENCE = 6
THRESH=10
GUI = 2
$end

$solvent
dielectric 4.90
$end
--------------------------------------------------------------

             Standard Nuclear Orientation (Angstroms)
    I     Atom           X                Y                Z
 ----------------------------------------------------------------
    1      C       0.2409270000    -6.7414040000    -0.0892630000
    2      C       1.4678860000    -6.1556380000    -0.5359730000
    3      C      -0.7779720000    -5.7914520000     0.2811030000
    4      C       1.7297420000    -4.8037860000    -0.6310360000
    5      H       2.2929030000    -6.8215180000    -0.8364580000
    6      C      -0.5036140000    -4.3786380000     0.1819950000
    7      C       0.7467560000    -3.8380320000    -0.2727250000
    8      C      -1.4854370000    -3.4130620000     0.5399540000
    9      C       1.0189150000    -2.4264730000    -0.3710530000
   10      C      -1.2265570000    -2.0593480000     0.4463810000
   11      C       0.0000000000    -1.4782160000     0.0000000000
   12      H      -2.0524130000    -1.3947830000     0.7474100000
   13      C      -2.1341280000    -6.1879870000     0.7727470000
   14      C      -2.8298200000    -3.7981640000     1.0291540000
   15      N      -3.0591820000    -5.1700030000     1.1108280000
   16      C       3.0777310000    -4.4249870000    -1.1217280000
   17      C       2.3756940000    -2.0366270000    -0.8640690000
   18      N       3.3011010000    -3.0491560000    -1.2019280000
   19      O      -2.5028300000    -7.3531310000     0.9039080000
   20      O      -3.6970780000    -2.9868540000     1.3458090000
   21      O       3.9347520000    -5.2489460000    -1.4344220000
   22      O       2.7641770000    -0.8788290000    -1.0039430000
   23      C      -4.3869390000    -5.5637990000     1.5929810000
   24      H      -4.4298220000    -6.6640850000     1.6073670000
   25      H      -5.1644890000    -5.1471010000     0.9245040000
   26      H      -4.5534860000    -5.1487850000     2.6054460000
   27      C       4.6084810000    -2.5874870000    -1.6773080000
   28      H       5.2119690000    -3.4833290000    -1.8980890000
   29      H       5.0946240000    -1.9649720000    -0.9023370000
   30      H       4.4830920000    -1.9629320000    -2.5820980000
   31      H       0.0660800000    -7.8223180000    -0.0259630000
   32      C       0.0000000000     0.0000000000     0.0000000000
   33      S       0.6868050000     0.3967600000     1.5805300000
   34      C       2.1050950000     1.2156400000     0.9049110000
   35      C       0.8642010000     0.4991400000    -0.9854000000
   36      C       2.0075140000     1.1593470000    -0.4935280000
   37      H       0.6601360000     0.3812960000    -2.0599340000
   38      H       2.7703880000     1.5998750000    -1.1525930000
   39      H       2.8677450000     1.6560530000     1.5560250000
 ----------------------------------------------------------------

   11   -1570.5944083257      4.77e-07  Convergence criterion met
 Total energy in the final basis set =    -1570.5944083257
        RIMP2         total energy =     -1575.2395523004 a.u.

                    Orbital Energies (a.u.)
 --------------------------------------------------------------

 Alpha MOs
 -- Occupied --
-91.9819 -20.5575 -20.5545 -20.5540 -20.5502 -15.6309 -15.6296 -11.3987
-11.3968 -11.3913 -11.3883 -11.3145 -11.3009 -11.2980 -11.2929 -11.2927
-11.2924 -11.2888 -11.2824 -11.2819 -11.2781 -11.2769 -11.2676 -11.2658
-11.2635 -11.2533 -11.2496  -8.9823  -6.6632  -6.6624  -6.6619  -1.4270
 -1.4234  -1.4051  -1.4027  -1.2676  -1.2647  -1.2153  -1.1815  -1.1401
 -1.1136  -1.0595  -1.0462  -0.9921  -0.9894  -0.9855  -0.9582  -0.9485
 -0.8959  -0.8778  -0.8689  -0.8583  -0.7901  -0.7751  -0.7744  -0.7611
 -0.7351  -0.7195  -0.7021  -0.6927  -0.6863  -0.6710  -0.6657  -0.6615
 -0.6542  -0.6445  -0.6370  -0.6343  -0.6263  -0.6104  -0.5881  -0.5829
 -0.5775  -0.5737  -0.5671  -0.5634  -0.5560  -0.5534  -0.5521  -0.5487
 -0.5367  -0.5249  -0.5172  -0.4994  -0.4801  -0.4694  -0.4624  -0.4597
 -0.4539  -0.4409  -0.4280  -0.4173  -0.4062  -0.3550  -0.3353  -0.3320
 -0.3067

          Ground-State Mulliken Net Atomic Charges

     Atom                 Charge (a.u.)
  ----------------------------------------
      1 C                    -0.147707
      2 C                    -0.108231
      3 C                    -0.033200
      4 C                    -0.003359
      5 H                     0.187219
      6 C                    -0.013445
      7 C                     0.079338
      8 C                     0.011824
      9 C                    -0.076506
     10 C                    -0.140874
     11 C                     0.082912
     12 H                     0.182042
     13 C                     0.360225
     14 C                     0.364913
     15 N                    -0.101274
     16 C                     0.357062
     17 C                     0.398404
     18 N                    -0.091375
     19 O                    -0.465145
     20 O                    -0.476183
     21 O                    -0.482901
     22 O                    -0.470186
     23 C                    -0.201605
     24 H                     0.140626
     25 H                     0.112140
     26 H                     0.112281
     27 C                    -0.196720
     28 H                     0.135371
     29 H                     0.112125
     30 H                     0.111072
     31 H                     0.212162
     32 C                    -0.191159
     33 S                     0.007624
     34 C                    -0.186463
     35 C                    -0.051233
     36 C                    -0.113147
     37 H                     0.197312
     38 H                     0.177465
     39 H                     0.208597
  ----------------------------------------
  Sum of atomic charges =     0.000000

                    Cartesian Multipole Moments
 -----------------------------------------------------------------
    Charge (ESU x 10^10)
                 0.0000
    Dipole Moment (Debye)
         X       3.5268      Y       1.3146      Z      -1.7647
       Tot       4.1570
    Quadrupole Moments (Debye-Ang)
        XX    -171.6370     XY       5.0822     YY    -179.7186
        XZ       6.6555     YZ       0.0455     ZZ    -159.7811

 Total job time:  282.07s(wall), 8538.92s(cpu)
        *  Thank you very much for using Q-Chem.  Have a nice day.  *
