 Q-Chem 5.4, Q-Chem, Inc., Pleasanton, CA (2021)
 Q-Chem 5.4.0 for Intel X86 EM64T Linux

User input:
--------------------------------------------------------------
$molecule
0 1
C	-0.046070	-6.741404	-0.252767
C	-0.272935	-6.155638	-1.538656
C	0.141739	-5.791452	0.814966
C	-0.321083	-4.803786	-1.813042
H	-0.425592	-6.821518	-2.403318
C	0.091779	-4.378638	0.527566
C	-0.138909	-3.838032	-0.782769
C	0.273808	-3.413062	1.556632
C	-0.188483	-2.426473	-1.067868
C	0.226610	-2.059348	1.285436
C	-0.000000	-1.478216	-0.000000
H	0.379657	-1.394783	2.151019
C	0.390420	-6.187987	2.235891
C	0.522125	-3.798164	2.965540
N	0.562731	-5.170003	3.205600
C	-0.570244	-4.424987	-3.225760
C	-0.438407	-2.036627	-2.489646
N	-0.610438	-3.049156	-3.459662
O	0.455563	-7.353131	2.621768
O	0.683373	-2.986854	3.874608
O	-0.729367	-5.248946	-4.124059
O	-0.508697	-0.878829	-2.896516
C	0.806996	-5.563799	4.596910
H	0.813717	-6.664085	4.641640
H	0.013655	-5.147101	5.246567
H	1.775159	-5.148785	4.936739
C	-0.851572	-2.587487	-4.829729
H	-0.964204	-3.483329	-5.462387
H	-0.003956	-1.964972	-5.173914
H	-1.764390	-1.962932	-4.863360
H	-0.014094	-7.822318	-0.069584
C	0.000000	0.000000	0.000000
S	0.686805	0.396760	1.580530
C	2.105095	1.215640	0.904911
C	0.864201	0.499140	-0.985400
C	2.007514	1.159347	-0.493528
H	0.660136	0.381296	-2.059934
H	2.770388	1.599875	-1.152593
H	2.867745	1.656053	1.556025
$end

$rem
JOBTYPE		SP
EXCHANGE	HF
CORRELATION	pRIMP2
BASIS		cc-pvtz
METHOD		rimp2
AUX_BASIS	rimp2-cc-pvtz
SOLVENT_METHOD	PCM
PURECART	11111
SYMMETRY	false
MEM_TOTAL	110000
SCF_CONVERGENCE = 6
THRESH=10
GUI = 2
$end

$solvent
dielectric 4.90
$end
--------------------------------------------------------------

             Standard Nuclear Orientation (Angstroms)
    I     Atom           X                Y                Z
 ----------------------------------------------------------------
    1      C      -0.0460700000    -6.7414040000    -0.2527670000
    2      C      -0.2729350000    -6.1556380000    -1.5386560000
    3      C       0.1417390000    -5.7914520000     0.8149660000
    4      C      -0.3210830000    -4.8037860000    -1.8130420000
    5      H      -0.4255920000    -6.8215180000    -2.4033180000
    6      C       0.0917790000    -4.3786380000     0.5275660000
    7      C      -0.1389090000    -3.8380320000    -0.7827690000
    8      C       0.2738080000    -3.4130620000     1.5566320000
    9      C      -0.1884830000    -2.4264730000    -1.0678680000
   10      C       0.2266100000    -2.0593480000     1.2854360000
   11      C       0.0000000000    -1.4782160000     0.0000000000
   12      H       0.3796570000    -1.3947830000     2.1510190000
   13      C       0.3904200000    -6.1879870000     2.2358910000
   14      C       0.5221250000    -3.7981640000     2.9655400000
   15      N       0.5627310000    -5.1700030000     3.2056000000
   16      C      -0.5702440000    -4.4249870000    -3.2257600000
   17      C      -0.4384070000    -2.0366270000    -2.4896460000
   18      N      -0.6104380000    -3.0491560000    -3.4596620000
   19      O       0.4555630000    -7.3531310000     2.6217680000
   20      O       0.6833730000    -2.9868540000     3.8746080000
   21      O      -0.7293670000    -5.2489460000    -4.1240590000
   22      O      -0.5086970000    -0.8788290000    -2.8965160000
   23      C       0.8069960000    -5.5637990000     4.5969100000
   24      H       0.8137170000    -6.6640850000     4.6416400000
   25      H       0.0136550000    -5.1471010000     5.2465670000
   26      H       1.7751590000    -5.1487850000     4.9367390000
   27      C      -0.8515720000    -2.5874870000    -4.8297290000
   28      H      -0.9642040000    -3.4833290000    -5.4623870000
   29      H      -0.0039560000    -1.9649720000    -5.1739140000
   30      H      -1.7643900000    -1.9629320000    -4.8633600000
   31      H      -0.0140940000    -7.8223180000    -0.0695840000
   32      C       0.0000000000     0.0000000000     0.0000000000
   33      S       0.6868050000     0.3967600000     1.5805300000
   34      C       2.1050950000     1.2156400000     0.9049110000
   35      C       0.8642010000     0.4991400000    -0.9854000000
   36      C       2.0075140000     1.1593470000    -0.4935280000
   37      H       0.6601360000     0.3812960000    -2.0599340000
   38      H       2.7703880000     1.5998750000    -1.1525930000
   39      H       2.8677450000     1.6560530000     1.5560250000
 ----------------------------------------------------------------

   11   -1570.5986506843      5.26e-07  Convergence criterion met
 Total energy in the final basis set =    -1570.5986506843
        RIMP2         total energy =     -1575.2415966548 a.u.

                    Orbital Energies (a.u.)
 --------------------------------------------------------------

 Alpha MOs
 -- Occupied --
-91.9924 -20.5572 -20.5554 -20.5515 -20.5498 -15.6297 -15.6272 -11.3980
-11.3919 -11.3890 -11.3877 -11.3208 -11.3152 -11.2988 -11.2955 -11.2871
-11.2870 -11.2835 -11.2828 -11.2789 -11.2772 -11.2751 -11.2728 -11.2646
-11.2638 -11.2631 -11.2534  -8.9945  -6.6751  -6.6741  -6.6739  -1.4235
 -1.4221  -1.4030  -1.4007  -1.2655  -1.2624  -1.2179  -1.1916  -1.1394
 -1.1112  -1.0634  -1.0462  -1.0027  -0.9928  -0.9894  -0.9564  -0.9434
 -0.8941  -0.8761  -0.8742  -0.8573  -0.8004  -0.7803  -0.7701  -0.7662
 -0.7327  -0.7246  -0.7007  -0.6937  -0.6800  -0.6737  -0.6644  -0.6603
 -0.6535  -0.6427  -0.6346  -0.6324  -0.6243  -0.6123  -0.5930  -0.5875
 -0.5818  -0.5783  -0.5679  -0.5621  -0.5609  -0.5554  -0.5519  -0.5458
 -0.5392  -0.5236  -0.5225  -0.4995  -0.4795  -0.4637  -0.4587  -0.4571
 -0.4541  -0.4487  -0.4262  -0.4172  -0.4077  -0.3770  -0.3532  -0.3303
 -0.2991

          Ground-State Mulliken Net Atomic Charges

     Atom                 Charge (a.u.)
  ----------------------------------------
      1 C                    -0.162639
      2 C                    -0.110492
      3 C                    -0.020291
      4 C                    -0.005137
      5 H                     0.186320
      6 C                    -0.023762
      7 C                     0.069523
      8 C                     0.070922
      9 C                    -0.107923
     10 C                    -0.176989
     11 C                     0.060546
     12 H                     0.178489
     13 C                     0.357657
     14 C                     0.363421
     15 N                    -0.100588
     16 C                     0.354677
     17 C                     0.386240
     18 N                    -0.092646
     19 O                    -0.464858
     20 O                    -0.480284
     21 O                    -0.487995
     22 O                    -0.494679
     23 C                    -0.201699
     24 H                     0.141003
     25 H                     0.112089
     26 H                     0.111594
     27 C                    -0.198767
     28 H                     0.133681
     29 H                     0.110816
     30 H                     0.112285
     31 H                     0.209973
     32 C                    -0.101548
     33 S                     0.037898
     34 C                    -0.112222
     35 C                    -0.041933
     36 C                    -0.269900
     37 H                     0.241182
     38 H                     0.194719
     39 H                     0.221318
  ----------------------------------------
  Sum of atomic charges =     0.000000

                    Cartesian Multipole Moments
 -----------------------------------------------------------------
    Charge (ESU x 10^10)
                 0.0000
    Dipole Moment (Debye)
         X       3.4831      Y       3.0499      Z      -0.0738
       Tot       4.6302
    Quadrupole Moments (Debye-Ang)
        XX    -154.2336     XY       5.5626     YY    -184.6727
        XZ      -2.5698     YZ      -1.2369     ZZ    -178.2862

 Total job time:  295.14s(wall), 9575.37s(cpu)
        *  Thank you very much for using Q-Chem.  Have a nice day.  *
