 Q-Chem 5.4, Q-Chem, Inc., Pleasanton, CA (2021)
 Q-Chem 5.4.0 for Intel X86 EM64T Linux

User input:
--------------------------------------------------------------
$molecule
0 1
C	0.197767	-6.741404	0.164018
C	1.198109	-6.155638	1.003240
C	-0.632428	-5.791452	-0.533192
C	1.411364	-4.803786	1.182482
H	1.870845	-6.821518	1.567483
C	-0.409419	-4.378638	-0.345145
C	0.609565	-3.838032	0.510347
C	-1.210332	-3.413062	-1.016449
C	0.830799	-2.426473	0.696879
C	-0.999856	-2.059348	-0.839039
C	0.000000	-1.478216	0.000000
H	-1.673483	-1.394783	-1.403737
C	-1.736282	-6.187987	-1.461835
C	-2.306183	-3.798164	-1.936119
N	-2.491597	-5.170003	-2.093916
C	2.510310	-4.424987	2.104529
C	1.936153	-2.036627	1.625377
N	2.691451	-3.049156	2.257873
O	-2.034222	-7.353131	-1.715561
O	-3.014044	-2.986854	-2.528858
O	3.209622	-5.248946	2.690385
O	2.251529	-0.878829	1.891876
C	-3.573032	-5.563799	-3.002711
H	-3.606932	-6.664085	-3.032655
H	-3.382888	-5.147101	-4.010326
H	-4.533125	-5.148785	-2.640711
C	3.756832	-2.587487	3.152408
H	4.249778	-3.483329	3.564653
H	3.328759	-1.964972	3.960905
H	4.477709	-1.962932	2.591422
H	0.055524	-7.822318	0.044245
C	0.000000	0.000000	0.000000
S	0.509686	0.607733	1.580530
C	1.562368	1.862312	0.904911
C	0.641367	0.764613	-0.985400
C	1.489926	1.776040	-0.493528
H	0.489914	0.584081	-2.059934
H	2.056124	2.450920	-1.152593
H	2.128395	2.537007	1.556025
$end

$rem
JOBTYPE		SP
EXCHANGE	HF
CORRELATION	pRIMP2
BASIS		cc-pvtz
METHOD		rimp2
AUX_BASIS	rimp2-cc-pvtz
SOLVENT_METHOD	PCM
PURECART	11111
SYMMETRY	false
MEM_TOTAL	110000
SCF_CONVERGENCE = 6
THRESH=10
GUI = 2
$end

$solvent
dielectric 4.90
$end
--------------------------------------------------------------

             Standard Nuclear Orientation (Angstroms)
    I     Atom           X                Y                Z
 ----------------------------------------------------------------
    1      C       0.1977670000    -6.7414040000     0.1640180000
    2      C       1.1981090000    -6.1556380000     1.0032400000
    3      C      -0.6324280000    -5.7914520000    -0.5331920000
    4      C       1.4113640000    -4.8037860000     1.1824820000
    5      H       1.8708450000    -6.8215180000     1.5674830000
    6      C      -0.4094190000    -4.3786380000    -0.3451450000
    7      C       0.6095650000    -3.8380320000     0.5103470000
    8      C      -1.2103320000    -3.4130620000    -1.0164490000
    9      C       0.8307990000    -2.4264730000     0.6968790000
   10      C      -0.9998560000    -2.0593480000    -0.8390390000
   11      C       0.0000000000    -1.4782160000     0.0000000000
   12      H      -1.6734830000    -1.3947830000    -1.4037370000
   13      C      -1.7362820000    -6.1879870000    -1.4618350000
   14      C      -2.3061830000    -3.7981640000    -1.9361190000
   15      N      -2.4915970000    -5.1700030000    -2.0939160000
   16      C       2.5103100000    -4.4249870000     2.1045290000
   17      C       1.9361530000    -2.0366270000     1.6253770000
   18      N       2.6914510000    -3.0491560000     2.2578730000
   19      O      -2.0342220000    -7.3531310000    -1.7155610000
   20      O      -3.0140440000    -2.9868540000    -2.5288580000
   21      O       3.2096220000    -5.2489460000     2.6903850000
   22      O       2.2515290000    -0.8788290000     1.8918760000
   23      C      -3.5730320000    -5.5637990000    -3.0027110000
   24      H      -3.6069320000    -6.6640850000    -3.0326550000
   25      H      -3.3828880000    -5.1471010000    -4.0103260000
   26      H      -4.5331250000    -5.1487850000    -2.6407110000
   27      C       3.7568320000    -2.5874870000     3.1524080000
   28      H       4.2497780000    -3.4833290000     3.5646530000
   29      H       3.3287590000    -1.9649720000     3.9609050000
   30      H       4.4777090000    -1.9629320000     2.5914220000
   31      H       0.0555240000    -7.8223180000     0.0442450000
   32      C       0.0000000000     0.0000000000     0.0000000000
   33      S       0.5096860000     0.6077330000     1.5805300000
   34      C       1.5623680000     1.8623120000     0.9049110000
   35      C       0.6413670000     0.7646130000    -0.9854000000
   36      C       1.4899260000     1.7760400000    -0.4935280000
   37      H       0.4899140000     0.5840810000    -2.0599340000
   38      H       2.0561240000     2.4509200000    -1.1525930000
   39      H       2.1283950000     2.5370070000     1.5560250000
 ----------------------------------------------------------------

   11   -1570.6210605386      4.84e-07  Convergence criterion met
 Total energy in the final basis set =    -1570.6210605386
        RIMP2         total energy =     -1575.2666281069 a.u.

                    Orbital Energies (a.u.)
 --------------------------------------------------------------

 Alpha MOs
 -- Occupied --
-91.9808 -20.5583 -20.5558 -20.5538 -20.5503 -15.6307 -15.6303 -11.3996
-11.3955 -11.3913 -11.3898 -11.3165 -11.3018 -11.2999 -11.2981 -11.2948
-11.2944 -11.2870 -11.2849 -11.2834 -11.2790 -11.2736 -11.2730 -11.2648
-11.2643 -11.2631 -11.2451  -8.9810  -6.6612  -6.6610  -6.6605  -1.4266
 -1.4244  -1.4048  -1.4038  -1.2675  -1.2654  -1.2159  -1.1746  -1.1416
 -1.1154  -1.0604  -1.0480  -0.9923  -0.9879  -0.9829  -0.9586  -0.9471
 -0.8956  -0.8790  -0.8737  -0.8612  -0.7906  -0.7767  -0.7740  -0.7589
 -0.7329  -0.7203  -0.7033  -0.6929  -0.6841  -0.6722  -0.6658  -0.6620
 -0.6563  -0.6438  -0.6381  -0.6358  -0.6279  -0.6122  -0.5853  -0.5825
 -0.5762  -0.5710  -0.5691  -0.5645  -0.5627  -0.5555  -0.5544  -0.5483
 -0.5368  -0.5244  -0.5204  -0.5085  -0.4805  -0.4701  -0.4629  -0.4569
 -0.4549  -0.4459  -0.4262  -0.4181  -0.4083  -0.3633  -0.3354  -0.3136
 -0.3074

          Ground-State Mulliken Net Atomic Charges

     Atom                 Charge (a.u.)
  ----------------------------------------
      1 C                    -0.143850
      2 C                    -0.107505
      3 C                    -0.035007
      4 C                    -0.004608
      5 H                     0.187926
      6 C                    -0.012978
      7 C                     0.075034
      8 C                     0.009340
      9 C                    -0.076891
     10 C                    -0.156284
     11 C                     0.101220
     12 H                     0.180039
     13 C                     0.360848
     14 C                     0.364775
     15 N                    -0.101318
     16 C                     0.357656
     17 C                     0.419004
     18 N                    -0.093487
     19 O                    -0.464592
     20 O                    -0.476194
     21 O                    -0.482793
     22 O                    -0.459480
     23 C                    -0.201192
     24 H                     0.140959
     25 H                     0.112055
     26 H                     0.112359
     27 C                    -0.196725
     28 H                     0.134390
     29 H                     0.112450
     30 H                     0.112152
     31 H                     0.212746
     32 C                    -0.097476
     33 S                     0.054087
     34 C                    -0.153468
     35 C                    -0.133777
     36 C                    -0.240026
     37 H                     0.192591
     38 H                     0.189085
     39 H                     0.208935
  ----------------------------------------
  Sum of atomic charges =     0.000000

                    Cartesian Multipole Moments
 -----------------------------------------------------------------
    Charge (ESU x 10^10)
                 0.0000
    Dipole Moment (Debye)
         X       2.2692      Y       1.1622      Z      -0.2888
       Tot       2.5658
    Quadrupole Moments (Debye-Ang)
        XX    -170.7868     XY       5.8462     YY    -174.2427
        XZ      -8.0112     YZ       0.2343     ZZ    -164.9743

 Total job time:  266.37s(wall), 8209.69s(cpu)
        *  Thank you very much for using Q-Chem.  Have a nice day.  *
