 Q-Chem 5.4, Q-Chem, Inc., Pleasanton, CA (2021)
 Q-Chem 5.4.0 for Intel X86 EM64T Linux

User input:
--------------------------------------------------------------
$molecule
0 1
C	-0.129743	-6.741404	-0.221766
C	-0.782726	-6.155638	-1.352515
C	0.411926	-5.791452	0.717339
C	-0.921816	-4.803786	-1.593885
H	-1.221908	-6.821518	-2.112819
C	0.266682	-4.378638	0.464360
C	-0.398255	-3.838032	-0.688053
C	0.789694	-3.413062	1.369108
C	-0.542349	-2.426473	-0.939002
C	0.652589	-2.059348	1.130409
C	0.000000	-1.478216	0.000000
H	1.092453	-1.394783	1.891446
C	1.131595	-6.187987	1.967519
C	1.504912	-3.798164	2.608118
N	1.625174	-5.170003	2.819813
C	-1.639129	-4.424987	-2.836188
C	-1.263477	-2.036627	-2.189558
N	-1.756898	-3.049156	-3.042237
O	1.324787	-7.353131	2.307845
O	1.967354	-2.986854	3.407213
O	-2.095892	-5.248946	-3.625890
O	-1.468685	-0.878829	-2.547850
C	2.330564	-5.563799	4.043674
H	2.352178	-6.664085	4.083407
H	1.807263	-5.147101	4.925490
H	3.356568	-5.148785	4.031877
C	-2.452080	-2.587487	-4.247206
H	-2.774302	-3.483329	-4.803187
H	-1.773301	-1.964972	-4.860536
H	-3.321351	-1.962932	-3.966607
H	-0.037043	-7.822318	-0.060567
C	0.000000	0.000000	0.000000
S	0.509686	0.607733	1.580530
C	1.562368	1.862312	0.904911
C	0.641367	0.764613	-0.985400
C	1.489926	1.776040	-0.493528
H	0.489914	0.584081	-2.059934
H	2.056124	2.450920	-1.152593
H	2.128395	2.537007	1.556025
$end

$rem
JOBTYPE		SP
EXCHANGE	HF
CORRELATION	pRIMP2
BASIS		cc-pvtz
METHOD		rimp2
AUX_BASIS	rimp2-cc-pvtz
SOLVENT_METHOD	PCM
PURECART	11111
SYMMETRY	false
MEM_TOTAL	110000
SCF_CONVERGENCE = 6
THRESH=10
GUI = 2
$end

$solvent
dielectric 4.90
$end
--------------------------------------------------------------

             Standard Nuclear Orientation (Angstroms)
    I     Atom           X                Y                Z
 ----------------------------------------------------------------
    1      C      -0.1297430000    -6.7414040000    -0.2217660000
    2      C      -0.7827260000    -6.1556380000    -1.3525150000
    3      C       0.4119260000    -5.7914520000     0.7173390000
    4      C      -0.9218160000    -4.8037860000    -1.5938850000
    5      H      -1.2219080000    -6.8215180000    -2.1128190000
    6      C       0.2666820000    -4.3786380000     0.4643600000
    7      C      -0.3982550000    -3.8380320000    -0.6880530000
    8      C       0.7896940000    -3.4130620000     1.3691080000
    9      C      -0.5423490000    -2.4264730000    -0.9390020000
   10      C       0.6525890000    -2.0593480000     1.1304090000
   11      C       0.0000000000    -1.4782160000     0.0000000000
   12      H       1.0924530000    -1.3947830000     1.8914460000
   13      C       1.1315950000    -6.1879870000     1.9675190000
   14      C       1.5049120000    -3.7981640000     2.6081180000
   15      N       1.6251740000    -5.1700030000     2.8198130000
   16      C      -1.6391290000    -4.4249870000    -2.8361880000
   17      C      -1.2634770000    -2.0366270000    -2.1895580000
   18      N      -1.7568980000    -3.0491560000    -3.0422370000
   19      O       1.3247870000    -7.3531310000     2.3078450000
   20      O       1.9673540000    -2.9868540000     3.4072130000
   21      O      -2.0958920000    -5.2489460000    -3.6258900000
   22      O      -1.4686850000    -0.8788290000    -2.5478500000
   23      C       2.3305640000    -5.5637990000     4.0436740000
   24      H       2.3521780000    -6.6640850000     4.0834070000
   25      H       1.8072630000    -5.1471010000     4.9254900000
   26      H       3.3565680000    -5.1487850000     4.0318770000
   27      C      -2.4520800000    -2.5874870000    -4.2472060000
   28      H      -2.7743020000    -3.4833290000    -4.8031870000
   29      H      -1.7733010000    -1.9649720000    -4.8605360000
   30      H      -3.3213510000    -1.9629320000    -3.9666070000
   31      H      -0.0370430000    -7.8223180000    -0.0605670000
   32      C       0.0000000000     0.0000000000     0.0000000000
   33      S       0.5096860000     0.6077330000     1.5805300000
   34      C       1.5623680000     1.8623120000     0.9049110000
   35      C       0.6413670000     0.7646130000    -0.9854000000
   36      C       1.4899260000     1.7760400000    -0.4935280000
   37      H       0.4899140000     0.5840810000    -2.0599340000
   38      H       2.0561240000     2.4509200000    -1.1525930000
   39      H       2.1283950000     2.5370070000     1.5560250000
 ----------------------------------------------------------------

   10   -1570.6543338589      8.94e-07  Convergence criterion met
 Total energy in the final basis set =    -1570.6543338589
        RIMP2         total energy =     -1575.2884115973 a.u.

                    Orbital Energies (a.u.)
 --------------------------------------------------------------

 Alpha MOs
 -- Occupied --
-91.9912 -20.5579 -20.5558 -20.5537 -20.5523 -15.6305 -15.6286 -11.3991
-11.3934 -11.3900 -11.3898 -11.3181 -11.3009 -11.2995 -11.2980 -11.2938
-11.2927 -11.2925 -11.2853 -11.2845 -11.2816 -11.2780 -11.2708 -11.2690
-11.2642 -11.2637 -11.2530  -8.9921  -6.6728  -6.6721  -6.6717  -1.4242
 -1.4220  -1.4035  -1.4010  -1.2663  -1.2633  -1.2160  -1.1843  -1.1418
 -1.1142  -1.0630  -1.0474  -0.9938  -0.9917  -0.9906  -0.9576  -0.9454
 -0.8956  -0.8773  -0.8761  -0.8583  -0.7968  -0.7799  -0.7715  -0.7631
 -0.7348  -0.7180  -0.7048  -0.6945  -0.6796  -0.6734  -0.6652  -0.6610
 -0.6550  -0.6416  -0.6354  -0.6316  -0.6268  -0.6123  -0.5873  -0.5859
 -0.5806  -0.5759  -0.5671  -0.5625  -0.5615  -0.5556  -0.5520  -0.5475
 -0.5413  -0.5256  -0.5222  -0.5025  -0.4821  -0.4675  -0.4658  -0.4611
 -0.4588  -0.4516  -0.4270  -0.4176  -0.4079  -0.3731  -0.3517  -0.3351
 -0.3031

          Ground-State Mulliken Net Atomic Charges

     Atom                 Charge (a.u.)
  ----------------------------------------
      1 C                    -0.147108
      2 C                    -0.108839
      3 C                    -0.028905
      4 C                    -0.004616
      5 H                     0.187731
      6 C                    -0.009863
      7 C                     0.073703
      8 C                     0.050330
      9 C                    -0.072337
     10 C                    -0.175590
     11 C                     0.053781
     12 H                     0.185632
     13 C                     0.357987
     14 C                     0.363407
     15 N                    -0.101075
     16 C                     0.357066
     17 C                     0.362583
     18 N                    -0.094571
     19 O                    -0.464867
     20 O                    -0.478055
     21 O                    -0.484381
     22 O                    -0.474412
     23 C                    -0.201490
     24 H                     0.141010
     25 H                     0.112289
     26 H                     0.112083
     27 C                    -0.197644
     28 H                     0.133623
     29 H                     0.111397
     30 H                     0.112896
     31 H                     0.212064
     32 C                    -0.047593
     33 S                     0.017292
     34 C                    -0.146439
     35 C                    -0.077023
     36 C                    -0.248409
     37 H                     0.207659
     38 H                     0.193379
     39 H                     0.217309
  ----------------------------------------
  Sum of atomic charges =     0.000000

                    Cartesian Multipole Moments
 -----------------------------------------------------------------
    Charge (ESU x 10^10)
                 0.0000
    Dipole Moment (Debye)
         X       2.1957      Y       2.2717      Z      -0.4912
       Tot       3.1973
    Quadrupole Moments (Debye-Ang)
        XX    -164.1542     XY       5.9485     YY    -174.5378
        XZ      -8.6985     YZ       0.3500     ZZ    -173.1822

 Total job time:  247.12s(wall), 7751.53s(cpu)
        *  Thank you very much for using Q-Chem.  Have a nice day.  *
