 Q-Chem 5.4, Q-Chem, Inc., Pleasanton, CA (2021)
 Q-Chem 5.4.0 for Intel X86 EM64T Linux

User input:
--------------------------------------------------------------
$molecule
0 1
C	-0.241938	-6.741404	-0.086486
C	-1.468983	-6.155638	-0.532960
C	0.776651	-5.791452	0.284733
C	-1.730681	-4.803786	-0.628455
H	-2.294130	-6.821518	-0.833086
C	0.502775	-4.378638	0.184300
C	-0.747353	-3.838032	-0.271086
C	1.484986	-3.413062	0.541191
C	-1.019042	-2.426473	-0.370703
C	1.226525	-2.059348	0.446468
C	0.000000	-1.478216	0.000000
H	2.052666	-1.394783	0.746717
C	2.131549	-6.187987	0.779832
C	2.829295	-3.798164	1.030596
N	3.057496	-5.170003	1.115461
C	-3.078712	-4.424987	-1.119034
C	-2.375300	-2.036627	-0.865151
N	-3.301374	-3.049156	-1.201176
O	2.498300	-7.353131	0.916355
O	3.697195	-2.986854	1.345486
O	-3.936224	-5.248946	-1.430379
O	-2.762805	-0.878829	-1.007714
C	4.384539	-5.563799	1.599576
H	4.426636	-6.664085	1.616121
H	4.550487	-5.147101	2.611458
H	5.162921	-5.148785	0.931037
C	-4.608454	-2.587487	-1.677382
H	-5.212668	-3.483329	-1.896168
H	-4.482719	-1.964972	-2.583531
H	-5.093988	-1.962932	-0.903674
H	-0.067309	-7.822318	-0.022586
C	0.000000	0.000000	0.000000
S	0.205093	0.766196	1.580530
C	0.628939	2.348114	0.904911
C	0.258137	0.964028	-0.985400
C	0.599745	2.239309	-0.493528
H	0.197169	0.736404	-2.059934
H	0.827678	3.090243	-1.152593
H	0.856796	3.198808	1.556025
$end

$rem
JOBTYPE		SP
EXCHANGE	HF
CORRELATION	pRIMP2
BASIS		cc-pvtz
METHOD		rimp2
AUX_BASIS	rimp2-cc-pvtz
SOLVENT_METHOD	PCM
PURECART	11111
SYMMETRY	false
MEM_TOTAL	110000
SCF_CONVERGENCE = 6
THRESH=10
GUI = 2
$end

$solvent
dielectric 4.90
$end
--------------------------------------------------------------

             Standard Nuclear Orientation (Angstroms)
    I     Atom           X                Y                Z
 ----------------------------------------------------------------
    1      C      -0.2419380000    -6.7414040000    -0.0864860000
    2      C      -1.4689830000    -6.1556380000    -0.5329600000
    3      C       0.7766510000    -5.7914520000     0.2847330000
    4      C      -1.7306810000    -4.8037860000    -0.6284550000
    5      H      -2.2941300000    -6.8215180000    -0.8330860000
    6      C       0.5027750000    -4.3786380000     0.1843000000
    7      C      -0.7473530000    -3.8380320000    -0.2710860000
    8      C       1.4849860000    -3.4130620000     0.5411910000
    9      C      -1.0190420000    -2.4264730000    -0.3707030000
   10      C       1.2265250000    -2.0593480000     0.4464680000
   11      C       0.0000000000    -1.4782160000     0.0000000000
   12      H       2.0526660000    -1.3947830000     0.7467170000
   13      C       2.1315490000    -6.1879870000     0.7798320000
   14      C       2.8292950000    -3.7981640000     1.0305960000
   15      N       3.0574960000    -5.1700030000     1.1154610000
   16      C      -3.0787120000    -4.4249870000    -1.1190340000
   17      C      -2.3753000000    -2.0366270000    -0.8651510000
   18      N      -3.3013740000    -3.0491560000    -1.2011760000
   19      O       2.4983000000    -7.3531310000     0.9163550000
   20      O       3.6971950000    -2.9868540000     1.3454860000
   21      O      -3.9362240000    -5.2489460000    -1.4303790000
   22      O      -2.7628050000    -0.8788290000    -1.0077140000
   23      C       4.3845390000    -5.5637990000     1.5995760000
   24      H       4.4266360000    -6.6640850000     1.6161210000
   25      H       4.5504870000    -5.1471010000     2.6114580000
   26      H       5.1629210000    -5.1487850000     0.9310370000
   27      C      -4.6084540000    -2.5874870000    -1.6773820000
   28      H      -5.2126680000    -3.4833290000    -1.8961680000
   29      H      -4.4827190000    -1.9649720000    -2.5835310000
   30      H      -5.0939880000    -1.9629320000    -0.9036740000
   31      H      -0.0673090000    -7.8223180000    -0.0225860000
   32      C       0.0000000000     0.0000000000     0.0000000000
   33      S       0.2050930000     0.7661960000     1.5805300000
   34      C       0.6289390000     2.3481140000     0.9049110000
   35      C       0.2581370000     0.9640280000    -0.9854000000
   36      C       0.5997450000     2.2393090000    -0.4935280000
   37      H       0.1971690000     0.7364040000    -2.0599340000
   38      H       0.8276780000     3.0902430000    -1.1525930000
   39      H       0.8567960000     3.1988080000     1.5560250000
 ----------------------------------------------------------------

   10   -1570.6883158695      6.99e-07  Convergence criterion met
 Total energy in the final basis set =    -1570.6883158695
        RIMP2         total energy =     -1575.3125253236 a.u.

                    Orbital Energies (a.u.)
 --------------------------------------------------------------

 Alpha MOs
 -- Occupied --
-91.9929 -20.5587 -20.5574 -20.5563 -20.5557 -15.6314 -15.6314 -11.4004
-11.3975 -11.3932 -11.3908 -11.3166 -11.3069 -11.3031 -11.3011 -11.2994
-11.2989 -11.2937 -11.2870 -11.2864 -11.2822 -11.2808 -11.2792 -11.2649
-11.2647 -11.2562 -11.2508  -8.9922  -6.6730  -6.6725  -6.6719  -1.4251
 -1.4246  -1.4043  -1.4037  -1.2679  -1.2656  -1.2184  -1.1763  -1.1445
 -1.1182  -1.0638  -1.0506  -0.9934  -0.9902  -0.9839  -0.9595  -0.9484
 -0.8978  -0.8798  -0.8785  -0.8611  -0.7963  -0.7780  -0.7734  -0.7598
 -0.7380  -0.7186  -0.7057  -0.6954  -0.6813  -0.6735  -0.6667  -0.6626
 -0.6573  -0.6426  -0.6380  -0.6342  -0.6305  -0.6130  -0.5859  -0.5847
 -0.5785  -0.5734  -0.5668  -0.5644  -0.5613  -0.5554  -0.5529  -0.5487
 -0.5372  -0.5271  -0.5213  -0.5142  -0.4839  -0.4710  -0.4674  -0.4624
 -0.4607  -0.4539  -0.4286  -0.4185  -0.4091  -0.3612  -0.3500  -0.3352
 -0.3190

          Ground-State Mulliken Net Atomic Charges

     Atom                 Charge (a.u.)
  ----------------------------------------
      1 C                    -0.130364
      2 C                    -0.108410
      3 C                    -0.043474
      4 C                    -0.000389
      5 H                     0.189027
      6 C                     0.001692
      7 C                     0.071932
      8 C                     0.001146
      9 C                    -0.011375
     10 C                    -0.108776
     11 C                     0.031464
     12 H                     0.190050
     13 C                     0.360796
     14 C                     0.364541
     15 N                    -0.101891
     16 C                     0.360181
     17 C                     0.348320
     18 N                    -0.098046
     19 O                    -0.464854
     20 O                    -0.476026
     21 O                    -0.479555
     22 O                    -0.458813
     23 C                    -0.201019
     24 H                     0.141031
     25 H                     0.112547
     26 H                     0.112487
     27 C                    -0.195752
     28 H                     0.133743
     29 H                     0.112844
     30 H                     0.113737
     31 H                     0.214564
     32 C                    -0.011863
     33 S                     0.027721
     34 C                    -0.210817
     35 C                    -0.179583
     36 C                    -0.198530
     37 H                     0.188321
     38 H                     0.191994
     39 H                     0.211400
  ----------------------------------------
  Sum of atomic charges =     0.000000

                    Cartesian Multipole Moments
 -----------------------------------------------------------------
    Charge (ESU x 10^10)
                 0.0000
    Dipole Moment (Debye)
         X       0.5333      Y       0.8043      Z      -0.9572
       Tot       1.3592
    Quadrupole Moments (Debye-Ang)
        XX    -181.2453     XY       3.8697     YY    -164.7334
        XZ      -6.3612     YZ       1.1339     ZZ    -159.8399

 Total job time:  359.31s(wall), 12968.69s(cpu)
        *  Thank you very much for using Q-Chem.  Have a nice day.  *
