 Q-Chem 5.4, Q-Chem, Inc., Pleasanton, CA (2021)
 Q-Chem 5.4.0 for Intel X86 EM64T Linux

User input:
--------------------------------------------------------------
$molecule
0 1
C	0.223244	-6.741404	0.127184
C	1.354118	-6.155638	0.779949
C	-0.715408	-5.791452	-0.415271
C	1.595259	-4.803786	0.919437
H	2.114613	-6.821518	1.218801
C	-0.463133	-4.378638	-0.268806
C	0.688925	-3.838032	0.396744
C	-1.368449	-3.413062	-0.790835
C	0.939189	-2.426473	0.542026
C	-1.130363	-2.059348	-0.652669
C	-0.000000	-1.478216	-0.000000
H	-1.891815	-1.394783	-1.091814
C	-1.963749	-6.187987	-1.138124
C	-2.607351	-3.798164	-1.506241
N	-2.817348	-5.170003	-1.629443
C	2.837621	-4.424987	1.636646
C	2.188982	-2.036627	1.264474
N	3.042637	-3.049156	1.756205
O	-2.301222	-7.353131	-1.336258
O	-3.407386	-2.986854	-1.967056
O	3.628041	-5.248946	2.092167
O	2.545844	-0.878829	1.472160
C	-4.040164	-5.563799	-2.336642
H	-4.078749	-6.664085	-2.360245
H	-4.027880	-5.147101	-3.361968
H	-4.922811	-5.148785	-1.813424
C	4.247167	-2.587487	2.452149
H	4.804209	-3.483329	2.772531
H	3.965991	-1.964972	3.322697
H	4.859678	-1.962932	1.774507
H	0.062364	-7.822318	0.033931
C	0.000000	0.000000	0.000000
S	0.607475	0.509994	1.580530
C	1.862020	1.562717	0.904911
C	0.764397	0.641624	-0.985400
C	1.775697	1.490335	-0.493528
H	0.583895	0.490135	-2.059934
H	2.450484	2.056643	-1.152593
H	2.536607	2.128872	1.556025
$end

$rem
JOBTYPE		SP
EXCHANGE	HF
CORRELATION	pRIMP2
BASIS		cc-pvtz
METHOD		rimp2
AUX_BASIS	rimp2-cc-pvtz
SOLVENT_METHOD	PCM
PURECART	11111
SYMMETRY	false
MEM_TOTAL	110000
SCF_CONVERGENCE = 6
THRESH=10
GUI = 2
$end

$solvent
dielectric 4.90
$end
--------------------------------------------------------------

             Standard Nuclear Orientation (Angstroms)
    I     Atom           X                Y                Z
 ----------------------------------------------------------------
    1      C       0.2232440000    -6.7414040000     0.1271840000
    2      C       1.3541180000    -6.1556380000     0.7799490000
    3      C      -0.7154080000    -5.7914520000    -0.4152710000
    4      C       1.5952590000    -4.8037860000     0.9194370000
    5      H       2.1146130000    -6.8215180000     1.2188010000
    6      C      -0.4631330000    -4.3786380000    -0.2688060000
    7      C       0.6889250000    -3.8380320000     0.3967440000
    8      C      -1.3684490000    -3.4130620000    -0.7908350000
    9      C       0.9391890000    -2.4264730000     0.5420260000
   10      C      -1.1303630000    -2.0593480000    -0.6526690000
   11      C       0.0000000000    -1.4782160000     0.0000000000
   12      H      -1.8918150000    -1.3947830000    -1.0918140000
   13      C      -1.9637490000    -6.1879870000    -1.1381240000
   14      C      -2.6073510000    -3.7981640000    -1.5062410000
   15      N      -2.8173480000    -5.1700030000    -1.6294430000
   16      C       2.8376210000    -4.4249870000     1.6366460000
   17      C       2.1889820000    -2.0366270000     1.2644740000
   18      N       3.0426370000    -3.0491560000     1.7562050000
   19      O      -2.3012220000    -7.3531310000    -1.3362580000
   20      O      -3.4073860000    -2.9868540000    -1.9670560000
   21      O       3.6280410000    -5.2489460000     2.0921670000
   22      O       2.5458440000    -0.8788290000     1.4721600000
   23      C      -4.0401640000    -5.5637990000    -2.3366420000
   24      H      -4.0787490000    -6.6640850000    -2.3602450000
   25      H      -4.0278800000    -5.1471010000    -3.3619680000
   26      H      -4.9228110000    -5.1487850000    -1.8134240000
   27      C       4.2471670000    -2.5874870000     2.4521490000
   28      H       4.8042090000    -3.4833290000     2.7725310000
   29      H       3.9659910000    -1.9649720000     3.3226970000
   30      H       4.8596780000    -1.9629320000     1.7745070000
   31      H       0.0623640000    -7.8223180000     0.0339310000
   32      C       0.0000000000     0.0000000000     0.0000000000
   33      S       0.6074750000     0.5099940000     1.5805300000
   34      C       1.8620200000     1.5627170000     0.9049110000
   35      C       0.7643970000     0.6416240000    -0.9854000000
   36      C       1.7756970000     1.4903350000    -0.4935280000
   37      H       0.5838950000     0.4901350000    -2.0599340000
   38      H       2.4504840000     2.0566430000    -1.1525930000
   39      H       2.5366070000     2.1288720000     1.5560250000
 ----------------------------------------------------------------

   11   -1570.6098280675      5.42e-07  Convergence criterion met
 Total energy in the final basis set =    -1570.6098280675
        RIMP2         total energy =     -1575.2565072295 a.u.

                    Orbital Energies (a.u.)
 --------------------------------------------------------------

 Alpha MOs
 -- Occupied --
-91.9769 -20.5578 -20.5551 -20.5526 -20.5484 -15.6301 -15.6287 -11.3990
-11.3920 -11.3901 -11.3890 -11.3147 -11.3010 -11.2985 -11.2957 -11.2937
-11.2936 -11.2921 -11.2833 -11.2825 -11.2782 -11.2706 -11.2701 -11.2663
-11.2644 -11.2639 -11.2464  -8.9776  -6.6580  -6.6574  -6.6573  -1.4243
 -1.4238  -1.4032  -1.4031  -1.2663  -1.2642  -1.2151  -1.1773  -1.1407
 -1.1141  -1.0597  -1.0466  -0.9916  -0.9872  -0.9847  -0.9579  -0.9472
 -0.8946  -0.8779  -0.8710  -0.8595  -0.7893  -0.7762  -0.7725  -0.7603
 -0.7331  -0.7186  -0.7033  -0.6932  -0.6819  -0.6710  -0.6649  -0.6611
 -0.6554  -0.6457  -0.6369  -0.6350  -0.6270  -0.6108  -0.5855  -0.5822
 -0.5746  -0.5745  -0.5671  -0.5637  -0.5596  -0.5549  -0.5535  -0.5478
 -0.5383  -0.5239  -0.5189  -0.5012  -0.4789  -0.4700  -0.4619  -0.4559
 -0.4527  -0.4389  -0.4263  -0.4181  -0.4075  -0.3571  -0.3339  -0.3274
 -0.3072

          Ground-State Mulliken Net Atomic Charges

     Atom                 Charge (a.u.)
  ----------------------------------------
      1 C                    -0.144512
      2 C                    -0.108952
      3 C                    -0.035311
      4 C                    -0.001052
      5 H                     0.187515
      6 C                    -0.013755
      7 C                     0.072221
      8 C                     0.008589
      9 C                    -0.065880
     10 C                    -0.146785
     11 C                     0.088606
     12 H                     0.179321
     13 C                     0.360407
     14 C                     0.364429
     15 N                    -0.101218
     16 C                     0.354842
     17 C                     0.404415
     18 N                    -0.092028
     19 O                    -0.465150
     20 O                    -0.476458
     21 O                    -0.484727
     22 O                    -0.462443
     23 C                    -0.201410
     24 H                     0.140815
     25 H                     0.111943
     26 H                     0.112291
     27 C                    -0.196924
     28 H                     0.134419
     29 H                     0.111651
     30 H                     0.111135
     31 H                     0.212458
     32 C                    -0.121272
     33 S                     0.020159
     34 C                    -0.092654
     35 C                    -0.104197
     36 C                    -0.247616
     37 H                     0.192252
     38 H                     0.188004
     39 H                     0.206875
  ----------------------------------------
  Sum of atomic charges =     0.000000

                    Cartesian Multipole Moments
 -----------------------------------------------------------------
    Charge (ESU x 10^10)
                 0.0000
    Dipole Moment (Debye)
         X       2.9059      Y       1.4251      Z      -0.6654
       Tot       3.3042
    Quadrupole Moments (Debye-Ang)
        XX    -171.7980     XY       6.4141     YY    -177.4804
        XZ      -7.0530     YZ       0.1782     ZZ    -162.1569

 Total job time:  285.90s(wall), 8674.16s(cpu)
        *  Thank you very much for using Q-Chem.  Have a nice day.  *
