 Q-Chem 5.4, Q-Chem, Inc., Pleasanton, CA (2021)
 Q-Chem 5.4.0 for Intel X86 EM64T Linux

User input:
--------------------------------------------------------------
$molecule
0 1
C	0.164018	-6.741404	-0.197767
C	1.003240	-6.155638	-1.198109
C	-0.533192	-5.791452	0.632428
C	1.182482	-4.803786	-1.411364
H	1.567483	-6.821518	-1.870845
C	-0.345145	-4.378638	0.409419
C	0.510347	-3.838032	-0.609565
C	-1.016449	-3.413062	1.210332
C	0.696879	-2.426473	-0.830799
C	-0.839039	-2.059348	0.999856
C	-0.000000	-1.478216	-0.000000
H	-1.403737	-1.394783	1.673483
C	-1.461835	-6.187987	1.736282
C	-1.936119	-3.798164	2.306183
N	-2.093916	-5.170003	2.491597
C	2.104529	-4.424987	-2.510310
C	1.625377	-2.036627	-1.936153
N	2.257873	-3.049156	-2.691451
O	-1.715561	-7.353131	2.034222
O	-2.528858	-2.986854	3.014044
O	2.690385	-5.248946	-3.209622
O	1.891876	-0.878829	-2.251529
C	-3.002711	-5.563799	3.573032
H	-3.032655	-6.664085	3.606932
H	-4.010326	-5.147101	3.382888
H	-2.640711	-5.148785	4.533125
C	3.152408	-2.587487	-3.756832
H	3.564653	-3.483329	-4.249778
H	3.960905	-1.964972	-3.328759
H	2.591422	-1.962932	-4.477709
H	0.044245	-7.822318	-0.055524
C	0.000000	0.000000	0.000000
S	0.271091	0.745405	1.580530
C	0.831198	2.284363	0.904911
C	0.341175	0.937861	-0.985400
C	0.792631	2.178516	-0.493528
H	0.260601	0.716417	-2.059934
H	1.093860	3.006347	-1.152593
H	1.132330	3.111961	1.556025
$end

$rem
JOBTYPE		SP
EXCHANGE	HF
CORRELATION	pRIMP2
BASIS		cc-pvtz
METHOD		rimp2
AUX_BASIS	rimp2-cc-pvtz
SOLVENT_METHOD	PCM
PURECART	11111
SYMMETRY	false
MEM_TOTAL	110000
SCF_CONVERGENCE = 6
THRESH=10
GUI = 2
$end

$solvent
dielectric 4.90
$end
--------------------------------------------------------------

             Standard Nuclear Orientation (Angstroms)
    I     Atom           X                Y                Z
 ----------------------------------------------------------------
    1      C       0.1640180000    -6.7414040000    -0.1977670000
    2      C       1.0032400000    -6.1556380000    -1.1981090000
    3      C      -0.5331920000    -5.7914520000     0.6324280000
    4      C       1.1824820000    -4.8037860000    -1.4113640000
    5      H       1.5674830000    -6.8215180000    -1.8708450000
    6      C      -0.3451450000    -4.3786380000     0.4094190000
    7      C       0.5103470000    -3.8380320000    -0.6095650000
    8      C      -1.0164490000    -3.4130620000     1.2103320000
    9      C       0.6968790000    -2.4264730000    -0.8307990000
   10      C      -0.8390390000    -2.0593480000     0.9998560000
   11      C       0.0000000000    -1.4782160000     0.0000000000
   12      H      -1.4037370000    -1.3947830000     1.6734830000
   13      C      -1.4618350000    -6.1879870000     1.7362820000
   14      C      -1.9361190000    -3.7981640000     2.3061830000
   15      N      -2.0939160000    -5.1700030000     2.4915970000
   16      C       2.1045290000    -4.4249870000    -2.5103100000
   17      C       1.6253770000    -2.0366270000    -1.9361530000
   18      N       2.2578730000    -3.0491560000    -2.6914510000
   19      O      -1.7155610000    -7.3531310000     2.0342220000
   20      O      -2.5288580000    -2.9868540000     3.0140440000
   21      O       2.6903850000    -5.2489460000    -3.2096220000
   22      O       1.8918760000    -0.8788290000    -2.2515290000
   23      C      -3.0027110000    -5.5637990000     3.5730320000
   24      H      -3.0326550000    -6.6640850000     3.6069320000
   25      H      -4.0103260000    -5.1471010000     3.3828880000
   26      H      -2.6407110000    -5.1487850000     4.5331250000
   27      C       3.1524080000    -2.5874870000    -3.7568320000
   28      H       3.5646530000    -3.4833290000    -4.2497780000
   29      H       3.9609050000    -1.9649720000    -3.3287590000
   30      H       2.5914220000    -1.9629320000    -4.4777090000
   31      H       0.0442450000    -7.8223180000    -0.0555240000
   32      C       0.0000000000     0.0000000000     0.0000000000
   33      S       0.2710910000     0.7454050000     1.5805300000
   34      C       0.8311980000     2.2843630000     0.9049110000
   35      C       0.3411750000     0.9378610000    -0.9854000000
   36      C       0.7926310000     2.1785160000    -0.4935280000
   37      H       0.2606010000     0.7164170000    -2.0599340000
   38      H       1.0938600000     3.0063470000    -1.1525930000
   39      H       1.1323300000     3.1119610000     1.5560250000
 ----------------------------------------------------------------

   10   -1570.6824548199      8.08e-07  Convergence criterion met
 Total energy in the final basis set =    -1570.6824548199
        RIMP2         total energy =     -1575.3097792898 a.u.

                    Orbital Energies (a.u.)
 --------------------------------------------------------------

 Alpha MOs
 -- Occupied --
-91.9938 -20.5583 -20.5560 -20.5539 -20.5529 -15.6309 -15.6299 -11.3997
-11.3952 -11.3915 -11.3903 -11.3172 -11.3020 -11.3005 -11.2995 -11.2960
-11.2952 -11.2904 -11.2863 -11.2848 -11.2840 -11.2792 -11.2772 -11.2645
-11.2643 -11.2587 -11.2505  -8.9932  -6.6740  -6.6735  -6.6729  -1.4246
 -1.4233  -1.4039  -1.4024  -1.2670  -1.2646  -1.2165  -1.1764  -1.1438
 -1.1162  -1.0627  -1.0489  -0.9923  -0.9896  -0.9857  -0.9586  -0.9478
 -0.8962  -0.8789  -0.8767  -0.8609  -0.7953  -0.7771  -0.7724  -0.7615
 -0.7363  -0.7185  -0.7044  -0.6937  -0.6807  -0.6725  -0.6659  -0.6617
 -0.6558  -0.6414  -0.6364  -0.6330  -0.6282  -0.6122  -0.5875  -0.5838
 -0.5773  -0.5746  -0.5651  -0.5621  -0.5606  -0.5552  -0.5517  -0.5476
 -0.5355  -0.5248  -0.5218  -0.5184  -0.4825  -0.4700  -0.4647  -0.4632
 -0.4590  -0.4524  -0.4279  -0.4180  -0.4087  -0.3706  -0.3513  -0.3361
 -0.3039

          Ground-State Mulliken Net Atomic Charges

     Atom                 Charge (a.u.)
  ----------------------------------------
      1 C                    -0.141378
      2 C                    -0.108480
      3 C                    -0.037890
      4 C                    -0.005974
      5 H                     0.188139
      6 C                    -0.011151
      7 C                     0.081015
      8 C                     0.026394
      9 C                    -0.041596
     10 C                    -0.188014
     11 C                     0.121412
     12 H                     0.175675
     13 C                     0.360865
     14 C                     0.366626
     15 N                    -0.101321
     16 C                     0.359630
     17 C                     0.372947
     18 N                    -0.092970
     19 O                    -0.464564
     20 O                    -0.476047
     21 O                    -0.482507
     22 O                    -0.470172
     23 C                    -0.201043
     24 H                     0.140993
     25 H                     0.112350
     26 H                     0.112406
     27 C                    -0.197044
     28 H                     0.134057
     29 H                     0.112958
     30 H                     0.111835
     31 H                     0.213108
     32 C                    -0.074811
     33 S                     0.037910
     34 C                    -0.197406
     35 C                    -0.133179
     36 C                    -0.201132
     37 H                     0.191852
     38 H                     0.191580
     39 H                     0.214925
  ----------------------------------------
  Sum of atomic charges =     0.000000

                    Cartesian Multipole Moments
 -----------------------------------------------------------------
    Charge (ESU x 10^10)
                 0.0000
    Dipole Moment (Debye)
         X       0.8351      Y       1.9443      Z      -0.9951
       Tot       2.3383
    Quadrupole Moments (Debye-Ang)
        XX    -171.3243     XY       3.8943     YY    -168.5127
        XZ      10.5903     YZ       0.7814     ZZ    -169.6680

 Total job time:  259.39s(wall), 8164.49s(cpu)
        *  Thank you very much for using Q-Chem.  Have a nice day.  *
