 Q-Chem 5.4, Q-Chem, Inc., Pleasanton, CA (2021)
 Q-Chem 5.4.0 for Intel X86 EM64T Linux

User input:
--------------------------------------------------------------
$molecule
0 1
C	0.046070	-6.741404	0.252767
C	0.272935	-6.155638	1.538656
C	-0.141739	-5.791452	-0.814966
C	0.321083	-4.803786	1.813042
H	0.425592	-6.821518	2.403318
C	-0.091779	-4.378638	-0.527566
C	0.138909	-3.838032	0.782769
C	-0.273808	-3.413062	-1.556632
C	0.188483	-2.426473	1.067868
C	-0.226610	-2.059348	-1.285436
C	-0.000000	-1.478216	-0.000000
H	-0.379657	-1.394783	-2.151019
C	-0.390420	-6.187987	-2.235891
C	-0.522125	-3.798164	-2.965540
N	-0.562731	-5.170003	-3.205600
C	0.570244	-4.424987	3.225760
C	0.438407	-2.036627	2.489646
N	0.610438	-3.049156	3.459662
O	-0.455563	-7.353131	-2.621768
O	-0.683373	-2.986854	-3.874608
O	0.729367	-5.248946	4.124059
O	0.508697	-0.878829	2.896516
C	-0.806996	-5.563799	-4.596910
H	-0.813717	-6.664085	-4.641640
H	-0.013655	-5.147101	-5.246567
H	-1.775159	-5.148785	-4.936739
C	0.851572	-2.587487	4.829729
H	0.964204	-3.483329	5.462387
H	0.003956	-1.964972	5.173914
H	1.764390	-1.962932	4.863360
H	0.014094	-7.822318	0.069584
C	0.000000	0.000000	0.000000
S	0.271091	0.745405	1.580530
C	0.831198	2.284363	0.904911
C	0.341175	0.937861	-0.985400
C	0.792631	2.178516	-0.493528
H	0.260601	0.716417	-2.059934
H	1.093860	3.006347	-1.152593
H	1.132330	3.111961	1.556025
$end

$rem
JOBTYPE		SP
EXCHANGE	HF
CORRELATION	pRIMP2
BASIS		cc-pvtz
METHOD		rimp2
AUX_BASIS	rimp2-cc-pvtz
SOLVENT_METHOD	PCM
PURECART	11111
SYMMETRY	false
MEM_TOTAL	110000
SCF_CONVERGENCE = 6
THRESH=10
GUI = 2
$end

$solvent
dielectric 4.90
$end
--------------------------------------------------------------

             Standard Nuclear Orientation (Angstroms)
    I     Atom           X                Y                Z
 ----------------------------------------------------------------
    1      C       0.0460700000    -6.7414040000     0.2527670000
    2      C       0.2729350000    -6.1556380000     1.5386560000
    3      C      -0.1417390000    -5.7914520000    -0.8149660000
    4      C       0.3210830000    -4.8037860000     1.8130420000
    5      H       0.4255920000    -6.8215180000     2.4033180000
    6      C      -0.0917790000    -4.3786380000    -0.5275660000
    7      C       0.1389090000    -3.8380320000     0.7827690000
    8      C      -0.2738080000    -3.4130620000    -1.5566320000
    9      C       0.1884830000    -2.4264730000     1.0678680000
   10      C      -0.2266100000    -2.0593480000    -1.2854360000
   11      C       0.0000000000    -1.4782160000     0.0000000000
   12      H      -0.3796570000    -1.3947830000    -2.1510190000
   13      C      -0.3904200000    -6.1879870000    -2.2358910000
   14      C      -0.5221250000    -3.7981640000    -2.9655400000
   15      N      -0.5627310000    -5.1700030000    -3.2056000000
   16      C       0.5702440000    -4.4249870000     3.2257600000
   17      C       0.4384070000    -2.0366270000     2.4896460000
   18      N       0.6104380000    -3.0491560000     3.4596620000
   19      O      -0.4555630000    -7.3531310000    -2.6217680000
   20      O      -0.6833730000    -2.9868540000    -3.8746080000
   21      O       0.7293670000    -5.2489460000     4.1240590000
   22      O       0.5086970000    -0.8788290000     2.8965160000
   23      C      -0.8069960000    -5.5637990000    -4.5969100000
   24      H      -0.8137170000    -6.6640850000    -4.6416400000
   25      H      -0.0136550000    -5.1471010000    -5.2465670000
   26      H      -1.7751590000    -5.1487850000    -4.9367390000
   27      C       0.8515720000    -2.5874870000     4.8297290000
   28      H       0.9642040000    -3.4833290000     5.4623870000
   29      H       0.0039560000    -1.9649720000     5.1739140000
   30      H       1.7643900000    -1.9629320000     4.8633600000
   31      H       0.0140940000    -7.8223180000     0.0695840000
   32      C       0.0000000000     0.0000000000     0.0000000000
   33      S       0.2710910000     0.7454050000     1.5805300000
   34      C       0.8311980000     2.2843630000     0.9049110000
   35      C       0.3411750000     0.9378610000    -0.9854000000
   36      C       0.7926310000     2.1785160000    -0.4935280000
   37      H       0.2606010000     0.7164170000    -2.0599340000
   38      H       1.0938600000     3.0063470000    -1.1525930000
   39      H       1.1323300000     3.1119610000     1.5560250000
 ----------------------------------------------------------------

   11   -1570.6275226238      4.44e-07  Convergence criterion met
 Total energy in the final basis set =    -1570.6275226238
        RIMP2         total energy =     -1575.2708111044 a.u.

                    Orbital Energies (a.u.)
 --------------------------------------------------------------

 Alpha MOs
 -- Occupied --
-91.9767 -20.5601 -20.5591 -20.5571 -20.5543 -15.6332 -15.6317 -11.4020
-11.4003 -11.3922 -11.3913 -11.3222 -11.3025 -11.3015 -11.2985 -11.2949
-11.2931 -11.2879 -11.2863 -11.2831 -11.2791 -11.2782 -11.2689 -11.2661
-11.2649 -11.2602 -11.2404  -8.9765  -6.6569  -6.6553  -6.6543  -1.4374
 -1.4254  -1.4088  -1.4048  -1.2712  -1.2669  -1.2172  -1.1720  -1.1419
 -1.1168  -1.0614  -1.0498  -0.9936  -0.9903  -0.9803  -0.9598  -0.9466
 -0.8983  -0.8809  -0.8781  -0.8640  -0.7931  -0.7797  -0.7778  -0.7590
 -0.7327  -0.7301  -0.7027  -0.6932  -0.6894  -0.6744  -0.6691  -0.6638
 -0.6578  -0.6417  -0.6392  -0.6369  -0.6273  -0.6149  -0.5851  -0.5831
 -0.5811  -0.5768  -0.5712  -0.5653  -0.5616  -0.5569  -0.5566  -0.5496
 -0.5331  -0.5256  -0.5224  -0.5184  -0.4887  -0.4718  -0.4694  -0.4636
 -0.4570  -0.4335  -0.4210  -0.4102  -0.3897  -0.3747  -0.3383  -0.3267
 -0.2946

          Ground-State Mulliken Net Atomic Charges

     Atom                 Charge (a.u.)
  ----------------------------------------
      1 C                    -0.149032
      2 C                    -0.111010
      3 C                    -0.028296
      4 C                    -0.004709
      5 H                     0.187839
      6 C                     0.000317
      7 C                     0.084206
      8 C                     0.001058
      9 C                    -0.102580
     10 C                    -0.137278
     11 C                     0.076292
     12 H                     0.183581
     13 C                     0.359745
     14 C                     0.363717
     15 N                    -0.101811
     16 C                     0.359285
     17 C                     0.392634
     18 N                    -0.092330
     19 O                    -0.463423
     20 O                    -0.476456
     21 O                    -0.482234
     22 O                    -0.430859
     23 C                    -0.201132
     24 H                     0.141287
     25 H                     0.112398
     26 H                     0.112454
     27 C                    -0.199522
     28 H                     0.135409
     29 H                     0.113859
     30 H                     0.113764
     31 H                     0.212280
     32 C                    -0.024664
     33 S                     0.096805
     34 C                    -0.220148
     35 C                    -0.148249
     36 C                    -0.247233
     37 H                     0.186156
     38 H                     0.182764
     39 H                     0.205119
  ----------------------------------------
  Sum of atomic charges =     0.000000

                    Cartesian Multipole Moments
 -----------------------------------------------------------------
    Charge (ESU x 10^10)
                 0.0000
    Dipole Moment (Debye)
         X       0.7774      Y       0.9577      Z       0.0803
       Tot       1.2361
    Quadrupole Moments (Debye-Ang)
        XX    -163.4814     XY       3.0687     YY    -172.1754
        XZ      -2.4030     YZ       0.2708     ZZ    -174.5901

 Total job time:  328.88s(wall), 9063.58s(cpu)
        *  Thank you very much for using Q-Chem.  Have a nice day.  *
