 Q-Chem 5.4, Q-Chem, Inc., Pleasanton, CA (2021)
 Q-Chem 5.4.0 for Intel X86 EM64T Linux

User input:
--------------------------------------------------------------
$molecule
0 1
C	-0.043160	-6.741404	0.253280
C	-0.269777	-6.155638	1.539213
C	0.145543	-5.791452	-0.814295
C	-0.318377	-4.803786	1.813519
H	-0.422058	-6.821518	2.403941
C	0.094194	-4.378638	-0.527140
C	-0.137191	-3.838032	0.783072
C	0.275104	-3.413062	-1.556403
C	-0.188116	-2.426473	1.067932
C	0.226701	-2.059348	-1.285420
C	0.000000	-1.478216	0.000000
H	0.378931	-1.394783	-2.151147
C	0.397845	-6.187987	-2.234582
C	0.523637	-3.798164	-2.965273
N	0.567586	-5.170003	-3.204744
C	-0.567421	-4.424987	3.226257
C	-0.439541	-2.036627	2.489446
N	-0.609650	-3.049156	3.459801
O	0.468608	-7.353131	-2.619468
O	0.683034	-2.986854	-3.874668
O	-0.725131	-5.248946	4.124806
O	-0.512648	-0.878829	2.895819
C	0.813908	-5.563799	-4.595691
H	0.822891	-6.664085	-4.640022
H	1.781600	-5.147101	-4.934830
H	0.020360	-5.148785	-5.246157
C	-0.851649	-2.587487	4.829716
H	-0.962191	-3.483329	5.462742
H	-1.765865	-1.964972	4.863242
H	-0.005383	-1.962932	5.173521
H	-0.010555	-7.822318	0.070208
C	0.000000	0.000000	0.000000
S	0.205093	0.766196	1.580530
C	0.628939	2.348114	0.904911
C	0.258137	0.964028	-0.985400
C	0.599745	2.239309	-0.493528
H	0.197169	0.736404	-2.059934
H	0.827678	3.090243	-1.152593
H	0.856796	3.198808	1.556025
$end

$rem
JOBTYPE		SP
EXCHANGE	HF
CORRELATION	pRIMP2
BASIS		cc-pvtz
METHOD		rimp2
AUX_BASIS	rimp2-cc-pvtz
SOLVENT_METHOD	PCM
PURECART	11111
SYMMETRY	false
MEM_TOTAL	110000
SCF_CONVERGENCE = 6
THRESH=10
GUI = 2
$end

$solvent
dielectric 4.90
$end
--------------------------------------------------------------

             Standard Nuclear Orientation (Angstroms)
    I     Atom           X                Y                Z
 ----------------------------------------------------------------
    1      C      -0.0431600000    -6.7414040000     0.2532800000
    2      C      -0.2697770000    -6.1556380000     1.5392130000
    3      C       0.1455430000    -5.7914520000    -0.8142950000
    4      C      -0.3183770000    -4.8037860000     1.8135190000
    5      H      -0.4220580000    -6.8215180000     2.4039410000
    6      C       0.0941940000    -4.3786380000    -0.5271400000
    7      C      -0.1371910000    -3.8380320000     0.7830720000
    8      C       0.2751040000    -3.4130620000    -1.5564030000
    9      C      -0.1881160000    -2.4264730000     1.0679320000
   10      C       0.2267010000    -2.0593480000    -1.2854200000
   11      C       0.0000000000    -1.4782160000     0.0000000000
   12      H       0.3789310000    -1.3947830000    -2.1511470000
   13      C       0.3978450000    -6.1879870000    -2.2345820000
   14      C       0.5236370000    -3.7981640000    -2.9652730000
   15      N       0.5675860000    -5.1700030000    -3.2047440000
   16      C      -0.5674210000    -4.4249870000     3.2262570000
   17      C      -0.4395410000    -2.0366270000     2.4894460000
   18      N      -0.6096500000    -3.0491560000     3.4598010000
   19      O       0.4686080000    -7.3531310000    -2.6194680000
   20      O       0.6830340000    -2.9868540000    -3.8746680000
   21      O      -0.7251310000    -5.2489460000     4.1248060000
   22      O      -0.5126480000    -0.8788290000     2.8958190000
   23      C       0.8139080000    -5.5637990000    -4.5956910000
   24      H       0.8228910000    -6.6640850000    -4.6400220000
   25      H       1.7816000000    -5.1471010000    -4.9348300000
   26      H       0.0203600000    -5.1487850000    -5.2461570000
   27      C      -0.8516490000    -2.5874870000     4.8297160000
   28      H      -0.9621910000    -3.4833290000     5.4627420000
   29      H      -1.7658650000    -1.9649720000     4.8632420000
   30      H      -0.0053830000    -1.9629320000     5.1735210000
   31      H      -0.0105550000    -7.8223180000     0.0702080000
   32      C       0.0000000000     0.0000000000     0.0000000000
   33      S       0.2050930000     0.7661960000     1.5805300000
   34      C       0.6289390000     2.3481140000     0.9049110000
   35      C       0.2581370000     0.9640280000    -0.9854000000
   36      C       0.5997450000     2.2393090000    -0.4935280000
   37      H       0.1971690000     0.7364040000    -2.0599340000
   38      H       0.8276780000     3.0902430000    -1.1525930000
   39      H       0.8567960000     3.1988080000     1.5560250000
 ----------------------------------------------------------------

   10   -1570.6554784656      8.52e-07  Convergence criterion met
 Total energy in the final basis set =    -1570.6554784656
        RIMP2         total energy =     -1575.2924963088 a.u.

                    Orbital Energies (a.u.)
 --------------------------------------------------------------

 Alpha MOs
 -- Occupied --
-91.9776 -20.5591 -20.5590 -20.5571 -20.5541 -15.6320 -15.6316 -11.4002
-11.3998 -11.3919 -11.3913 -11.3215 -11.3025 -11.3013 -11.2994 -11.2955
-11.2940 -11.2896 -11.2877 -11.2835 -11.2793 -11.2787 -11.2723 -11.2654
-11.2649 -11.2622 -11.2441  -8.9772  -6.6577  -6.6564  -6.6556  -1.4324
 -1.4253  -1.4073  -1.4047  -1.2695  -1.2667  -1.2172  -1.1732  -1.1427
 -1.1169  -1.0620  -1.0498  -0.9933  -0.9896  -0.9815  -0.9594  -0.9470
 -0.8975  -0.8804  -0.8782  -0.8632  -0.7936  -0.7785  -0.7768  -0.7606
 -0.7323  -0.7257  -0.7030  -0.6934  -0.6893  -0.6747  -0.6680  -0.6634
 -0.6575  -0.6408  -0.6385  -0.6365  -0.6273  -0.6147  -0.5842  -0.5832
 -0.5817  -0.5751  -0.5710  -0.5651  -0.5633  -0.5564  -0.5561  -0.5493
 -0.5329  -0.5254  -0.5212  -0.5186  -0.4898  -0.4734  -0.4670  -0.4636
 -0.4571  -0.4326  -0.4212  -0.4104  -0.3953  -0.3754  -0.3442  -0.3376
 -0.2962

          Ground-State Mulliken Net Atomic Charges

     Atom                 Charge (a.u.)
  ----------------------------------------
      1 C                    -0.146597
      2 C                    -0.111464
      3 C                    -0.028380
      4 C                    -0.003537
      5 H                     0.188085
      6 C                     0.004039
      7 C                     0.081909
      8 C                     0.004188
      9 C                    -0.080587
     10 C                    -0.132320
     11 C                     0.065313
     12 H                     0.180904
     13 C                     0.358740
     14 C                     0.363534
     15 N                    -0.101850
     16 C                     0.358965
     17 C                     0.372911
     18 N                    -0.092673
     19 O                    -0.463726
     20 O                    -0.477107
     21 O                    -0.482371
     22 O                    -0.453379
     23 C                    -0.201243
     24 H                     0.141326
     25 H                     0.112421
     26 H                     0.112452
     27 C                    -0.198295
     28 H                     0.135019
     29 H                     0.113566
     30 H                     0.113491
     31 H                     0.212569
     32 C                     0.015076
     33 S                     0.102742
     34 C                    -0.231279
     35 C                    -0.188544
     36 C                    -0.223386
     37 H                     0.187018
     38 H                     0.185128
     39 H                     0.207341
  ----------------------------------------
  Sum of atomic charges =     0.000000

                    Cartesian Multipole Moments
 -----------------------------------------------------------------
    Charge (ESU x 10^10)
                 0.0000
    Dipole Moment (Debye)
         X       0.3534      Y       1.2271      Z      -0.2999
       Tot       1.3117
    Quadrupole Moments (Debye-Ang)
        XX    -164.0329     XY       2.5440     YY    -170.5490
        XZ       3.3726     YZ       0.4213     ZZ    -175.4268

 Total job time:  288.77s(wall), 9001.90s(cpu)
        *  Thank you very much for using Q-Chem.  Have a nice day.  *
