 Q-Chem 5.4, Q-Chem, Inc., Pleasanton, CA (2021)
 Q-Chem 5.4.0 for Intel X86 EM64T Linux

User input:
--------------------------------------------------------------
$molecule
0 1
C	0.046070	-6.741404	0.252767
C	0.272935	-6.155638	1.538656
C	-0.141739	-5.791452	-0.814966
C	0.321083	-4.803786	1.813042
H	0.425592	-6.821518	2.403318
C	-0.091779	-4.378638	-0.527566
C	0.138909	-3.838032	0.782769
C	-0.273808	-3.413062	-1.556632
C	0.188483	-2.426473	1.067868
C	-0.226610	-2.059348	-1.285436
C	0.000000	-1.478216	0.000000
H	-0.379657	-1.394783	-2.151019
C	-0.390420	-6.187987	-2.235891
C	-0.522125	-3.798164	-2.965540
N	-0.562731	-5.170003	-3.205600
C	0.570244	-4.424987	3.225760
C	0.438407	-2.036627	2.489646
N	0.610438	-3.049156	3.459662
O	-0.455563	-7.353131	-2.621768
O	-0.683373	-2.986854	-3.874608
O	0.729367	-5.248946	4.124059
O	0.508697	-0.878829	2.896516
C	-0.806996	-5.563799	-4.596910
H	-0.813717	-6.664085	-4.641640
H	-0.013655	-5.147101	-5.246567
H	-1.775159	-5.148785	-4.936739
C	0.851572	-2.587487	4.829729
H	0.964204	-3.483329	5.462387
H	0.003956	-1.964972	5.173914
H	1.764390	-1.962932	4.863360
H	0.014094	-7.822318	0.069584
C	0.000000	0.000000	0.000000
S	0.205093	0.766196	1.580530
C	0.628939	2.348114	0.904911
C	0.258137	0.964028	-0.985400
C	0.599745	2.239309	-0.493528
H	0.197169	0.736404	-2.059934
H	0.827678	3.090243	-1.152593
H	0.856796	3.198808	1.556025
$end

$rem
JOBTYPE		SP
EXCHANGE	HF
CORRELATION	pRIMP2
BASIS		cc-pvtz
METHOD		rimp2
AUX_BASIS	rimp2-cc-pvtz
SOLVENT_METHOD	PCM
PURECART	11111
SYMMETRY	false
MEM_TOTAL	110000
SCF_CONVERGENCE = 6
THRESH=10
GUI = 2
$end

$solvent
dielectric 4.90
$end
--------------------------------------------------------------

             Standard Nuclear Orientation (Angstroms)
    I     Atom           X                Y                Z
 ----------------------------------------------------------------
    1      C       0.0460700000    -6.7414040000     0.2527670000
    2      C       0.2729350000    -6.1556380000     1.5386560000
    3      C      -0.1417390000    -5.7914520000    -0.8149660000
    4      C       0.3210830000    -4.8037860000     1.8130420000
    5      H       0.4255920000    -6.8215180000     2.4033180000
    6      C      -0.0917790000    -4.3786380000    -0.5275660000
    7      C       0.1389090000    -3.8380320000     0.7827690000
    8      C      -0.2738080000    -3.4130620000    -1.5566320000
    9      C       0.1884830000    -2.4264730000     1.0678680000
   10      C      -0.2266100000    -2.0593480000    -1.2854360000
   11      C       0.0000000000    -1.4782160000     0.0000000000
   12      H      -0.3796570000    -1.3947830000    -2.1510190000
   13      C      -0.3904200000    -6.1879870000    -2.2358910000
   14      C      -0.5221250000    -3.7981640000    -2.9655400000
   15      N      -0.5627310000    -5.1700030000    -3.2056000000
   16      C       0.5702440000    -4.4249870000     3.2257600000
   17      C       0.4384070000    -2.0366270000     2.4896460000
   18      N       0.6104380000    -3.0491560000     3.4596620000
   19      O      -0.4555630000    -7.3531310000    -2.6217680000
   20      O      -0.6833730000    -2.9868540000    -3.8746080000
   21      O       0.7293670000    -5.2489460000     4.1240590000
   22      O       0.5086970000    -0.8788290000     2.8965160000
   23      C      -0.8069960000    -5.5637990000    -4.5969100000
   24      H      -0.8137170000    -6.6640850000    -4.6416400000
   25      H      -0.0136550000    -5.1471010000    -5.2465670000
   26      H      -1.7751590000    -5.1487850000    -4.9367390000
   27      C       0.8515720000    -2.5874870000     4.8297290000
   28      H       0.9642040000    -3.4833290000     5.4623870000
   29      H       0.0039560000    -1.9649720000     5.1739140000
   30      H       1.7643900000    -1.9629320000     4.8633600000
   31      H       0.0140940000    -7.8223180000     0.0695840000
   32      C       0.0000000000     0.0000000000     0.0000000000
   33      S       0.2050930000     0.7661960000     1.5805300000
   34      C       0.6289390000     2.3481140000     0.9049110000
   35      C       0.2581370000     0.9640280000    -0.9854000000
   36      C       0.5997450000     2.2393090000    -0.4935280000
   37      H       0.1971690000     0.7364040000    -2.0599340000
   38      H       0.8276780000     3.0902430000    -1.1525930000
   39      H       0.8567960000     3.1988080000     1.5560250000
 ----------------------------------------------------------------

   10   -1570.6359811077      9.38e-07  Convergence criterion met
 Total energy in the final basis set =    -1570.6359811077
        RIMP2         total energy =     -1575.2773160514 a.u.

                    Orbital Energies (a.u.)
 --------------------------------------------------------------

 Alpha MOs
 -- Occupied --
-91.9765 -20.5597 -20.5591 -20.5572 -20.5545 -15.6330 -15.6317 -11.4017
-11.4003 -11.3923 -11.3914 -11.3220 -11.3027 -11.3016 -11.2995 -11.2954
-11.2937 -11.2880 -11.2878 -11.2835 -11.2794 -11.2787 -11.2686 -11.2660
-11.2649 -11.2599 -11.2408  -8.9762  -6.6566  -6.6551  -6.6542  -1.4362
 -1.4254  -1.4086  -1.4048  -1.2709  -1.2669  -1.2174  -1.1718  -1.1422
 -1.1170  -1.0617  -1.0500  -0.9936  -0.9900  -0.9800  -0.9598  -0.9468
 -0.8982  -0.8810  -0.8784  -0.8640  -0.7934  -0.7794  -0.7778  -0.7591
 -0.7325  -0.7295  -0.7027  -0.6932  -0.6894  -0.6745  -0.6689  -0.6638
 -0.6579  -0.6415  -0.6393  -0.6370  -0.6275  -0.6149  -0.5849  -0.5831
 -0.5811  -0.5764  -0.5712  -0.5653  -0.5615  -0.5568  -0.5566  -0.5496
 -0.5331  -0.5252  -0.5223  -0.5190  -0.4889  -0.4714  -0.4703  -0.4638
 -0.4571  -0.4333  -0.4210  -0.4103  -0.3906  -0.3749  -0.3384  -0.3306
 -0.2949

          Ground-State Mulliken Net Atomic Charges

     Atom                 Charge (a.u.)
  ----------------------------------------
      1 C                    -0.147516
      2 C                    -0.111262
      3 C                    -0.029183
      4 C                    -0.003760
      5 H                     0.187958
      6 C                     0.001279
      7 C                     0.083954
      8 C                     0.000014
      9 C                    -0.096177
     10 C                    -0.137989
     11 C                     0.078185
     12 H                     0.183930
     13 C                     0.359697
     14 C                     0.364354
     15 N                    -0.101819
     16 C                     0.359560
     17 C                     0.389233
     18 N                    -0.092455
     19 O                    -0.463502
     20 O                    -0.476484
     21 O                    -0.482049
     22 O                    -0.435100
     23 C                    -0.201107
     24 H                     0.141302
     25 H                     0.112426
     26 H                     0.112468
     27 C                    -0.199332
     28 H                     0.135346
     29 H                     0.113833
     30 H                     0.113814
     31 H                     0.212494
     32 C                    -0.025672
     33 S                     0.093812
     34 C                    -0.220324
     35 C                    -0.146387
     36 C                    -0.247830
     37 H                     0.186120
     38 H                     0.182722
     39 H                     0.205449
  ----------------------------------------
  Sum of atomic charges =     0.000000

                    Cartesian Multipole Moments
 -----------------------------------------------------------------
    Charge (ESU x 10^10)
                 0.0000
    Dipole Moment (Debye)
         X       0.6164      Y       0.9235      Z       0.0133
       Tot       1.1104
    Quadrupole Moments (Debye-Ang)
        XX    -163.9838     XY       2.4027     YY    -171.1516
        XZ      -2.5555     YZ       0.2370     ZZ    -174.7269

 Total job time:  323.65s(wall), 9309.99s(cpu)
        *  Thank you very much for using Q-Chem.  Have a nice day.  *
