 Q-Chem 5.4, Q-Chem, Inc., Pleasanton, CA (2021)
 Q-Chem 5.4.0 for Intel X86 EM64T Linux

User input:
--------------------------------------------------------------
$molecule
0 1
C	0.129743	-6.741404	0.221766
C	0.782726	-6.155638	1.352515
C	-0.411926	-5.791452	-0.717339
C	0.921816	-4.803786	1.593885
H	1.221908	-6.821518	2.112819
C	-0.266682	-4.378638	-0.464360
C	0.398255	-3.838032	0.688053
C	-0.789694	-3.413062	-1.369108
C	0.542349	-2.426473	0.939002
C	-0.652589	-2.059348	-1.130409
C	-0.000000	-1.478216	-0.000000
H	-1.092453	-1.394783	-1.891446
C	-1.131595	-6.187987	-1.967519
C	-1.504912	-3.798164	-2.608118
N	-1.625174	-5.170003	-2.819813
C	1.639129	-4.424987	2.836188
C	1.263477	-2.036627	2.189558
N	1.756898	-3.049156	3.042237
O	-1.324787	-7.353131	-2.307845
O	-1.967354	-2.986854	-3.407213
O	2.095892	-5.248946	3.625890
O	1.468685	-0.878829	2.547850
C	-2.330564	-5.563799	-4.043674
H	-2.352178	-6.664085	-4.083407
H	-1.807263	-5.147101	-4.925490
H	-3.356568	-5.148785	-4.031877
C	2.452080	-2.587487	4.247206
H	2.774302	-3.483329	4.803187
H	1.773301	-1.964972	4.860536
H	3.321351	-1.962932	3.966607
H	0.037043	-7.822318	0.060567
C	0.000000	0.000000	0.000000
S	-0.000201	0.793171	1.580530
C	-0.000228	2.430885	0.904911
C	-0.000168	0.997990	-0.985400
C	-0.000267	2.318231	-0.493528
H	-0.000145	0.762343	-2.059934
H	-0.000339	3.199164	-1.152593
H	-0.000311	3.311566	1.556025
$end

$rem
JOBTYPE		SP
EXCHANGE	HF
CORRELATION	pRIMP2
BASIS		cc-pvtz
METHOD		rimp2
AUX_BASIS	rimp2-cc-pvtz
SOLVENT_METHOD	PCM
PURECART	11111
SYMMETRY	false
MEM_TOTAL	110000
SCF_CONVERGENCE = 6
THRESH=10
GUI = 2
$end

$solvent
dielectric 4.90
$end
--------------------------------------------------------------

             Standard Nuclear Orientation (Angstroms)
    I     Atom           X                Y                Z
 ----------------------------------------------------------------
    1      C       0.1297430000    -6.7414040000     0.2217660000
    2      C       0.7827260000    -6.1556380000     1.3525150000
    3      C      -0.4119260000    -5.7914520000    -0.7173390000
    4      C       0.9218160000    -4.8037860000     1.5938850000
    5      H       1.2219080000    -6.8215180000     2.1128190000
    6      C      -0.2666820000    -4.3786380000    -0.4643600000
    7      C       0.3982550000    -3.8380320000     0.6880530000
    8      C      -0.7896940000    -3.4130620000    -1.3691080000
    9      C       0.5423490000    -2.4264730000     0.9390020000
   10      C      -0.6525890000    -2.0593480000    -1.1304090000
   11      C       0.0000000000    -1.4782160000     0.0000000000
   12      H      -1.0924530000    -1.3947830000    -1.8914460000
   13      C      -1.1315950000    -6.1879870000    -1.9675190000
   14      C      -1.5049120000    -3.7981640000    -2.6081180000
   15      N      -1.6251740000    -5.1700030000    -2.8198130000
   16      C       1.6391290000    -4.4249870000     2.8361880000
   17      C       1.2634770000    -2.0366270000     2.1895580000
   18      N       1.7568980000    -3.0491560000     3.0422370000
   19      O      -1.3247870000    -7.3531310000    -2.3078450000
   20      O      -1.9673540000    -2.9868540000    -3.4072130000
   21      O       2.0958920000    -5.2489460000     3.6258900000
   22      O       1.4686850000    -0.8788290000     2.5478500000
   23      C      -2.3305640000    -5.5637990000    -4.0436740000
   24      H      -2.3521780000    -6.6640850000    -4.0834070000
   25      H      -1.8072630000    -5.1471010000    -4.9254900000
   26      H      -3.3565680000    -5.1487850000    -4.0318770000
   27      C       2.4520800000    -2.5874870000     4.2472060000
   28      H       2.7743020000    -3.4833290000     4.8031870000
   29      H       1.7733010000    -1.9649720000     4.8605360000
   30      H       3.3213510000    -1.9629320000     3.9666070000
   31      H       0.0370430000    -7.8223180000     0.0605670000
   32      C       0.0000000000     0.0000000000     0.0000000000
   33      S      -0.0002010000     0.7931710000     1.5805300000
   34      C      -0.0002280000     2.4308850000     0.9049110000
   35      C      -0.0001680000     0.9979900000    -0.9854000000
   36      C      -0.0002670000     2.3182310000    -0.4935280000
   37      H      -0.0001450000     0.7623430000    -2.0599340000
   38      H      -0.0003390000     3.1991640000    -1.1525930000
   39      H      -0.0003110000     3.3115660000     1.5560250000
 ----------------------------------------------------------------

   10   -1570.6707215945      7.67e-07  Convergence criterion met
 Total energy in the final basis set =    -1570.6707215945
        RIMP2         total energy =     -1575.3038978115 a.u.

                    Orbital Energies (a.u.)
 --------------------------------------------------------------

 Alpha MOs
 -- Occupied --
-91.9817 -20.5589 -20.5568 -20.5542 -20.5540 -15.6315 -15.6308 -11.4002
-11.3973 -11.3919 -11.3910 -11.3192 -11.3026 -11.3019 -11.3008 -11.2966
-11.2955 -11.2895 -11.2871 -11.2844 -11.2798 -11.2793 -11.2783 -11.2648
-11.2647 -11.2597 -11.2440  -8.9815  -6.6619  -6.6612  -6.6606  -1.4267
 -1.4252  -1.4050  -1.4046  -1.2680  -1.2659  -1.2172  -1.1726  -1.1431
 -1.1171  -1.0622  -1.0497  -0.9930  -0.9884  -0.9813  -0.9591  -0.9474
 -0.8968  -0.8799  -0.8778  -0.8623  -0.7939  -0.7774  -0.7748  -0.7602
 -0.7325  -0.7204  -0.7035  -0.6935  -0.6858  -0.6741  -0.6668  -0.6626
 -0.6570  -0.6407  -0.6377  -0.6355  -0.6283  -0.6138  -0.5841  -0.5824
 -0.5800  -0.5711  -0.5689  -0.5654  -0.5642  -0.5558  -0.5548  -0.5488
 -0.5334  -0.5235  -0.5215  -0.5186  -0.4859  -0.4727  -0.4642  -0.4638
 -0.4572  -0.4369  -0.4259  -0.4167  -0.4092  -0.3720  -0.3377  -0.3361
 -0.3003

          Ground-State Mulliken Net Atomic Charges

     Atom                 Charge (a.u.)
  ----------------------------------------
      1 C                    -0.142063
      2 C                    -0.109276
      3 C                    -0.035637
      4 C                    -0.004400
      5 H                     0.188533
      6 C                     0.000697
      7 C                     0.081362
      8 C                    -0.000828
      9 C                    -0.076977
     10 C                    -0.141602
     11 C                     0.107809
     12 H                     0.183342
     13 C                     0.360191
     14 C                     0.367263
     15 N                    -0.101624
     16 C                     0.359720
     17 C                     0.380873
     18 N                    -0.095141
     19 O                    -0.464213
     20 O                    -0.476692
     21 O                    -0.481894
     22 O                    -0.463408
     23 C                    -0.201059
     24 H                     0.141193
     25 H                     0.112282
     26 H                     0.112509
     27 C                    -0.197165
     28 H                     0.134323
     29 H                     0.113107
     30 H                     0.113131
     31 H                     0.213127
     32 C                    -0.053400
     33 S                     0.084913
     34 C                    -0.207202
     35 C                    -0.157237
     36 C                    -0.232015
     37 H                     0.189982
     38 H                     0.187189
     39 H                     0.210288
  ----------------------------------------
  Sum of atomic charges =     0.000000

                    Cartesian Multipole Moments
 -----------------------------------------------------------------
    Charge (ESU x 10^10)
                 0.0000
    Dipole Moment (Debye)
         X       0.2502      Y       1.2387      Z      -0.3817
       Tot       1.3201
    Quadrupole Moments (Debye-Ang)
        XX    -169.1003     XY       0.0674     YY    -168.1113
        XZ      -8.1913     YZ       0.6332     ZZ    -171.7732

 Total job time:  266.14s(wall), 7895.12s(cpu)
        *  Thank you very much for using Q-Chem.  Have a nice day.  *
