 Q-Chem 5.4, Q-Chem, Inc., Pleasanton, CA (2021)
 Q-Chem 5.4.0 for Intel X86 EM64T Linux

User input:
--------------------------------------------------------------
$molecule
0 1
C	-0.046070	-6.741404	-0.252767
C	-0.272935	-6.155638	-1.538656
C	0.141739	-5.791452	0.814966
C	-0.321083	-4.803786	-1.813042
H	-0.425592	-6.821518	-2.403318
C	0.091779	-4.378638	0.527566
C	-0.138909	-3.838032	-0.782769
C	0.273808	-3.413062	1.556632
C	-0.188483	-2.426473	-1.067868
C	0.226610	-2.059348	1.285436
C	-0.000000	-1.478216	-0.000000
H	0.379657	-1.394783	2.151019
C	0.390420	-6.187987	2.235891
C	0.522125	-3.798164	2.965540
N	0.562731	-5.170003	3.205600
C	-0.570244	-4.424987	-3.225760
C	-0.438407	-2.036627	-2.489646
N	-0.610438	-3.049156	-3.459662
O	0.455563	-7.353131	2.621768
O	0.683373	-2.986854	3.874608
O	-0.729367	-5.248946	-4.124059
O	-0.508697	-0.878829	-2.896516
C	0.806996	-5.563799	4.596910
H	0.813717	-6.664085	4.641640
H	0.013655	-5.147101	5.246567
H	1.775159	-5.148785	4.936739
C	-0.851572	-2.587487	-4.829729
H	-0.964204	-3.483329	-5.462387
H	-0.003956	-1.964972	-5.173914
H	-1.764390	-1.962932	-4.863360
H	-0.014094	-7.822318	-0.069584
C	0.000000	0.000000	0.000000
S	0.607475	0.509994	1.580530
C	1.862020	1.562717	0.904911
C	0.764397	0.641624	-0.985400
C	1.775697	1.490335	-0.493528
H	0.583895	0.490135	-2.059934
H	2.450484	2.056643	-1.152593
H	2.536607	2.128872	1.556025
$end

$rem
JOBTYPE		SP
EXCHANGE	HF
CORRELATION	pRIMP2
BASIS		cc-pvtz
METHOD		rimp2
AUX_BASIS	rimp2-cc-pvtz
SOLVENT_METHOD	PCM
PURECART	11111
SYMMETRY	false
MEM_TOTAL	110000
SCF_CONVERGENCE = 6
THRESH=10
GUI = 2
$end

$solvent
dielectric 4.90
$end
--------------------------------------------------------------

             Standard Nuclear Orientation (Angstroms)
    I     Atom           X                Y                Z
 ----------------------------------------------------------------
    1      C      -0.0460700000    -6.7414040000    -0.2527670000
    2      C      -0.2729350000    -6.1556380000    -1.5386560000
    3      C       0.1417390000    -5.7914520000     0.8149660000
    4      C      -0.3210830000    -4.8037860000    -1.8130420000
    5      H      -0.4255920000    -6.8215180000    -2.4033180000
    6      C       0.0917790000    -4.3786380000     0.5275660000
    7      C      -0.1389090000    -3.8380320000    -0.7827690000
    8      C       0.2738080000    -3.4130620000     1.5566320000
    9      C      -0.1884830000    -2.4264730000    -1.0678680000
   10      C       0.2266100000    -2.0593480000     1.2854360000
   11      C       0.0000000000    -1.4782160000     0.0000000000
   12      H       0.3796570000    -1.3947830000     2.1510190000
   13      C       0.3904200000    -6.1879870000     2.2358910000
   14      C       0.5221250000    -3.7981640000     2.9655400000
   15      N       0.5627310000    -5.1700030000     3.2056000000
   16      C      -0.5702440000    -4.4249870000    -3.2257600000
   17      C      -0.4384070000    -2.0366270000    -2.4896460000
   18      N      -0.6104380000    -3.0491560000    -3.4596620000
   19      O       0.4555630000    -7.3531310000     2.6217680000
   20      O       0.6833730000    -2.9868540000     3.8746080000
   21      O      -0.7293670000    -5.2489460000    -4.1240590000
   22      O      -0.5086970000    -0.8788290000    -2.8965160000
   23      C       0.8069960000    -5.5637990000     4.5969100000
   24      H       0.8137170000    -6.6640850000     4.6416400000
   25      H       0.0136550000    -5.1471010000     5.2465670000
   26      H       1.7751590000    -5.1487850000     4.9367390000
   27      C      -0.8515720000    -2.5874870000    -4.8297290000
   28      H      -0.9642040000    -3.4833290000    -5.4623870000
   29      H      -0.0039560000    -1.9649720000    -5.1739140000
   30      H      -1.7643900000    -1.9629320000    -4.8633600000
   31      H      -0.0140940000    -7.8223180000    -0.0695840000
   32      C       0.0000000000     0.0000000000     0.0000000000
   33      S       0.6074750000     0.5099940000     1.5805300000
   34      C       1.8620200000     1.5627170000     0.9049110000
   35      C       0.7643970000     0.6416240000    -0.9854000000
   36      C       1.7756970000     1.4903350000    -0.4935280000
   37      H       0.5838950000     0.4901350000    -2.0599340000
   38      H       2.4504840000     2.0566430000    -1.1525930000
   39      H       2.5366070000     2.1288720000     1.5560250000
 ----------------------------------------------------------------

   11   -1570.6293522796      5.05e-07  Convergence criterion met
 Total energy in the final basis set =    -1570.6293522796
        RIMP2         total energy =     -1575.2672910788 a.u.

                    Orbital Energies (a.u.)
 --------------------------------------------------------------

 Alpha MOs
 -- Occupied --
-91.9919 -20.5574 -20.5555 -20.5525 -20.5507 -15.6300 -15.6279 -11.3984
-11.3930 -11.3893 -11.3886 -11.3200 -11.3081 -11.2995 -11.2965 -11.2891
-11.2888 -11.2873 -11.2838 -11.2787 -11.2786 -11.2760 -11.2723 -11.2682
-11.2639 -11.2635 -11.2528  -8.9933  -6.6740  -6.6731  -6.6728  -1.4237
 -1.4226  -1.4031  -1.4013  -1.2658  -1.2631  -1.2159  -1.1876  -1.1406
 -1.1124  -1.0629  -1.0464  -0.9978  -0.9921  -0.9900  -0.9569  -0.9444
 -0.8948  -0.8765  -0.8751  -0.8582  -0.7981  -0.7803  -0.7707  -0.7647
 -0.7334  -0.7233  -0.7016  -0.6938  -0.6803  -0.6734  -0.6648  -0.6607
 -0.6540  -0.6413  -0.6350  -0.6325  -0.6251  -0.6123  -0.5912  -0.5856
 -0.5804  -0.5769  -0.5681  -0.5624  -0.5611  -0.5556  -0.5522  -0.5462
 -0.5387  -0.5239  -0.5230  -0.5036  -0.4802  -0.4643  -0.4616  -0.4580
 -0.4566  -0.4496  -0.4268  -0.4176  -0.4080  -0.3767  -0.3551  -0.3326
 -0.2990

          Ground-State Mulliken Net Atomic Charges

     Atom                 Charge (a.u.)
  ----------------------------------------
      1 C                    -0.158096
      2 C                    -0.110595
      3 C                    -0.022340
      4 C                    -0.004996
      5 H                     0.186697
      6 C                    -0.018461
      7 C                     0.072262
      8 C                     0.065603
      9 C                    -0.097776
     10 C                    -0.176101
     11 C                     0.051923
     12 H                     0.178478
     13 C                     0.357862
     14 C                     0.362569
     15 N                    -0.100818
     16 C                     0.355904
     17 C                     0.385590
     18 N                    -0.092995
     19 O                    -0.464749
     20 O                    -0.479144
     21 O                    -0.486748
     22 O                    -0.491861
     23 C                    -0.201621
     24 H                     0.141012
     25 H                     0.112174
     26 H                     0.111832
     27 C                    -0.198577
     28 H                     0.133852
     29 H                     0.111159
     30 H                     0.112406
     31 H                     0.210659
     32 C                    -0.064220
     33 S                     0.027692
     34 C                    -0.130711
     35 C                    -0.069748
     36 C                    -0.259475
     37 H                     0.236899
     38 H                     0.194353
     39 H                     0.220110
  ----------------------------------------
  Sum of atomic charges =     0.000000

                    Cartesian Multipole Moments
 -----------------------------------------------------------------
    Charge (ESU x 10^10)
                 0.0000
    Dipole Moment (Debye)
         X       2.8049      Y       3.0018      Z      -0.2888
       Tot       4.1185
    Quadrupole Moments (Debye-Ang)
        XX    -156.7521     XY       6.1758     YY    -180.5904
        XZ      -2.8171     YZ      -0.6238     ZZ    -178.2386

 Total job time:  297.72s(wall), 8905.36s(cpu)
        *  Thank you very much for using Q-Chem.  Have a nice day.  *
