 Q-Chem 5.4, Q-Chem, Inc., Pleasanton, CA (2021)
 Q-Chem 5.4.0 for Intel X86 EM64T Linux

User input:
--------------------------------------------------------------
$molecule
0 1
C	0.089263	-6.741404	0.240927
C	0.535973	-6.155638	1.467886
C	-0.281103	-5.791452	-0.777972
C	0.631036	-4.803786	1.729742
H	0.836458	-6.821518	2.292903
C	-0.181995	-4.378638	-0.503614
C	0.272725	-3.838032	0.746756
C	-0.539954	-3.413062	-1.485437
C	0.371053	-2.426473	1.018915
C	-0.446381	-2.059348	-1.226557
C	-0.000000	-1.478216	-0.000000
H	-0.747410	-1.394783	-2.052413
C	-0.772747	-6.187987	-2.134128
C	-1.029154	-3.798164	-2.829820
N	-1.110828	-5.170003	-3.059182
C	1.121728	-4.424987	3.077731
C	0.864069	-2.036627	2.375694
N	1.201928	-3.049156	3.301101
O	-0.903908	-7.353131	-2.502830
O	-1.345809	-2.986854	-3.697078
O	1.434422	-5.248946	3.934752
O	1.003943	-0.878829	2.764177
C	-1.592981	-5.563799	-4.386939
H	-1.607367	-6.664085	-4.429822
H	-0.924504	-5.147101	-5.164489
H	-2.605446	-5.148785	-4.553486
C	1.677308	-2.587487	4.608481
H	1.898089	-3.483329	5.211969
H	0.902337	-1.964972	5.094624
H	2.582098	-1.962932	4.483092
H	0.025963	-7.822318	0.066080
C	0.000000	0.000000	0.000000
S	0.335026	0.718942	1.580530
C	1.027130	2.203226	0.904911
C	0.421617	0.904557	-0.985400
C	0.979485	2.101144	-0.493528
H	0.322049	0.690978	-2.059934
H	1.351718	2.899571	-1.152593
H	1.399246	3.001430	1.556025
$end

$rem
JOBTYPE		SP
EXCHANGE	HF
CORRELATION	pRIMP2
BASIS		cc-pvtz
METHOD		rimp2
AUX_BASIS	rimp2-cc-pvtz
SOLVENT_METHOD	PCM
PURECART	11111
SYMMETRY	false
MEM_TOTAL	110000
SCF_CONVERGENCE = 6
THRESH=10
GUI = 2
$end

$solvent
dielectric 4.90
$end
--------------------------------------------------------------

             Standard Nuclear Orientation (Angstroms)
    I     Atom           X                Y                Z
 ----------------------------------------------------------------
    1      C       0.0892630000    -6.7414040000     0.2409270000
    2      C       0.5359730000    -6.1556380000     1.4678860000
    3      C      -0.2811030000    -5.7914520000    -0.7779720000
    4      C       0.6310360000    -4.8037860000     1.7297420000
    5      H       0.8364580000    -6.8215180000     2.2929030000
    6      C      -0.1819950000    -4.3786380000    -0.5036140000
    7      C       0.2727250000    -3.8380320000     0.7467560000
    8      C      -0.5399540000    -3.4130620000    -1.4854370000
    9      C       0.3710530000    -2.4264730000     1.0189150000
   10      C      -0.4463810000    -2.0593480000    -1.2265570000
   11      C       0.0000000000    -1.4782160000     0.0000000000
   12      H      -0.7474100000    -1.3947830000    -2.0524130000
   13      C      -0.7727470000    -6.1879870000    -2.1341280000
   14      C      -1.0291540000    -3.7981640000    -2.8298200000
   15      N      -1.1108280000    -5.1700030000    -3.0591820000
   16      C       1.1217280000    -4.4249870000     3.0777310000
   17      C       0.8640690000    -2.0366270000     2.3756940000
   18      N       1.2019280000    -3.0491560000     3.3011010000
   19      O      -0.9039080000    -7.3531310000    -2.5028300000
   20      O      -1.3458090000    -2.9868540000    -3.6970780000
   21      O       1.4344220000    -5.2489460000     3.9347520000
   22      O       1.0039430000    -0.8788290000     2.7641770000
   23      C      -1.5929810000    -5.5637990000    -4.3869390000
   24      H      -1.6073670000    -6.6640850000    -4.4298220000
   25      H      -0.9245040000    -5.1471010000    -5.1644890000
   26      H      -2.6054460000    -5.1487850000    -4.5534860000
   27      C       1.6773080000    -2.5874870000     4.6084810000
   28      H       1.8980890000    -3.4833290000     5.2119690000
   29      H       0.9023370000    -1.9649720000     5.0946240000
   30      H       2.5820980000    -1.9629320000     4.4830920000
   31      H       0.0259630000    -7.8223180000     0.0660800000
   32      C       0.0000000000     0.0000000000     0.0000000000
   33      S       0.3350260000     0.7189420000     1.5805300000
   34      C       1.0271300000     2.2032260000     0.9049110000
   35      C       0.4216170000     0.9045570000    -0.9854000000
   36      C       0.9794850000     2.1011440000    -0.4935280000
   37      H       0.3220490000     0.6909780000    -2.0599340000
   38      H       1.3517180000     2.8995710000    -1.1525930000
   39      H       1.3992460000     3.0014300000     1.5560250000
 ----------------------------------------------------------------

   11   -1570.6142360517      4.88e-07  Convergence criterion met
 Total energy in the final basis set =    -1570.6142360517
        RIMP2         total energy =     -1575.2615769098 a.u.

                    Orbital Energies (a.u.)
 --------------------------------------------------------------

 Alpha MOs
 -- Occupied --
-91.9815 -20.5590 -20.5580 -20.5569 -20.5546 -15.6334 -15.6315 -11.4028
-11.4001 -11.3922 -11.3910 -11.3215 -11.3023 -11.3012 -11.2973 -11.2943
-11.2927 -11.2875 -11.2827 -11.2817 -11.2790 -11.2769 -11.2734 -11.2663
-11.2647 -11.2575 -11.2378  -8.9813  -6.6617  -6.6603  -6.6593  -1.4374
 -1.4252  -1.4089  -1.4046  -1.2713  -1.2667  -1.2167  -1.1716  -1.1414
 -1.1163  -1.0607  -1.0494  -0.9935  -0.9899  -0.9804  -0.9597  -0.9464
 -0.8981  -0.8806  -0.8771  -0.8637  -0.7925  -0.7794  -0.7774  -0.7580
 -0.7326  -0.7293  -0.7027  -0.6925  -0.6890  -0.6740  -0.6689  -0.6636
 -0.6576  -0.6415  -0.6397  -0.6368  -0.6274  -0.6146  -0.5851  -0.5822
 -0.5805  -0.5763  -0.5698  -0.5651  -0.5615  -0.5567  -0.5566  -0.5495
 -0.5337  -0.5246  -0.5230  -0.5181  -0.4863  -0.4700  -0.4697  -0.4635
 -0.4568  -0.4343  -0.4213  -0.4101  -0.4031  -0.3731  -0.3377  -0.3107
 -0.2949

          Ground-State Mulliken Net Atomic Charges

     Atom                 Charge (a.u.)
  ----------------------------------------
      1 C                    -0.150600
      2 C                    -0.109300
      3 C                    -0.028961
      4 C                    -0.007141
      5 H                     0.187855
      6 C                    -0.005430
      7 C                     0.087397
      8 C                     0.002416
      9 C                    -0.114045
     10 C                    -0.145337
     11 C                     0.089044
     12 H                     0.182706
     13 C                     0.360209
     14 C                     0.364285
     15 N                    -0.101757
     16 C                     0.359419
     17 C                     0.410835
     18 N                    -0.093129
     19 O                    -0.463520
     20 O                    -0.476043
     21 O                    -0.481896
     22 O                    -0.430878
     23 C                    -0.201083
     24 H                     0.141156
     25 H                     0.112366
     26 H                     0.112462
     27 C                    -0.199427
     28 H                     0.135387
     29 H                     0.113874
     30 H                     0.113648
     31 H                     0.212114
     32 C                    -0.058794
     33 S                     0.109268
     34 C                    -0.208621
     35 C                    -0.139342
     36 C                    -0.256593
     37 H                     0.187287
     38 H                     0.183704
     39 H                     0.206463
  ----------------------------------------
  Sum of atomic charges =     0.000000

                    Cartesian Multipole Moments
 -----------------------------------------------------------------
    Charge (ESU x 10^10)
                 0.0000
    Dipole Moment (Debye)
         X       1.1777      Y       0.9261      Z       0.3735
       Tot       1.5441
    Quadrupole Moments (Debye-Ang)
        XX    -164.3703     XY       3.7025     YY    -173.2346
        XZ      -4.6486     YZ       0.4458     ZZ    -172.6881

 Total job time:  287.10s(wall), 8541.58s(cpu)
        *  Thank you very much for using Q-Chem.  Have a nice day.  *
