 Q-Chem 5.4, Q-Chem, Inc., Pleasanton, CA (2021)
 Q-Chem 5.4.0 for Intel X86 EM64T Linux

User input:
--------------------------------------------------------------
$molecule
0 1
C	0.256927	-6.741404	-0.001478
C	1.562675	-6.155638	-0.001603
C	-0.827197	-5.791452	-0.001931
C	1.841253	-4.803786	-0.001374
H	2.440709	-6.821518	-0.001794
C	-0.535488	-4.378638	-0.001227
C	0.794999	-3.838032	-0.000872
C	-1.580529	-3.413062	-0.000658
C	1.084374	-2.426473	-0.000186
C	-1.305258	-2.059348	-0.000046
C	0.000000	-1.478216	0.000000
H	-2.184267	-1.394783	0.000369
C	-2.269719	-6.187987	-0.003770
C	-3.011152	-3.798164	-0.000767
N	-3.254617	-5.170003	-0.002465
C	3.275775	-4.424987	-0.001433
C	2.527951	-2.036627	0.000576
N	3.513104	-3.049156	-0.000400
O	-2.661046	-7.353131	-0.006623
O	-3.934410	-2.986854	0.000172
O	4.188059	-5.248946	-0.002151
O	2.940845	-0.878829	0.002006
C	-4.667206	-5.563799	-0.003509
H	-4.712423	-6.664085	-0.004658
H	-5.169231	-5.147101	-0.897610
H	-5.169992	-5.148785	0.890935
C	4.904229	-2.587487	0.000039
H	5.546833	-3.483329	-0.001022
H	5.095998	-1.964972	0.894545
H	5.095858	-1.962932	-0.893071
H	0.070974	-7.822318	-0.001797
C	0.000000	0.000000	0.000000
S	0.205093	0.766196	1.580530
C	0.628939	2.348114	0.904911
C	0.258137	0.964028	-0.985400
C	0.599745	2.239309	-0.493528
H	0.197169	0.736404	-2.059934
H	0.827678	3.090243	-1.152593
H	0.856796	3.198808	1.556025
$end

$rem
JOBTYPE		SP
EXCHANGE	HF
CORRELATION	pRIMP2
BASIS		cc-pvtz
METHOD		rimp2
AUX_BASIS	rimp2-cc-pvtz
SOLVENT_METHOD	PCM
PURECART	11111
SYMMETRY	false
MEM_TOTAL	110000
SCF_CONVERGENCE = 6
THRESH=10
GUI = 2
$end

$solvent
dielectric 4.90
$end
--------------------------------------------------------------

             Standard Nuclear Orientation (Angstroms)
    I     Atom           X                Y                Z
 ----------------------------------------------------------------
    1      C       0.2569270000    -6.7414040000    -0.0014780000
    2      C       1.5626750000    -6.1556380000    -0.0016030000
    3      C      -0.8271970000    -5.7914520000    -0.0019310000
    4      C       1.8412530000    -4.8037860000    -0.0013740000
    5      H       2.4407090000    -6.8215180000    -0.0017940000
    6      C      -0.5354880000    -4.3786380000    -0.0012270000
    7      C       0.7949990000    -3.8380320000    -0.0008720000
    8      C      -1.5805290000    -3.4130620000    -0.0006580000
    9      C       1.0843740000    -2.4264730000    -0.0001860000
   10      C      -1.3052580000    -2.0593480000    -0.0000460000
   11      C       0.0000000000    -1.4782160000     0.0000000000
   12      H      -2.1842670000    -1.3947830000     0.0003690000
   13      C      -2.2697190000    -6.1879870000    -0.0037700000
   14      C      -3.0111520000    -3.7981640000    -0.0007670000
   15      N      -3.2546170000    -5.1700030000    -0.0024650000
   16      C       3.2757750000    -4.4249870000    -0.0014330000
   17      C       2.5279510000    -2.0366270000     0.0005760000
   18      N       3.5131040000    -3.0491560000    -0.0004000000
   19      O      -2.6610460000    -7.3531310000    -0.0066230000
   20      O      -3.9344100000    -2.9868540000     0.0001720000
   21      O       4.1880590000    -5.2489460000    -0.0021510000
   22      O       2.9408450000    -0.8788290000     0.0020060000
   23      C      -4.6672060000    -5.5637990000    -0.0035090000
   24      H      -4.7124230000    -6.6640850000    -0.0046580000
   25      H      -5.1692310000    -5.1471010000    -0.8976100000
   26      H      -5.1699920000    -5.1487850000     0.8909350000
   27      C       4.9042290000    -2.5874870000     0.0000390000
   28      H       5.5468330000    -3.4833290000    -0.0010220000
   29      H       5.0959980000    -1.9649720000     0.8945450000
   30      H       5.0958580000    -1.9629320000    -0.8930710000
   31      H       0.0709740000    -7.8223180000    -0.0017970000
   32      C       0.0000000000     0.0000000000     0.0000000000
   33      S       0.2050930000     0.7661960000     1.5805300000
   34      C       0.6289390000     2.3481140000     0.9049110000
   35      C       0.2581370000     0.9640280000    -0.9854000000
   36      C       0.5997450000     2.2393090000    -0.4935280000
   37      H       0.1971690000     0.7364040000    -2.0599340000
   38      H       0.8276780000     3.0902430000    -1.1525930000
   39      H       0.8567960000     3.1988080000     1.5560250000
 ----------------------------------------------------------------

   10   -1570.6856394755      7.27e-07  Convergence criterion met
 Total energy in the final basis set =    -1570.6856394755
        RIMP2         total energy =     -1575.3105445525 a.u.

                    Orbital Energies (a.u.)
 --------------------------------------------------------------

 Alpha MOs
 -- Occupied --
-91.9910 -20.5587 -20.5568 -20.5562 -20.5555 -15.6313 -15.6310 -11.4004
-11.3968 -11.3931 -11.3905 -11.3149 -11.3081 -11.3032 -11.3014 -11.2997
-11.2994 -11.2895 -11.2873 -11.2858 -11.2820 -11.2810 -11.2777 -11.2647
-11.2646 -11.2557 -11.2495  -8.9902  -6.6710  -6.6705  -6.6699  -1.4250
 -1.4242  -1.4043  -1.4033  -1.2677  -1.2654  -1.2180  -1.1739  -1.1443
 -1.1181  -1.0631  -1.0504  -0.9933  -0.9890  -0.9823  -0.9594  -0.9489
 -0.8973  -0.8800  -0.8774  -0.8616  -0.7951  -0.7774  -0.7732  -0.7591
 -0.7371  -0.7190  -0.7053  -0.6954  -0.6806  -0.6727  -0.6665  -0.6624
 -0.6573  -0.6427  -0.6378  -0.6343  -0.6304  -0.6126  -0.5855  -0.5845
 -0.5778  -0.5729  -0.5661  -0.5643  -0.5617  -0.5553  -0.5529  -0.5487
 -0.5353  -0.5269  -0.5201  -0.5137  -0.4832  -0.4708  -0.4660  -0.4606
 -0.4588  -0.4533  -0.4283  -0.4182  -0.4090  -0.3533  -0.3506  -0.3328
 -0.3252

          Ground-State Mulliken Net Atomic Charges

     Atom                 Charge (a.u.)
  ----------------------------------------
      1 C                    -0.129103
      2 C                    -0.107475
      3 C                    -0.044681
      4 C                    -0.000002
      5 H                     0.188900
      6 C                    -0.005152
      7 C                     0.069925
      8 C                     0.011160
      9 C                     0.007928
     10 C                    -0.139869
     11 C                     0.072632
     12 H                     0.179346
     13 C                     0.361183
     14 C                     0.369406
     15 N                    -0.101815
     16 C                     0.358738
     17 C                     0.362632
     18 N                    -0.096209
     19 O                    -0.464921
     20 O                    -0.476164
     21 O                    -0.479644
     22 O                    -0.457041
     23 C                    -0.200950
     24 H                     0.141030
     25 H                     0.112349
     26 H                     0.112572
     27 C                    -0.196239
     28 H                     0.133831
     29 H                     0.113531
     30 H                     0.112844
     31 H                     0.214755
     32 C                    -0.059436
     33 S                     0.031707
     34 C                    -0.208719
     35 C                    -0.179348
     36 C                    -0.197353
     37 H                     0.187749
     38 H                     0.190799
     39 H                     0.211103
  ----------------------------------------
  Sum of atomic charges =     0.000000

                    Cartesian Multipole Moments
 -----------------------------------------------------------------
    Charge (ESU x 10^10)
                 0.0000
    Dipole Moment (Debye)
         X       0.6933      Y       0.7381      Z      -0.9483
       Tot       1.3873
    Quadrupole Moments (Debye-Ang)
        XX    -183.6858     XY       1.6800     YY    -164.4159
        XZ       0.2355     YZ       0.6373     ZZ    -157.5232

 Total job time:  267.69s(wall), 7943.53s(cpu)
        *  Thank you very much for using Q-Chem.  Have a nice day.  *
