 Q-Chem 5.4, Q-Chem, Inc., Pleasanton, CA (2021)
 Q-Chem 5.4.0 for Intel X86 EM64T Linux

User input:
--------------------------------------------------------------
$molecule
0 1
C	-0.241938	-6.741404	-0.086486
C	-1.468983	-6.155638	-0.532960
C	0.776651	-5.791452	0.284733
C	-1.730681	-4.803786	-0.628455
H	-2.294130	-6.821518	-0.833086
C	0.502775	-4.378638	0.184300
C	-0.747353	-3.838032	-0.271086
C	1.484986	-3.413062	0.541191
C	-1.019042	-2.426473	-0.370703
C	1.226525	-2.059348	0.446468
C	-0.000000	-1.478216	-0.000000
H	2.052666	-1.394783	0.746717
C	2.131549	-6.187987	0.779832
C	2.829295	-3.798164	1.030596
N	3.057496	-5.170003	1.115461
C	-3.078712	-4.424987	-1.119034
C	-2.375300	-2.036627	-0.865151
N	-3.301374	-3.049156	-1.201176
O	2.498300	-7.353131	0.916355
O	3.697195	-2.986854	1.345486
O	-3.936224	-5.248946	-1.430379
O	-2.762805	-0.878829	-1.007714
C	4.384539	-5.563799	1.599576
H	4.426636	-6.664085	1.616121
H	4.550487	-5.147101	2.611458
H	5.162921	-5.148785	0.931037
C	-4.608454	-2.587487	-1.677382
H	-5.212668	-3.483329	-1.896168
H	-4.482719	-1.964972	-2.583531
H	-5.093988	-1.962932	-0.903674
H	-0.067309	-7.822318	-0.022586
C	0.000000	0.000000	0.000000
S	0.607475	0.509994	1.580530
C	1.862020	1.562717	0.904911
C	0.764397	0.641624	-0.985400
C	1.775697	1.490335	-0.493528
H	0.583895	0.490135	-2.059934
H	2.450484	2.056643	-1.152593
H	2.536607	2.128872	1.556025
$end

$rem
JOBTYPE		SP
EXCHANGE	HF
CORRELATION	pRIMP2
BASIS		cc-pvtz
METHOD		rimp2
AUX_BASIS	rimp2-cc-pvtz
SOLVENT_METHOD	PCM
PURECART	11111
SYMMETRY	false
MEM_TOTAL	110000
SCF_CONVERGENCE = 6
THRESH=10
GUI = 2
$end

$solvent
dielectric 4.90
$end
--------------------------------------------------------------

             Standard Nuclear Orientation (Angstroms)
    I     Atom           X                Y                Z
 ----------------------------------------------------------------
    1      C      -0.2419380000    -6.7414040000    -0.0864860000
    2      C      -1.4689830000    -6.1556380000    -0.5329600000
    3      C       0.7766510000    -5.7914520000     0.2847330000
    4      C      -1.7306810000    -4.8037860000    -0.6284550000
    5      H      -2.2941300000    -6.8215180000    -0.8330860000
    6      C       0.5027750000    -4.3786380000     0.1843000000
    7      C      -0.7473530000    -3.8380320000    -0.2710860000
    8      C       1.4849860000    -3.4130620000     0.5411910000
    9      C      -1.0190420000    -2.4264730000    -0.3707030000
   10      C       1.2265250000    -2.0593480000     0.4464680000
   11      C       0.0000000000    -1.4782160000     0.0000000000
   12      H       2.0526660000    -1.3947830000     0.7467170000
   13      C       2.1315490000    -6.1879870000     0.7798320000
   14      C       2.8292950000    -3.7981640000     1.0305960000
   15      N       3.0574960000    -5.1700030000     1.1154610000
   16      C      -3.0787120000    -4.4249870000    -1.1190340000
   17      C      -2.3753000000    -2.0366270000    -0.8651510000
   18      N      -3.3013740000    -3.0491560000    -1.2011760000
   19      O       2.4983000000    -7.3531310000     0.9163550000
   20      O       3.6971950000    -2.9868540000     1.3454860000
   21      O      -3.9362240000    -5.2489460000    -1.4303790000
   22      O      -2.7628050000    -0.8788290000    -1.0077140000
   23      C       4.3845390000    -5.5637990000     1.5995760000
   24      H       4.4266360000    -6.6640850000     1.6161210000
   25      H       4.5504870000    -5.1471010000     2.6114580000
   26      H       5.1629210000    -5.1487850000     0.9310370000
   27      C      -4.6084540000    -2.5874870000    -1.6773820000
   28      H      -5.2126680000    -3.4833290000    -1.8961680000
   29      H      -4.4827190000    -1.9649720000    -2.5835310000
   30      H      -5.0939880000    -1.9629320000    -0.9036740000
   31      H      -0.0673090000    -7.8223180000    -0.0225860000
   32      C       0.0000000000     0.0000000000     0.0000000000
   33      S       0.6074750000     0.5099940000     1.5805300000
   34      C       1.8620200000     1.5627170000     0.9049110000
   35      C       0.7643970000     0.6416240000    -0.9854000000
   36      C       1.7756970000     1.4903350000    -0.4935280000
   37      H       0.5838950000     0.4901350000    -2.0599340000
   38      H       2.4504840000     2.0566430000    -1.1525930000
   39      H       2.5366070000     2.1288720000     1.5560250000
 ----------------------------------------------------------------

   10   -1570.6480963965      9.26e-07  Convergence criterion met
 Total energy in the final basis set =    -1570.6480963965
        RIMP2         total energy =     -1575.2828506348 a.u.

                    Orbital Energies (a.u.)
 --------------------------------------------------------------

 Alpha MOs
 -- Occupied --
-91.9926 -20.5575 -20.5548 -20.5542 -20.5537 -15.6302 -15.6293 -11.3989
-11.3943 -11.3911 -11.3891 -11.3160 -11.3005 -11.2986 -11.2980 -11.2968
-11.2949 -11.2948 -11.2835 -11.2824 -11.2804 -11.2775 -11.2753 -11.2716
-11.2641 -11.2637 -11.2559  -8.9928  -6.6735  -6.6728  -6.6724  -1.4238
 -1.4222  -1.4030  -1.4013  -1.2662  -1.2637  -1.2170  -1.1867  -1.1414
 -1.1148  -1.0624  -1.0474  -0.9931  -0.9922  -0.9913  -0.9579  -0.9458
 -0.8957  -0.8774  -0.8747  -0.8573  -0.7951  -0.7772  -0.7725  -0.7634
 -0.7370  -0.7175  -0.7067  -0.6935  -0.6810  -0.6736  -0.6651  -0.6611
 -0.6554  -0.6423  -0.6364  -0.6324  -0.6279  -0.6118  -0.5857  -0.5839
 -0.5786  -0.5775  -0.5676  -0.5630  -0.5608  -0.5546  -0.5524  -0.5472
 -0.5423  -0.5262  -0.5173  -0.4964  -0.4820  -0.4734  -0.4661  -0.4618
 -0.4590  -0.4520  -0.4265  -0.4173  -0.4069  -0.3733  -0.3407  -0.3321
 -0.3196

          Ground-State Mulliken Net Atomic Charges

     Atom                 Charge (a.u.)
  ----------------------------------------
      1 C                    -0.139843
      2 C                    -0.113320
      3 C                    -0.036136
      4 C                     0.001728
      5 H                     0.187638
      6 C                    -0.003212
      7 C                     0.078426
      8 C                    -0.012958
      9 C                    -0.034557
     10 C                    -0.115437
     11 C                     0.018684
     12 H                     0.184766
     13 C                     0.359234
     14 C                     0.362015
     15 N                    -0.101086
     16 C                     0.357837
     17 C                     0.366514
     18 N                    -0.096845
     19 O                    -0.466172
     20 O                    -0.480075
     21 O                    -0.481664
     22 O                    -0.461810
     23 C                    -0.201721
     24 H                     0.140955
     25 H                     0.112090
     26 H                     0.111959
     27 C                    -0.197003
     28 H                     0.133275
     29 H                     0.112240
     30 H                     0.113094
     31 H                     0.212934
     32 C                    -0.049629
     33 S                     0.034684
     34 C                    -0.166680
     35 C                    -0.114626
     36 C                    -0.215741
     37 H                     0.191486
     38 H                     0.194366
     39 H                     0.214589
  ----------------------------------------
  Sum of atomic charges =     0.000000

                    Cartesian Multipole Moments
 -----------------------------------------------------------------
    Charge (ESU x 10^10)
                 0.0000
    Dipole Moment (Debye)
         X       2.4120      Y       1.6529      Z      -0.8646
       Tot       3.0492
    Quadrupole Moments (Debye-Ang)
        XX    -175.8278     XY       7.0395     YY    -175.6314
        XZ      -6.1374     YZ       0.8208     ZZ    -159.2323

 Total job time:  280.87s(wall), 8069.10s(cpu)
        *  Thank you very much for using Q-Chem.  Have a nice day.  *
