 Q-Chem 5.4, Q-Chem, Inc., Pleasanton, CA (2021)
 Q-Chem 5.4.0 for Intel X86 EM64T Linux

User input:
--------------------------------------------------------------
$molecule
0 1
C	0.240927	-6.741404	-0.089263
C	1.467886	-6.155638	-0.535973
C	-0.777972	-5.791452	0.281103
C	1.729742	-4.803786	-0.631036
H	2.292903	-6.821518	-0.836458
C	-0.503614	-4.378638	0.181995
C	0.746756	-3.838032	-0.272725
C	-1.485437	-3.413062	0.539954
C	1.018915	-2.426473	-0.371053
C	-1.226557	-2.059348	0.446381
C	0.000000	-1.478216	0.000000
H	-2.052413	-1.394783	0.747410
C	-2.134128	-6.187987	0.772747
C	-2.829820	-3.798164	1.029154
N	-3.059182	-5.170003	1.110828
C	3.077731	-4.424987	-1.121728
C	2.375694	-2.036627	-0.864069
N	3.301101	-3.049156	-1.201928
O	-2.502830	-7.353131	0.903908
O	-3.697078	-2.986854	1.345809
O	3.934752	-5.248946	-1.434422
O	2.764177	-0.878829	-1.003943
C	-4.386939	-5.563799	1.592981
H	-4.429822	-6.664085	1.607367
H	-5.164489	-5.147101	0.924504
H	-4.553486	-5.148785	2.605446
C	4.608481	-2.587487	-1.677308
H	5.211969	-3.483329	-1.898089
H	5.094624	-1.964972	-0.902337
H	4.483092	-1.962932	-2.582098
H	0.066080	-7.822318	-0.025963
C	0.000000	0.000000	0.000000
S	0.509686	0.607733	1.580530
C	1.562368	1.862312	0.904911
C	0.641367	0.764613	-0.985400
C	1.489926	1.776040	-0.493528
H	0.489914	0.584081	-2.059934
H	2.056124	2.450920	-1.152593
H	2.128395	2.537007	1.556025
$end

$rem
JOBTYPE		SP
EXCHANGE	HF
CORRELATION	pRIMP2
BASIS		cc-pvtz
METHOD		rimp2
AUX_BASIS	rimp2-cc-pvtz
SOLVENT_METHOD	PCM
PURECART	11111
SYMMETRY	false
MEM_TOTAL	110000
SCF_CONVERGENCE = 6
THRESH=10
GUI = 2
$end

$solvent
dielectric 4.90
$end
--------------------------------------------------------------

             Standard Nuclear Orientation (Angstroms)
    I     Atom           X                Y                Z
 ----------------------------------------------------------------
    1      C       0.2409270000    -6.7414040000    -0.0892630000
    2      C       1.4678860000    -6.1556380000    -0.5359730000
    3      C      -0.7779720000    -5.7914520000     0.2811030000
    4      C       1.7297420000    -4.8037860000    -0.6310360000
    5      H       2.2929030000    -6.8215180000    -0.8364580000
    6      C      -0.5036140000    -4.3786380000     0.1819950000
    7      C       0.7467560000    -3.8380320000    -0.2727250000
    8      C      -1.4854370000    -3.4130620000     0.5399540000
    9      C       1.0189150000    -2.4264730000    -0.3710530000
   10      C      -1.2265570000    -2.0593480000     0.4463810000
   11      C       0.0000000000    -1.4782160000     0.0000000000
   12      H      -2.0524130000    -1.3947830000     0.7474100000
   13      C      -2.1341280000    -6.1879870000     0.7727470000
   14      C      -2.8298200000    -3.7981640000     1.0291540000
   15      N      -3.0591820000    -5.1700030000     1.1108280000
   16      C       3.0777310000    -4.4249870000    -1.1217280000
   17      C       2.3756940000    -2.0366270000    -0.8640690000
   18      N       3.3011010000    -3.0491560000    -1.2019280000
   19      O      -2.5028300000    -7.3531310000     0.9039080000
   20      O      -3.6970780000    -2.9868540000     1.3458090000
   21      O       3.9347520000    -5.2489460000    -1.4344220000
   22      O       2.7641770000    -0.8788290000    -1.0039430000
   23      C      -4.3869390000    -5.5637990000     1.5929810000
   24      H      -4.4298220000    -6.6640850000     1.6073670000
   25      H      -5.1644890000    -5.1471010000     0.9245040000
   26      H      -4.5534860000    -5.1487850000     2.6054460000
   27      C       4.6084810000    -2.5874870000    -1.6773080000
   28      H       5.2119690000    -3.4833290000    -1.8980890000
   29      H       5.0946240000    -1.9649720000    -0.9023370000
   30      H       4.4830920000    -1.9629320000    -2.5820980000
   31      H       0.0660800000    -7.8223180000    -0.0259630000
   32      C       0.0000000000     0.0000000000     0.0000000000
   33      S       0.5096860000     0.6077330000     1.5805300000
   34      C       1.5623680000     1.8623120000     0.9049110000
   35      C       0.6413670000     0.7646130000    -0.9854000000
   36      C       1.4899260000     1.7760400000    -0.4935280000
   37      H       0.4899140000     0.5840810000    -2.0599340000
   38      H       2.0561240000     2.4509200000    -1.1525930000
   39      H       2.1283950000     2.5370070000     1.5560250000
 ----------------------------------------------------------------

   10   -1570.6584670142      9.68e-07  Convergence criterion met
 Total energy in the final basis set =    -1570.6584670142
        RIMP2         total energy =     -1575.2903778305 a.u.

                    Orbital Energies (a.u.)
 --------------------------------------------------------------

 Alpha MOs
 -- Occupied --
-91.9901 -20.5579 -20.5550 -20.5541 -20.5525 -15.6302 -15.6297 -11.3993
-11.3944 -11.3916 -11.3891 -11.3128 -11.3016 -11.3004 -11.2989 -11.2960
-11.2958 -11.2920 -11.2844 -11.2835 -11.2792 -11.2724 -11.2708 -11.2646
-11.2642 -11.2639 -11.2480  -8.9897  -6.6705  -6.6699  -6.6693  -1.4240
 -1.4229  -1.4032  -1.4020  -1.2665  -1.2642  -1.2157  -1.1762  -1.1421
 -1.1153  -1.0606  -1.0478  -0.9921  -0.9881  -0.9848  -0.9583  -0.9476
 -0.8954  -0.8784  -0.8732  -0.8598  -0.7925  -0.7754  -0.7721  -0.7599
 -0.7357  -0.7175  -0.7042  -0.6938  -0.6797  -0.6706  -0.6654  -0.6614
 -0.6556  -0.6418  -0.6362  -0.6338  -0.6277  -0.6111  -0.5851  -0.5836
 -0.5760  -0.5751  -0.5652  -0.5630  -0.5581  -0.5543  -0.5514  -0.5481
 -0.5362  -0.5256  -0.5193  -0.5072  -0.4814  -0.4702  -0.4636  -0.4594
 -0.4554  -0.4503  -0.4270  -0.4174  -0.4075  -0.3596  -0.3438  -0.3329
 -0.3165

          Ground-State Mulliken Net Atomic Charges

     Atom                 Charge (a.u.)
  ----------------------------------------
      1 C                    -0.137887
      2 C                    -0.107871
      3 C                    -0.039781
      4 C                    -0.002909
      5 H                     0.187970
      6 C                    -0.012578
      7 C                     0.075114
      8 C                     0.023273
      9 C                    -0.024580
     10 C                    -0.164333
     11 C                     0.084827
     12 H                     0.181870
     13 C                     0.360885
     14 C                     0.364765
     15 N                    -0.101345
     16 C                     0.358146
     17 C                     0.375934
     18 N                    -0.093154
     19 O                    -0.465351
     20 O                    -0.476511
     21 O                    -0.481968
     22 O                    -0.463818
     23 C                    -0.201312
     24 H                     0.140779
     25 H                     0.112224
     26 H                     0.112316
     27 C                    -0.196634
     28 H                     0.134015
     29 H                     0.112790
     30 H                     0.111344
     31 H                     0.213404
     32 C                    -0.110624
     33 S                     0.030566
     34 C                    -0.185357
     35 C                    -0.129020
     36 C                    -0.171308
     37 H                     0.186588
     38 H                     0.186141
     39 H                     0.213390
  ----------------------------------------
  Sum of atomic charges =     0.000000

                    Cartesian Multipole Moments
 -----------------------------------------------------------------
    Charge (ESU x 10^10)
                 0.0000
    Dipole Moment (Debye)
         X       2.0425      Y       1.5413      Z      -1.1703
       Tot       2.8137
    Quadrupole Moments (Debye-Ang)
        XX    -177.3633     XY       5.6679     YY    -172.0643
        XZ       7.2072     YZ       0.8010     ZZ    -159.7567

 Total job time:  253.09s(wall), 7868.32s(cpu)
        *  Thank you very much for using Q-Chem.  Have a nice day.  *
