 Q-Chem 5.4, Q-Chem, Inc., Pleasanton, CA (2021)
 Q-Chem 5.4.0 for Intel X86 EM64T Linux

User input:
--------------------------------------------------------------
$molecule
0 1
C	0.223244	-6.741404	0.127184
C	1.354118	-6.155638	0.779949
C	-0.715408	-5.791452	-0.415271
C	1.595259	-4.803786	0.919437
H	2.114613	-6.821518	1.218801
C	-0.463133	-4.378638	-0.268806
C	0.688925	-3.838032	0.396744
C	-1.368449	-3.413062	-0.790835
C	0.939189	-2.426473	0.542026
C	-1.130363	-2.059348	-0.652669
C	-0.000000	-1.478216	-0.000000
H	-1.891815	-1.394783	-1.091814
C	-1.963749	-6.187987	-1.138124
C	-2.607351	-3.798164	-1.506241
N	-2.817348	-5.170003	-1.629443
C	2.837621	-4.424987	1.636646
C	2.188982	-2.036627	1.264474
N	3.042637	-3.049156	1.756205
O	-2.301222	-7.353131	-1.336258
O	-3.407386	-2.986854	-1.967056
O	3.628041	-5.248946	2.092167
O	2.545844	-0.878829	1.472160
C	-4.040164	-5.563799	-2.336642
H	-4.078749	-6.664085	-2.360245
H	-4.027880	-5.147101	-3.361968
H	-4.922811	-5.148785	-1.813424
C	4.247167	-2.587487	2.452149
H	4.804209	-3.483329	2.772531
H	3.965991	-1.964972	3.322697
H	4.859678	-1.962932	1.774507
H	0.062364	-7.822318	0.033931
C	0.000000	0.000000	0.000000
S	-0.000201	0.793171	1.580530
C	-0.000228	2.430885	0.904911
C	-0.000168	0.997990	-0.985400
C	-0.000267	2.318231	-0.493528
H	-0.000145	0.762343	-2.059934
H	-0.000339	3.199164	-1.152593
H	-0.000311	3.311566	1.556025
$end

$rem
JOBTYPE		SP
EXCHANGE	HF
CORRELATION	pRIMP2
BASIS		cc-pvtz
METHOD		rimp2
AUX_BASIS	rimp2-cc-pvtz
SOLVENT_METHOD	PCM
PURECART	11111
SYMMETRY	false
MEM_TOTAL	110000
SCF_CONVERGENCE = 6
THRESH=10
GUI = 2
$end

$solvent
dielectric 4.90
$end
--------------------------------------------------------------

             Standard Nuclear Orientation (Angstroms)
    I     Atom           X                Y                Z
 ----------------------------------------------------------------
    1      C       0.2232440000    -6.7414040000     0.1271840000
    2      C       1.3541180000    -6.1556380000     0.7799490000
    3      C      -0.7154080000    -5.7914520000    -0.4152710000
    4      C       1.5952590000    -4.8037860000     0.9194370000
    5      H       2.1146130000    -6.8215180000     1.2188010000
    6      C      -0.4631330000    -4.3786380000    -0.2688060000
    7      C       0.6889250000    -3.8380320000     0.3967440000
    8      C      -1.3684490000    -3.4130620000    -0.7908350000
    9      C       0.9391890000    -2.4264730000     0.5420260000
   10      C      -1.1303630000    -2.0593480000    -0.6526690000
   11      C       0.0000000000    -1.4782160000     0.0000000000
   12      H      -1.8918150000    -1.3947830000    -1.0918140000
   13      C      -1.9637490000    -6.1879870000    -1.1381240000
   14      C      -2.6073510000    -3.7981640000    -1.5062410000
   15      N      -2.8173480000    -5.1700030000    -1.6294430000
   16      C       2.8376210000    -4.4249870000     1.6366460000
   17      C       2.1889820000    -2.0366270000     1.2644740000
   18      N       3.0426370000    -3.0491560000     1.7562050000
   19      O      -2.3012220000    -7.3531310000    -1.3362580000
   20      O      -3.4073860000    -2.9868540000    -1.9670560000
   21      O       3.6280410000    -5.2489460000     2.0921670000
   22      O       2.5458440000    -0.8788290000     1.4721600000
   23      C      -4.0401640000    -5.5637990000    -2.3366420000
   24      H      -4.0787490000    -6.6640850000    -2.3602450000
   25      H      -4.0278800000    -5.1471010000    -3.3619680000
   26      H      -4.9228110000    -5.1487850000    -1.8134240000
   27      C       4.2471670000    -2.5874870000     2.4521490000
   28      H       4.8042090000    -3.4833290000     2.7725310000
   29      H       3.9659910000    -1.9649720000     3.3226970000
   30      H       4.8596780000    -1.9629320000     1.7745070000
   31      H       0.0623640000    -7.8223180000     0.0339310000
   32      C       0.0000000000     0.0000000000     0.0000000000
   33      S      -0.0002010000     0.7931710000     1.5805300000
   34      C      -0.0002280000     2.4308850000     0.9049110000
   35      C      -0.0001680000     0.9979900000    -0.9854000000
   36      C      -0.0002670000     2.3182310000    -0.4935280000
   37      H      -0.0001450000     0.7623430000    -2.0599340000
   38      H      -0.0003390000     3.1991640000    -1.1525930000
   39      H      -0.0003110000     3.3115660000     1.5560250000
 ----------------------------------------------------------------

   10   -1570.6884751622      7.12e-07  Convergence criterion met
 Total energy in the final basis set =    -1570.6884751622
        RIMP2         total energy =     -1575.3139334942 a.u.

                    Orbital Energies (a.u.)
 --------------------------------------------------------------

 Alpha MOs
 -- Occupied --
-91.9875 -20.5589 -20.5566 -20.5553 -20.5551 -15.6315 -15.6307 -11.4005
-11.3963 -11.3927 -11.3909 -11.3166 -11.3068 -11.3032 -11.3015 -11.2992
-11.2986 -11.2925 -11.2867 -11.2865 -11.2815 -11.2808 -11.2787 -11.2648
-11.2645 -11.2574 -11.2484  -8.9869  -6.6677  -6.6671  -6.6666  -1.4252
 -1.4240  -1.4045  -1.4031  -1.2678  -1.2653  -1.2181  -1.1738  -1.1443
 -1.1181  -1.0633  -1.0505  -0.9933  -0.9889  -0.9822  -0.9593  -0.9485
 -0.8973  -0.8799  -0.8781  -0.8616  -0.7952  -0.7774  -0.7737  -0.7604
 -0.7348  -0.7191  -0.7052  -0.6950  -0.6815  -0.6737  -0.6665  -0.6623
 -0.6572  -0.6421  -0.6378  -0.6338  -0.6300  -0.6131  -0.5850  -0.5843
 -0.5783  -0.5719  -0.5663  -0.5643  -0.5642  -0.5554  -0.5534  -0.5485
 -0.5339  -0.5258  -0.5203  -0.5166  -0.4834  -0.4713  -0.4658  -0.4598
 -0.4587  -0.4529  -0.4284  -0.4183  -0.4092  -0.3605  -0.3487  -0.3362
 -0.3139

          Ground-State Mulliken Net Atomic Charges

     Atom                 Charge (a.u.)
  ----------------------------------------
      1 C                    -0.132328
      2 C                    -0.108162
      3 C                    -0.042353
      4 C                    -0.002187
      5 H                     0.189032
      6 C                    -0.000789
      7 C                     0.074396
      8 C                     0.003925
      9 C                    -0.033011
     10 C                    -0.130686
     11 C                     0.077394
     12 H                     0.184366
     13 C                     0.360959
     14 C                     0.368238
     15 N                    -0.101717
     16 C                     0.359718
     17 C                     0.359814
     18 N                    -0.095406
     19 O                    -0.464668
     20 O                    -0.476467
     21 O                    -0.480395
     22 O                    -0.455697
     23 C                    -0.200969
     24 H                     0.141123
     25 H                     0.112324
     26 H                     0.112586
     27 C                    -0.196132
     28 H                     0.133678
     29 H                     0.113131
     30 H                     0.113251
     31 H                     0.214346
     32 C                    -0.045689
     33 S                     0.047815
     34 C                    -0.206387
     35 C                    -0.179885
     36 C                    -0.207650
     37 H                     0.192804
     38 H                     0.190813
     39 H                     0.210866
  ----------------------------------------
  Sum of atomic charges =     0.000000

                    Cartesian Multipole Moments
 -----------------------------------------------------------------
    Charge (ESU x 10^10)
                 0.0000
    Dipole Moment (Debye)
         X       0.1412      Y       0.8663      Z      -0.7903
       Tot       1.1811
    Quadrupole Moments (Debye-Ang)
        XX    -179.3945     XY      -0.6213     YY    -164.5386
        XZ      -8.5259     YZ       0.2670     ZZ    -162.4536

 Total job time:  264.00s(wall), 7728.56s(cpu)
        *  Thank you very much for using Q-Chem.  Have a nice day.  *
