 Q-Chem 5.4, Q-Chem, Inc., Pleasanton, CA (2021)
 Q-Chem 5.4.0 for Intel X86 EM64T Linux

User input:
--------------------------------------------------------------
$molecule
0 1
C	-0.043160	-6.741404	0.253280
C	-0.269777	-6.155638	1.539213
C	0.145543	-5.791452	-0.814295
C	-0.318377	-4.803786	1.813519
H	-0.422058	-6.821518	2.403941
C	0.094194	-4.378638	-0.527140
C	-0.137191	-3.838032	0.783072
C	0.275104	-3.413062	-1.556403
C	-0.188116	-2.426473	1.067932
C	0.226701	-2.059348	-1.285420
C	-0.000000	-1.478216	-0.000000
H	0.378931	-1.394783	-2.151147
C	0.397845	-6.187987	-2.234582
C	0.523637	-3.798164	-2.965273
N	0.567586	-5.170003	-3.204744
C	-0.567421	-4.424987	3.226257
C	-0.439541	-2.036627	2.489446
N	-0.609650	-3.049156	3.459801
O	0.468608	-7.353131	-2.619468
O	0.683034	-2.986854	-3.874668
O	-0.725131	-5.248946	4.124806
O	-0.512648	-0.878829	2.895819
C	0.813908	-5.563799	-4.595691
H	0.822891	-6.664085	-4.640022
H	1.781600	-5.147101	-4.934830
H	0.020360	-5.148785	-5.246157
C	-0.851649	-2.587487	4.829716
H	-0.962191	-3.483329	5.462742
H	-1.765865	-1.964972	4.863242
H	-0.005383	-1.962932	5.173521
H	-0.010555	-7.822318	0.070208
C	0.000000	0.000000	0.000000
S	0.396411	0.687007	1.580530
C	1.215245	2.105322	0.904911
C	0.498850	0.864369	-0.985400
C	1.158885	2.007781	-0.493528
H	0.381046	0.660280	-2.059934
H	1.599289	2.770727	-1.152593
H	1.655514	2.868056	1.556025
$end

$rem
JOBTYPE		SP
EXCHANGE	HF
CORRELATION	pRIMP2
BASIS		cc-pvtz
METHOD		rimp2
AUX_BASIS	rimp2-cc-pvtz
SOLVENT_METHOD	PCM
PURECART	11111
SYMMETRY	false
MEM_TOTAL	110000
SCF_CONVERGENCE = 6
THRESH=10
GUI = 2
$end

$solvent
dielectric 4.90
$end
--------------------------------------------------------------

             Standard Nuclear Orientation (Angstroms)
    I     Atom           X                Y                Z
 ----------------------------------------------------------------
    1      C      -0.0431600000    -6.7414040000     0.2532800000
    2      C      -0.2697770000    -6.1556380000     1.5392130000
    3      C       0.1455430000    -5.7914520000    -0.8142950000
    4      C      -0.3183770000    -4.8037860000     1.8135190000
    5      H      -0.4220580000    -6.8215180000     2.4039410000
    6      C       0.0941940000    -4.3786380000    -0.5271400000
    7      C      -0.1371910000    -3.8380320000     0.7830720000
    8      C       0.2751040000    -3.4130620000    -1.5564030000
    9      C      -0.1881160000    -2.4264730000     1.0679320000
   10      C       0.2267010000    -2.0593480000    -1.2854200000
   11      C       0.0000000000    -1.4782160000     0.0000000000
   12      H       0.3789310000    -1.3947830000    -2.1511470000
   13      C       0.3978450000    -6.1879870000    -2.2345820000
   14      C       0.5236370000    -3.7981640000    -2.9652730000
   15      N       0.5675860000    -5.1700030000    -3.2047440000
   16      C      -0.5674210000    -4.4249870000     3.2262570000
   17      C      -0.4395410000    -2.0366270000     2.4894460000
   18      N      -0.6096500000    -3.0491560000     3.4598010000
   19      O       0.4686080000    -7.3531310000    -2.6194680000
   20      O       0.6830340000    -2.9868540000    -3.8746680000
   21      O      -0.7251310000    -5.2489460000     4.1248060000
   22      O      -0.5126480000    -0.8788290000     2.8958190000
   23      C       0.8139080000    -5.5637990000    -4.5956910000
   24      H       0.8228910000    -6.6640850000    -4.6400220000
   25      H       1.7816000000    -5.1471010000    -4.9348300000
   26      H       0.0203600000    -5.1487850000    -5.2461570000
   27      C      -0.8516490000    -2.5874870000     4.8297160000
   28      H      -0.9621910000    -3.4833290000     5.4627420000
   29      H      -1.7658650000    -1.9649720000     4.8632420000
   30      H      -0.0053830000    -1.9629320000     5.1735210000
   31      H      -0.0105550000    -7.8223180000     0.0702080000
   32      C       0.0000000000     0.0000000000     0.0000000000
   33      S       0.3964110000     0.6870070000     1.5805300000
   34      C       1.2152450000     2.1053220000     0.9049110000
   35      C       0.4988500000     0.8643690000    -0.9854000000
   36      C       1.1588850000     2.0077810000    -0.4935280000
   37      H       0.3810460000     0.6602800000    -2.0599340000
   38      H       1.5992890000     2.7707270000    -1.1525930000
   39      H       1.6555140000     2.8680560000     1.5560250000
 ----------------------------------------------------------------

   10   -1570.6467965064      9.76e-07  Convergence criterion met
 Total energy in the final basis set =    -1570.6467965064
        RIMP2         total energy =     -1575.2857473358 a.u.

                    Orbital Energies (a.u.)
 --------------------------------------------------------------

 Alpha MOs
 -- Occupied --
-91.9790 -20.5586 -20.5585 -20.5567 -20.5531 -15.6313 -15.6310 -11.3998
-11.3981 -11.3909 -11.3909 -11.3214 -11.3017 -11.3000 -11.2958 -11.2936
-11.2923 -11.2869 -11.2861 -11.2820 -11.2783 -11.2779 -11.2770 -11.2666
-11.2649 -11.2647 -11.2461  -8.9786  -6.6591  -6.6578  -6.6570  -1.4313
 -1.4250  -1.4064  -1.4044  -1.2686  -1.2662  -1.2164  -1.1759  -1.1421
 -1.1157  -1.0614  -1.0487  -0.9926  -0.9901  -0.9842  -0.9588  -0.9465
 -0.8966  -0.8794  -0.8769  -0.8623  -0.7927  -0.7780  -0.7762  -0.7622
 -0.7319  -0.7240  -0.7033  -0.6930  -0.6889  -0.6745  -0.6673  -0.6629
 -0.6568  -0.6402  -0.6374  -0.6359  -0.6263  -0.6144  -0.5841  -0.5838
 -0.5816  -0.5749  -0.5710  -0.5652  -0.5644  -0.5561  -0.5556  -0.5489
 -0.5328  -0.5270  -0.5199  -0.5160  -0.4899  -0.4736  -0.4638  -0.4625
 -0.4567  -0.4322  -0.4211  -0.4098  -0.3959  -0.3753  -0.3471  -0.3368
 -0.2963

          Ground-State Mulliken Net Atomic Charges

     Atom                 Charge (a.u.)
  ----------------------------------------
      1 C                    -0.150414
      2 C                    -0.111249
      3 C                    -0.026196
      4 C                    -0.005303
      5 H                     0.187662
      6 C                    -0.000357
      7 C                     0.078688
      8 C                     0.009592
      9 C                    -0.094256
     10 C                    -0.131519
     11 C                     0.065737
     12 H                     0.179441
     13 C                     0.358710
     14 C                     0.362965
     15 N                    -0.101738
     16 C                     0.357965
     17 C                     0.376438
     18 N                    -0.092214
     19 O                    -0.463888
     20 O                    -0.477877
     21 O                    -0.483614
     22 O                    -0.459794
     23 C                    -0.201344
     24 H                     0.141287
     25 H                     0.112244
     26 H                     0.112326
     27 C                    -0.198188
     28 H                     0.134811
     29 H                     0.113144
     30 H                     0.113151
     31 H                     0.211924
     32 C                     0.010741
     33 S                     0.106755
     34 C                    -0.218370
     35 C                    -0.184091
     36 C                    -0.217834
     37 H                     0.189357
     38 H                     0.187034
     39 H                     0.208276
  ----------------------------------------
  Sum of atomic charges =     0.000000

                    Cartesian Multipole Moments
 -----------------------------------------------------------------
    Charge (ESU x 10^10)
                 0.0000
    Dipole Moment (Debye)
         X       1.0003      Y       1.7141      Z      -0.4408
       Tot       2.0330
    Quadrupole Moments (Debye-Ang)
        XX    -162.0542     XY       4.5347     YY    -173.9461
        XZ       3.8339     YZ       0.7510     ZZ    -175.8280

 Total job time:  253.12s(wall), 7871.42s(cpu)
        *  Thank you very much for using Q-Chem.  Have a nice day.  *
