 Q-Chem 5.4, Q-Chem, Inc., Pleasanton, CA (2021)
 Q-Chem 5.4.0 for Intel X86 EM64T Linux

User input:
--------------------------------------------------------------
$molecule
0 1
C	-0.046070	-6.741404	-0.252767
C	-0.272935	-6.155638	-1.538656
C	0.141739	-5.791452	0.814966
C	-0.321083	-4.803786	-1.813042
H	-0.425592	-6.821518	-2.403318
C	0.091779	-4.378638	0.527566
C	-0.138909	-3.838032	-0.782769
C	0.273808	-3.413062	1.556632
C	-0.188483	-2.426473	-1.067868
C	0.226610	-2.059348	1.285436
C	-0.000000	-1.478216	-0.000000
H	0.379657	-1.394783	2.151019
C	0.390420	-6.187987	2.235891
C	0.522125	-3.798164	2.965540
N	0.562731	-5.170003	3.205600
C	-0.570244	-4.424987	-3.225760
C	-0.438407	-2.036627	-2.489646
N	-0.610438	-3.049156	-3.459662
O	0.455563	-7.353131	2.621768
O	0.683373	-2.986854	3.874608
O	-0.729367	-5.248946	-4.124059
O	-0.508697	-0.878829	-2.896516
C	0.806996	-5.563799	4.596910
H	0.813717	-6.664085	4.641640
H	0.013655	-5.147101	5.246567
H	1.775159	-5.148785	4.936739
C	-0.851572	-2.587487	-4.829729
H	-0.964204	-3.483329	-5.462387
H	-0.003956	-1.964972	-5.173914
H	-1.764390	-1.962932	-4.863360
H	-0.014094	-7.822318	-0.069584
C	0.000000	0.000000	0.000000
S	0.271091	0.745405	1.580530
C	0.831198	2.284363	0.904911
C	0.341175	0.937861	-0.985400
C	0.792631	2.178516	-0.493528
H	0.260601	0.716417	-2.059934
H	1.093860	3.006347	-1.152593
H	1.132330	3.111961	1.556025
$end

$rem
JOBTYPE		SP
EXCHANGE	HF
CORRELATION	pRIMP2
BASIS		cc-pvtz
METHOD		rimp2
AUX_BASIS	rimp2-cc-pvtz
SOLVENT_METHOD	PCM
PURECART	11111
SYMMETRY	false
MEM_TOTAL	110000
SCF_CONVERGENCE = 6
THRESH=10
GUI = 2
$end

$solvent
dielectric 4.90
$end
--------------------------------------------------------------

             Standard Nuclear Orientation (Angstroms)
    I     Atom           X                Y                Z
 ----------------------------------------------------------------
    1      C      -0.0460700000    -6.7414040000    -0.2527670000
    2      C      -0.2729350000    -6.1556380000    -1.5386560000
    3      C       0.1417390000    -5.7914520000     0.8149660000
    4      C      -0.3210830000    -4.8037860000    -1.8130420000
    5      H      -0.4255920000    -6.8215180000    -2.4033180000
    6      C       0.0917790000    -4.3786380000     0.5275660000
    7      C      -0.1389090000    -3.8380320000    -0.7827690000
    8      C       0.2738080000    -3.4130620000     1.5566320000
    9      C      -0.1884830000    -2.4264730000    -1.0678680000
   10      C       0.2266100000    -2.0593480000     1.2854360000
   11      C       0.0000000000    -1.4782160000     0.0000000000
   12      H       0.3796570000    -1.3947830000     2.1510190000
   13      C       0.3904200000    -6.1879870000     2.2358910000
   14      C       0.5221250000    -3.7981640000     2.9655400000
   15      N       0.5627310000    -5.1700030000     3.2056000000
   16      C      -0.5702440000    -4.4249870000    -3.2257600000
   17      C      -0.4384070000    -2.0366270000    -2.4896460000
   18      N      -0.6104380000    -3.0491560000    -3.4596620000
   19      O       0.4555630000    -7.3531310000     2.6217680000
   20      O       0.6833730000    -2.9868540000     3.8746080000
   21      O      -0.7293670000    -5.2489460000    -4.1240590000
   22      O      -0.5086970000    -0.8788290000    -2.8965160000
   23      C       0.8069960000    -5.5637990000     4.5969100000
   24      H       0.8137170000    -6.6640850000     4.6416400000
   25      H       0.0136550000    -5.1471010000     5.2465670000
   26      H       1.7751590000    -5.1487850000     4.9367390000
   27      C      -0.8515720000    -2.5874870000    -4.8297290000
   28      H      -0.9642040000    -3.4833290000    -5.4623870000
   29      H      -0.0039560000    -1.9649720000    -5.1739140000
   30      H      -1.7643900000    -1.9629320000    -4.8633600000
   31      H      -0.0140940000    -7.8223180000    -0.0695840000
   32      C       0.0000000000     0.0000000000     0.0000000000
   33      S       0.2710910000     0.7454050000     1.5805300000
   34      C       0.8311980000     2.2843630000     0.9049110000
   35      C       0.3411750000     0.9378610000    -0.9854000000
   36      C       0.7926310000     2.1785160000    -0.4935280000
   37      H       0.2606010000     0.7164170000    -2.0599340000
   38      H       1.0938600000     3.0063470000    -1.1525930000
   39      H       1.1323300000     3.1119610000     1.5560250000
 ----------------------------------------------------------------

   10   -1570.6789498602      8.27e-07  Convergence criterion met
 Total energy in the final basis set =    -1570.6789498602
        RIMP2         total energy =     -1575.3082131549 a.u.

                    Orbital Energies (a.u.)
 --------------------------------------------------------------

 Alpha MOs
 -- Occupied --
-91.9930 -20.5583 -20.5563 -20.5554 -20.5532 -15.6310 -15.6302 -11.3996
-11.3964 -11.3910 -11.3906 -11.3197 -11.3017 -11.2996 -11.2971 -11.2945
-11.2936 -11.2927 -11.2903 -11.2869 -11.2828 -11.2787 -11.2767 -11.2647
-11.2643 -11.2573 -11.2508  -8.9931  -6.6739  -6.6734  -6.6728  -1.4249
 -1.4246  -1.4040  -1.4034  -1.2672  -1.2650  -1.2167  -1.1791  -1.1436
 -1.1158  -1.0636  -1.0490  -0.9923  -0.9907  -0.9885  -0.9585  -0.9470
 -0.8969  -0.8787  -0.8783  -0.8609  -0.7966  -0.7801  -0.7727  -0.7626
 -0.7355  -0.7220  -0.7033  -0.6943  -0.6819  -0.6739  -0.6662  -0.6620
 -0.6558  -0.6414  -0.6369  -0.6335  -0.6277  -0.6128  -0.5910  -0.5836
 -0.5798  -0.5717  -0.5671  -0.5635  -0.5619  -0.5560  -0.5535  -0.5471
 -0.5371  -0.5255  -0.5243  -0.5135  -0.4819  -0.4685  -0.4656  -0.4612
 -0.4585  -0.4514  -0.4288  -0.4188  -0.4096  -0.3770  -0.3558  -0.3361
 -0.2998

          Ground-State Mulliken Net Atomic Charges

     Atom                 Charge (a.u.)
  ----------------------------------------
      1 C                    -0.145675
      2 C                    -0.111302
      3 C                    -0.028000
      4 C                    -0.004274
      5 H                     0.187848
      6 C                     0.001034
      7 C                     0.073963
      8 C                     0.054622
      9 C                    -0.077787
     10 C                    -0.173019
     11 C                     0.039446
     12 H                     0.172425
     13 C                     0.358062
     14 C                     0.362255
     15 N                    -0.101417
     16 C                     0.358862
     17 C                     0.381005
     18 N                    -0.093154
     19 O                    -0.464265
     20 O                    -0.476891
     21 O                    -0.483567
     22 O                    -0.482143
     23 C                    -0.201269
     24 H                     0.141119
     25 H                     0.112499
     26 H                     0.112389
     27 C                    -0.198026
     28 H                     0.134351
     29 H                     0.112115
     30 H                     0.112877
     31 H                     0.212480
     32 C                     0.004340
     33 S                     0.007447
     34 C                    -0.172839
     35 C                    -0.120975
     36 C                    -0.243668
     37 H                     0.227527
     38 H                     0.192613
     39 H                     0.218994
  ----------------------------------------
  Sum of atomic charges =     0.000000

                    Cartesian Multipole Moments
 -----------------------------------------------------------------
    Charge (ESU x 10^10)
                -0.0000
    Dipole Moment (Debye)
         X       0.9732      Y       2.2881      Z      -0.7270
       Tot       2.5905
    Quadrupole Moments (Debye-Ang)
        XX    -163.1795     XY       3.7257     YY    -169.7434
        XZ      -3.3023     YZ       0.4573     ZZ    -177.6169

 Total job time:  276.40s(wall), 8815.06s(cpu)
        *  Thank you very much for using Q-Chem.  Have a nice day.  *
