 Q-Chem 5.4, Q-Chem, Inc., Pleasanton, CA (2021)
 Q-Chem 5.4.0 for Intel X86 EM64T Linux

User input:
--------------------------------------------------------------
$molecule
0 1
C	0.240927	-6.741404	-0.089263
C	1.467886	-6.155638	-0.535973
C	-0.777972	-5.791452	0.281103
C	1.729742	-4.803786	-0.631036
H	2.292903	-6.821518	-0.836458
C	-0.503614	-4.378638	0.181995
C	0.746756	-3.838032	-0.272725
C	-1.485437	-3.413062	0.539954
C	1.018915	-2.426473	-0.371053
C	-1.226557	-2.059348	0.446381
C	0.000000	-1.478216	0.000000
H	-2.052413	-1.394783	0.747410
C	-2.134128	-6.187987	0.772747
C	-2.829820	-3.798164	1.029154
N	-3.059182	-5.170003	1.110828
C	3.077731	-4.424987	-1.121728
C	2.375694	-2.036627	-0.864069
N	3.301101	-3.049156	-1.201928
O	-2.502830	-7.353131	0.903908
O	-3.697078	-2.986854	1.345809
O	3.934752	-5.248946	-1.434422
O	2.764177	-0.878829	-1.003943
C	-4.386939	-5.563799	1.592981
H	-4.429822	-6.664085	1.607367
H	-5.164489	-5.147101	0.924504
H	-4.553486	-5.148785	2.605446
C	4.608481	-2.587487	-1.677308
H	5.211969	-3.483329	-1.898089
H	5.094624	-1.964972	-0.902337
H	4.483092	-1.962932	-2.582098
H	0.066080	-7.822318	-0.025963
C	0.000000	0.000000	0.000000
S	0.205093	0.766196	1.580530
C	0.628939	2.348114	0.904911
C	0.258137	0.964028	-0.985400
C	0.599745	2.239309	-0.493528
H	0.197169	0.736404	-2.059934
H	0.827678	3.090243	-1.152593
H	0.856796	3.198808	1.556025
$end

$rem
JOBTYPE		SP
EXCHANGE	HF
CORRELATION	pRIMP2
BASIS		cc-pvtz
METHOD		rimp2
AUX_BASIS	rimp2-cc-pvtz
SOLVENT_METHOD	PCM
PURECART	11111
SYMMETRY	false
MEM_TOTAL	110000
SCF_CONVERGENCE = 6
THRESH=10
GUI = 2
$end

$solvent
dielectric 4.90
$end
--------------------------------------------------------------

             Standard Nuclear Orientation (Angstroms)
    I     Atom           X                Y                Z
 ----------------------------------------------------------------
    1      C       0.2409270000    -6.7414040000    -0.0892630000
    2      C       1.4678860000    -6.1556380000    -0.5359730000
    3      C      -0.7779720000    -5.7914520000     0.2811030000
    4      C       1.7297420000    -4.8037860000    -0.6310360000
    5      H       2.2929030000    -6.8215180000    -0.8364580000
    6      C      -0.5036140000    -4.3786380000     0.1819950000
    7      C       0.7467560000    -3.8380320000    -0.2727250000
    8      C      -1.4854370000    -3.4130620000     0.5399540000
    9      C       1.0189150000    -2.4264730000    -0.3710530000
   10      C      -1.2265570000    -2.0593480000     0.4463810000
   11      C       0.0000000000    -1.4782160000     0.0000000000
   12      H      -2.0524130000    -1.3947830000     0.7474100000
   13      C      -2.1341280000    -6.1879870000     0.7727470000
   14      C      -2.8298200000    -3.7981640000     1.0291540000
   15      N      -3.0591820000    -5.1700030000     1.1108280000
   16      C       3.0777310000    -4.4249870000    -1.1217280000
   17      C       2.3756940000    -2.0366270000    -0.8640690000
   18      N       3.3011010000    -3.0491560000    -1.2019280000
   19      O      -2.5028300000    -7.3531310000     0.9039080000
   20      O      -3.6970780000    -2.9868540000     1.3458090000
   21      O       3.9347520000    -5.2489460000    -1.4344220000
   22      O       2.7641770000    -0.8788290000    -1.0039430000
   23      C      -4.3869390000    -5.5637990000     1.5929810000
   24      H      -4.4298220000    -6.6640850000     1.6073670000
   25      H      -5.1644890000    -5.1471010000     0.9245040000
   26      H      -4.5534860000    -5.1487850000     2.6054460000
   27      C       4.6084810000    -2.5874870000    -1.6773080000
   28      H       5.2119690000    -3.4833290000    -1.8980890000
   29      H       5.0946240000    -1.9649720000    -0.9023370000
   30      H       4.4830920000    -1.9629320000    -2.5820980000
   31      H       0.0660800000    -7.8223180000    -0.0259630000
   32      C       0.0000000000     0.0000000000     0.0000000000
   33      S       0.2050930000     0.7661960000     1.5805300000
   34      C       0.6289390000     2.3481140000     0.9049110000
   35      C       0.2581370000     0.9640280000    -0.9854000000
   36      C       0.5997450000     2.2393090000    -0.4935280000
   37      H       0.1971690000     0.7364040000    -2.0599340000
   38      H       0.8276780000     3.0902430000    -1.1525930000
   39      H       0.8567960000     3.1988080000     1.5560250000
 ----------------------------------------------------------------

   10   -1570.6860479034      7.42e-07  Convergence criterion met
 Total energy in the final basis set =    -1570.6860479034
        RIMP2         total energy =     -1575.3111084307 a.u.

                    Orbital Energies (a.u.)
 --------------------------------------------------------------

 Alpha MOs
 -- Occupied --
-91.9929 -20.5586 -20.5561 -20.5555 -20.5553 -15.6312 -15.6308 -11.4003
-11.3964 -11.3929 -11.3904 -11.3151 -11.3065 -11.3030 -11.3011 -11.2991
-11.2986 -11.2880 -11.2867 -11.2859 -11.2836 -11.2807 -11.2776 -11.2647
-11.2645 -11.2557 -11.2498  -8.9921  -6.6729  -6.6725  -6.6718  -1.4249
 -1.4239  -1.4042  -1.4029  -1.2676  -1.2652  -1.2178  -1.1744  -1.1443
 -1.1177  -1.0631  -1.0501  -0.9931  -0.9892  -0.9829  -0.9593  -0.9487
 -0.8971  -0.8798  -0.8773  -0.8614  -0.7953  -0.7773  -0.7730  -0.7593
 -0.7375  -0.7182  -0.7052  -0.6951  -0.6804  -0.6724  -0.6664  -0.6623
 -0.6570  -0.6425  -0.6375  -0.6338  -0.6300  -0.6125  -0.5857  -0.5844
 -0.5777  -0.5734  -0.5658  -0.5640  -0.5607  -0.5552  -0.5523  -0.5486
 -0.5355  -0.5266  -0.5197  -0.5166  -0.4832  -0.4708  -0.4659  -0.4609
 -0.4598  -0.4533  -0.4282  -0.4181  -0.4089  -0.3572  -0.3524  -0.3347
 -0.3176

          Ground-State Mulliken Net Atomic Charges

     Atom                 Charge (a.u.)
  ----------------------------------------
      1 C                    -0.131412
      2 C                    -0.107341
      3 C                    -0.043279
      4 C                    -0.001447
      5 H                     0.188789
      6 C                    -0.010630
      7 C                     0.075100
      8 C                     0.016215
      9 C                     0.000225
     10 C                    -0.161232
     11 C                     0.094435
     12 H                     0.182248
     13 C                     0.361265
     14 C                     0.369534
     15 N                    -0.101747
     16 C                     0.359400
     17 C                     0.360194
     18 N                    -0.095294
     19 O                    -0.464864
     20 O                    -0.476159
     21 O                    -0.480146
     22 O                    -0.456504
     23 C                    -0.200944
     24 H                     0.140977
     25 H                     0.112447
     26 H                     0.112534
     27 C                    -0.196217
     28 H                     0.133748
     29 H                     0.113599
     30 H                     0.112346
     31 H                     0.214478
     32 C                    -0.079480
     33 S                     0.032799
     34 C                    -0.206392
     35 C                    -0.155287
     36 C                    -0.200464
     37 H                     0.185984
     38 H                     0.190290
     39 H                     0.212231
  ----------------------------------------
  Sum of atomic charges =     0.000000

                    Cartesian Multipole Moments
 -----------------------------------------------------------------
    Charge (ESU x 10^10)
                 0.0000
    Dipole Moment (Debye)
         X       0.6609      Y       0.9933      Z      -1.0205
       Tot       1.5700
    Quadrupole Moments (Debye-Ang)
        XX    -181.4213     XY       2.0034     YY    -165.0046
        XZ       6.7405     YZ       1.0085     ZZ    -159.8690

 Total job time:  438.43s(wall), 17951.72s(cpu)
        *  Thank you very much for using Q-Chem.  Have a nice day.  *
