 Q-Chem 5.4, Q-Chem, Inc., Pleasanton, CA (2021)
 Q-Chem 5.4.0 for Intel X86 EM64T Linux

User input:
--------------------------------------------------------------
$molecule
0 1
C	-0.241938	-6.741404	-0.086486
C	-1.468983	-6.155638	-0.532960
C	0.776651	-5.791452	0.284733
C	-1.730681	-4.803786	-0.628455
H	-2.294130	-6.821518	-0.833086
C	0.502775	-4.378638	0.184300
C	-0.747353	-3.838032	-0.271086
C	1.484986	-3.413062	0.541191
C	-1.019042	-2.426473	-0.370703
C	1.226525	-2.059348	0.446468
C	-0.000000	-1.478216	-0.000000
H	2.052666	-1.394783	0.746717
C	2.131549	-6.187987	0.779832
C	2.829295	-3.798164	1.030596
N	3.057496	-5.170003	1.115461
C	-3.078712	-4.424987	-1.119034
C	-2.375300	-2.036627	-0.865151
N	-3.301374	-3.049156	-1.201176
O	2.498300	-7.353131	0.916355
O	3.697195	-2.986854	1.345486
O	-3.936224	-5.248946	-1.430379
O	-2.762805	-0.878829	-1.007714
C	4.384539	-5.563799	1.599576
H	4.426636	-6.664085	1.616121
H	4.550487	-5.147101	2.611458
H	5.162921	-5.148785	0.931037
C	-4.608454	-2.587487	-1.677382
H	-5.212668	-3.483329	-1.896168
H	-4.482719	-1.964972	-2.583531
H	-5.093988	-1.962932	-0.903674
H	-0.067309	-7.822318	-0.022586
C	0.000000	0.000000	0.000000
S	0.335026	0.718942	1.580530
C	1.027130	2.203226	0.904911
C	0.421617	0.904557	-0.985400
C	0.979485	2.101144	-0.493528
H	0.322049	0.690978	-2.059934
H	1.351718	2.899571	-1.152593
H	1.399246	3.001430	1.556025
$end

$rem
JOBTYPE		SP
EXCHANGE	HF
CORRELATION	pRIMP2
BASIS		cc-pvtz
METHOD		rimp2
AUX_BASIS	rimp2-cc-pvtz
SOLVENT_METHOD	PCM
PURECART	11111
SYMMETRY	false
MEM_TOTAL	110000
SCF_CONVERGENCE = 6
THRESH=10
GUI = 2
$end

$solvent
dielectric 4.90
$end
--------------------------------------------------------------

             Standard Nuclear Orientation (Angstroms)
    I     Atom           X                Y                Z
 ----------------------------------------------------------------
    1      C      -0.2419380000    -6.7414040000    -0.0864860000
    2      C      -1.4689830000    -6.1556380000    -0.5329600000
    3      C       0.7766510000    -5.7914520000     0.2847330000
    4      C      -1.7306810000    -4.8037860000    -0.6284550000
    5      H      -2.2941300000    -6.8215180000    -0.8330860000
    6      C       0.5027750000    -4.3786380000     0.1843000000
    7      C      -0.7473530000    -3.8380320000    -0.2710860000
    8      C       1.4849860000    -3.4130620000     0.5411910000
    9      C      -1.0190420000    -2.4264730000    -0.3707030000
   10      C       1.2265250000    -2.0593480000     0.4464680000
   11      C       0.0000000000    -1.4782160000     0.0000000000
   12      H       2.0526660000    -1.3947830000     0.7467170000
   13      C       2.1315490000    -6.1879870000     0.7798320000
   14      C       2.8292950000    -3.7981640000     1.0305960000
   15      N       3.0574960000    -5.1700030000     1.1154610000
   16      C      -3.0787120000    -4.4249870000    -1.1190340000
   17      C      -2.3753000000    -2.0366270000    -0.8651510000
   18      N      -3.3013740000    -3.0491560000    -1.2011760000
   19      O       2.4983000000    -7.3531310000     0.9163550000
   20      O       3.6971950000    -2.9868540000     1.3454860000
   21      O      -3.9362240000    -5.2489460000    -1.4303790000
   22      O      -2.7628050000    -0.8788290000    -1.0077140000
   23      C       4.3845390000    -5.5637990000     1.5995760000
   24      H       4.4266360000    -6.6640850000     1.6161210000
   25      H       4.5504870000    -5.1471010000     2.6114580000
   26      H       5.1629210000    -5.1487850000     0.9310370000
   27      C      -4.6084540000    -2.5874870000    -1.6773820000
   28      H      -5.2126680000    -3.4833290000    -1.8961680000
   29      H      -4.4827190000    -1.9649720000    -2.5835310000
   30      H      -5.0939880000    -1.9629320000    -0.9036740000
   31      H      -0.0673090000    -7.8223180000    -0.0225860000
   32      C       0.0000000000     0.0000000000     0.0000000000
   33      S       0.3350260000     0.7189420000     1.5805300000
   34      C       1.0271300000     2.2032260000     0.9049110000
   35      C       0.4216170000     0.9045570000    -0.9854000000
   36      C       0.9794850000     2.1011440000    -0.4935280000
   37      H       0.3220490000     0.6909780000    -2.0599340000
   38      H       1.3517180000     2.8995710000    -1.1525930000
   39      H       1.3992460000     3.0014300000     1.5560250000
 ----------------------------------------------------------------

   10   -1570.6819474016      7.22e-07  Convergence criterion met
 Total energy in the final basis set =    -1570.6819474016
        RIMP2         total energy =     -1575.3079100934 a.u.

                    Orbital Energies (a.u.)
 --------------------------------------------------------------

 Alpha MOs
 -- Occupied --
-91.9926 -20.5585 -20.5571 -20.5560 -20.5554 -15.6312 -15.6311 -11.4001
-11.3971 -11.3929 -11.3905 -11.3165 -11.3053 -11.3027 -11.3004 -11.2987
-11.2982 -11.2919 -11.2864 -11.2858 -11.2848 -11.2802 -11.2786 -11.2647
-11.2646 -11.2588 -11.2515  -8.9921  -6.6729  -6.6724  -6.6718  -1.4248
 -1.4243  -1.4041  -1.4034  -1.2676  -1.2654  -1.2180  -1.1780  -1.1440
 -1.1176  -1.0635  -1.0501  -0.9931  -0.9907  -0.9853  -0.9593  -0.9479
 -0.8975  -0.8794  -0.8779  -0.8604  -0.7959  -0.7778  -0.7732  -0.7605
 -0.7378  -0.7184  -0.7059  -0.6951  -0.6812  -0.6736  -0.6665  -0.6624
 -0.6570  -0.6423  -0.6378  -0.6340  -0.6301  -0.6128  -0.5857  -0.5844
 -0.5784  -0.5739  -0.5671  -0.5642  -0.5614  -0.5552  -0.5529  -0.5484
 -0.5384  -0.5271  -0.5210  -0.5106  -0.4837  -0.4712  -0.4673  -0.4625
 -0.4604  -0.4536  -0.4283  -0.4183  -0.4088  -0.3640  -0.3473  -0.3349
 -0.3194

          Ground-State Mulliken Net Atomic Charges

     Atom                 Charge (a.u.)
  ----------------------------------------
      1 C                    -0.131566
      2 C                    -0.109612
      3 C                    -0.042576
      4 C                     0.000551
      5 H                     0.188796
      6 C                     0.003424
      7 C                     0.072997
      8 C                    -0.004700
      9 C                    -0.016038
     10 C                    -0.098003
     11 C                     0.014222
     12 H                     0.190869
     13 C                     0.360611
     14 C                     0.363259
     15 N                    -0.101671
     16 C                     0.359717
     17 C                     0.353117
     18 N                    -0.098129
     19 O                    -0.465088
     20 O                    -0.476435
     21 O                    -0.479768
     22 O                    -0.460232
     23 C                    -0.201145
     24 H                     0.141020
     25 H                     0.112478
     26 H                     0.112402
     27 C                    -0.195962
     28 H                     0.133681
     29 H                     0.112761
     30 H                     0.113625
     31 H                     0.214297
     32 C                    -0.000500
     33 S                     0.024308
     34 C                    -0.204057
     35 C                    -0.180509
     36 C                    -0.198975
     37 H                     0.188303
     38 H                     0.192750
     39 H                     0.211780
  ----------------------------------------
  Sum of atomic charges =     0.000000

                    Cartesian Multipole Moments
 -----------------------------------------------------------------
    Charge (ESU x 10^10)
                 0.0000
    Dipole Moment (Debye)
         X       0.9721      Y       0.9443      Z      -0.9402
       Tot       1.6494
    Quadrupole Moments (Debye-Ang)
        XX    -180.1152     XY       5.4210     YY    -166.7553
        XZ      -6.2779     YZ       1.1013     ZZ    -159.7491

 Total job time:  261.82s(wall), 7942.85s(cpu)
        *  Thank you very much for using Q-Chem.  Have a nice day.  *
