 Q-Chem 5.4, Q-Chem, Inc., Pleasanton, CA (2021)
 Q-Chem 5.4.0 for Intel X86 EM64T Linux

User input:
--------------------------------------------------------------
$molecule
0 1
C	0.223244	-6.741404	0.127184
C	1.354118	-6.155638	0.779949
C	-0.715408	-5.791452	-0.415271
C	1.595259	-4.803786	0.919437
H	2.114613	-6.821518	1.218801
C	-0.463133	-4.378638	-0.268806
C	0.688925	-3.838032	0.396744
C	-1.368449	-3.413062	-0.790835
C	0.939189	-2.426473	0.542026
C	-1.130363	-2.059348	-0.652669
C	0.000000	-1.478216	0.000000
H	-1.891815	-1.394783	-1.091814
C	-1.963749	-6.187987	-1.138124
C	-2.607351	-3.798164	-1.506241
N	-2.817348	-5.170003	-1.629443
C	2.837621	-4.424987	1.636646
C	2.188982	-2.036627	1.264474
N	3.042637	-3.049156	1.756205
O	-2.301222	-7.353131	-1.336258
O	-3.407386	-2.986854	-1.967056
O	3.628041	-5.248946	2.092167
O	2.545844	-0.878829	1.472160
C	-4.040164	-5.563799	-2.336642
H	-4.078749	-6.664085	-2.360245
H	-4.027880	-5.147101	-3.361968
H	-4.922811	-5.148785	-1.813424
C	4.247167	-2.587487	2.452149
H	4.804209	-3.483329	2.772531
H	3.965991	-1.964972	3.322697
H	4.859678	-1.962932	1.774507
H	0.062364	-7.822318	0.033931
C	0.000000	0.000000	0.000000
S	0.509686	0.607733	1.580530
C	1.562368	1.862312	0.904911
C	0.641367	0.764613	-0.985400
C	1.489926	1.776040	-0.493528
H	0.489914	0.584081	-2.059934
H	2.056124	2.450920	-1.152593
H	2.128395	2.537007	1.556025
$end

$rem
JOBTYPE		SP
EXCHANGE	HF
CORRELATION	pRIMP2
BASIS		cc-pvtz
METHOD		rimp2
AUX_BASIS	rimp2-cc-pvtz
SOLVENT_METHOD	PCM
PURECART	11111
SYMMETRY	false
MEM_TOTAL	110000
SCF_CONVERGENCE = 6
THRESH=10
GUI = 2
$end

$solvent
dielectric 4.90
$end
--------------------------------------------------------------

             Standard Nuclear Orientation (Angstroms)
    I     Atom           X                Y                Z
 ----------------------------------------------------------------
    1      C       0.2232440000    -6.7414040000     0.1271840000
    2      C       1.3541180000    -6.1556380000     0.7799490000
    3      C      -0.7154080000    -5.7914520000    -0.4152710000
    4      C       1.5952590000    -4.8037860000     0.9194370000
    5      H       2.1146130000    -6.8215180000     1.2188010000
    6      C      -0.4631330000    -4.3786380000    -0.2688060000
    7      C       0.6889250000    -3.8380320000     0.3967440000
    8      C      -1.3684490000    -3.4130620000    -0.7908350000
    9      C       0.9391890000    -2.4264730000     0.5420260000
   10      C      -1.1303630000    -2.0593480000    -0.6526690000
   11      C       0.0000000000    -1.4782160000     0.0000000000
   12      H      -1.8918150000    -1.3947830000    -1.0918140000
   13      C      -1.9637490000    -6.1879870000    -1.1381240000
   14      C      -2.6073510000    -3.7981640000    -1.5062410000
   15      N      -2.8173480000    -5.1700030000    -1.6294430000
   16      C       2.8376210000    -4.4249870000     1.6366460000
   17      C       2.1889820000    -2.0366270000     1.2644740000
   18      N       3.0426370000    -3.0491560000     1.7562050000
   19      O      -2.3012220000    -7.3531310000    -1.3362580000
   20      O      -3.4073860000    -2.9868540000    -1.9670560000
   21      O       3.6280410000    -5.2489460000     2.0921670000
   22      O       2.5458440000    -0.8788290000     1.4721600000
   23      C      -4.0401640000    -5.5637990000    -2.3366420000
   24      H      -4.0787490000    -6.6640850000    -2.3602450000
   25      H      -4.0278800000    -5.1471010000    -3.3619680000
   26      H      -4.9228110000    -5.1487850000    -1.8134240000
   27      C       4.2471670000    -2.5874870000     2.4521490000
   28      H       4.8042090000    -3.4833290000     2.7725310000
   29      H       3.9659910000    -1.9649720000     3.3226970000
   30      H       4.8596780000    -1.9629320000     1.7745070000
   31      H       0.0623640000    -7.8223180000     0.0339310000
   32      C       0.0000000000     0.0000000000     0.0000000000
   33      S       0.5096860000     0.6077330000     1.5805300000
   34      C       1.5623680000     1.8623120000     0.9049110000
   35      C       0.6413670000     0.7646130000    -0.9854000000
   36      C       1.4899260000     1.7760400000    -0.4935280000
   37      H       0.4899140000     0.5840810000    -2.0599340000
   38      H       2.0561240000     2.4509200000    -1.1525930000
   39      H       2.1283950000     2.5370070000     1.5560250000
 ----------------------------------------------------------------

   10   -1570.6406470183      9.71e-07  Convergence criterion met
 Total energy in the final basis set =    -1570.6406470183
        RIMP2         total energy =     -1575.2803715726 a.u.

                    Orbital Energies (a.u.)
 --------------------------------------------------------------

 Alpha MOs
 -- Occupied --
-91.9800 -20.5580 -20.5554 -20.5533 -20.5502 -15.6305 -15.6290 -11.3994
-11.3927 -11.3909 -11.3894 -11.3146 -11.3016 -11.3001 -11.2990 -11.2954
-11.2954 -11.2886 -11.2840 -11.2840 -11.2790 -11.2746 -11.2726 -11.2657
-11.2642 -11.2641 -11.2472  -8.9802  -6.6607  -6.6601  -6.6600  -1.4242
 -1.4231  -1.4035  -1.4023  -1.2666  -1.2641  -1.2158  -1.1752  -1.1417
 -1.1153  -1.0605  -1.0478  -0.9920  -0.9877  -0.9827  -0.9582  -0.9474
 -0.8950  -0.8785  -0.8732  -0.8602  -0.7909  -0.7759  -0.7730  -0.7595
 -0.7334  -0.7185  -0.7038  -0.6935  -0.6809  -0.6716  -0.6652  -0.6612
 -0.6558  -0.6428  -0.6366  -0.6352  -0.6279  -0.6114  -0.5851  -0.5827
 -0.5756  -0.5728  -0.5668  -0.5636  -0.5613  -0.5549  -0.5531  -0.5479
 -0.5377  -0.5247  -0.5197  -0.5042  -0.4800  -0.4694  -0.4626  -0.4568
 -0.4538  -0.4457  -0.4266  -0.4181  -0.4081  -0.3591  -0.3344  -0.3305
 -0.3127

          Ground-State Mulliken Net Atomic Charges

     Atom                 Charge (a.u.)
  ----------------------------------------
      1 C                    -0.139766
      2 C                    -0.108413
      3 C                    -0.038010
      4 C                    -0.001839
      5 H                     0.188009
      6 C                    -0.011385
      7 C                     0.070451
      8 C                     0.011770
      9 C                    -0.043412
     10 C                    -0.150872
     11 C                     0.082749
     12 H                     0.179692
     13 C                     0.360697
     14 C                     0.364770
     15 N                    -0.101340
     16 C                     0.356176
     17 C                     0.393782
     18 N                    -0.093601
     19 O                    -0.465145
     20 O                    -0.476483
     21 O                    -0.483219
     22 O                    -0.461723
     23 C                    -0.201257
     24 H                     0.140903
     25 H                     0.112045
     26 H                     0.112349
     27 C                    -0.196529
     28 H                     0.133993
     29 H                     0.111941
     30 H                     0.111841
     31 H                     0.213110
     32 C                    -0.088415
     33 S                     0.034743
     34 C                    -0.142784
     35 C                    -0.134618
     36 C                    -0.230355
     37 H                     0.191214
     38 H                     0.189733
     39 H                     0.209198
  ----------------------------------------
  Sum of atomic charges =     0.000000

                    Cartesian Multipole Moments
 -----------------------------------------------------------------
    Charge (ESU x 10^10)
                 0.0000
    Dipole Moment (Debye)
         X       2.1818      Y       1.3340      Z      -0.6668
       Tot       2.6428
    Quadrupole Moments (Debye-Ang)
        XX    -174.4680     XY       5.9725     YY    -173.3827
        XZ      -7.4433     YZ       0.2455     ZZ    -162.2270

 Total job time:  251.90s(wall), 7882.42s(cpu)
        *  Thank you very much for using Q-Chem.  Have a nice day.  *
