 Q-Chem 5.4, Q-Chem, Inc., Pleasanton, CA (2021)
 Q-Chem 5.4.0 for Intel X86 EM64T Linux

User input:
--------------------------------------------------------------
$molecule
0 1
C	0.221766	-6.741404	-0.129743
C	1.352515	-6.155638	-0.782726
C	-0.717339	-5.791452	0.411926
C	1.593885	-4.803786	-0.921816
H	2.112819	-6.821518	-1.221908
C	-0.464360	-4.378638	0.266682
C	0.688053	-3.838032	-0.398255
C	-1.369108	-3.413062	0.789694
C	0.939002	-2.426473	-0.542349
C	-1.130409	-2.059348	0.652589
C	0.000000	-1.478216	0.000000
H	-1.891446	-1.394783	1.092453
C	-1.967519	-6.187987	1.131595
C	-2.608118	-3.798164	1.504912
N	-2.819813	-5.170003	1.625174
C	2.836188	-4.424987	-1.639129
C	2.189558	-2.036627	-1.263477
N	3.042237	-3.049156	-1.756898
O	-2.307845	-7.353131	1.324787
O	-3.407213	-2.986854	1.967354
O	3.625890	-5.248946	-2.095892
O	2.547850	-0.878829	-1.468685
C	-4.043674	-5.563799	2.330564
H	-4.083407	-6.664085	2.352178
H	-4.925490	-5.147101	1.807263
H	-4.031877	-5.148785	3.356568
C	4.247206	-2.587487	-2.452080
H	4.803187	-3.483329	-2.774302
H	4.860536	-1.964972	-1.773301
H	3.966607	-1.962932	-3.321351
H	0.060567	-7.822318	-0.037043
C	0.000000	0.000000	0.000000
S	0.068929	0.790170	1.580530
C	0.211639	2.421655	0.904911
C	0.086813	0.994207	-0.985400
C	0.201782	2.309433	-0.493528
H	0.066299	0.759454	-2.059934
H	0.278488	3.187020	-1.152593
H	0.288312	3.298992	1.556025
$end

$rem
JOBTYPE		SP
EXCHANGE	HF
CORRELATION	pRIMP2
BASIS		cc-pvtz
METHOD		rimp2
AUX_BASIS	rimp2-cc-pvtz
SOLVENT_METHOD	PCM
PURECART	11111
SYMMETRY	false
MEM_TOTAL	110000
SCF_CONVERGENCE = 6
THRESH=10
GUI = 2
$end

$solvent
dielectric 4.90
$end
--------------------------------------------------------------

             Standard Nuclear Orientation (Angstroms)
    I     Atom           X                Y                Z
 ----------------------------------------------------------------
    1      C       0.2217660000    -6.7414040000    -0.1297430000
    2      C       1.3525150000    -6.1556380000    -0.7827260000
    3      C      -0.7173390000    -5.7914520000     0.4119260000
    4      C       1.5938850000    -4.8037860000    -0.9218160000
    5      H       2.1128190000    -6.8215180000    -1.2219080000
    6      C      -0.4643600000    -4.3786380000     0.2666820000
    7      C       0.6880530000    -3.8380320000    -0.3982550000
    8      C      -1.3691080000    -3.4130620000     0.7896940000
    9      C       0.9390020000    -2.4264730000    -0.5423490000
   10      C      -1.1304090000    -2.0593480000     0.6525890000
   11      C       0.0000000000    -1.4782160000     0.0000000000
   12      H      -1.8914460000    -1.3947830000     1.0924530000
   13      C      -1.9675190000    -6.1879870000     1.1315950000
   14      C      -2.6081180000    -3.7981640000     1.5049120000
   15      N      -2.8198130000    -5.1700030000     1.6251740000
   16      C       2.8361880000    -4.4249870000    -1.6391290000
   17      C       2.1895580000    -2.0366270000    -1.2634770000
   18      N       3.0422370000    -3.0491560000    -1.7568980000
   19      O      -2.3078450000    -7.3531310000     1.3247870000
   20      O      -3.4072130000    -2.9868540000     1.9673540000
   21      O       3.6258900000    -5.2489460000    -2.0958920000
   22      O       2.5478500000    -0.8788290000    -1.4686850000
   23      C      -4.0436740000    -5.5637990000     2.3305640000
   24      H      -4.0834070000    -6.6640850000     2.3521780000
   25      H      -4.9254900000    -5.1471010000     1.8072630000
   26      H      -4.0318770000    -5.1487850000     3.3565680000
   27      C       4.2472060000    -2.5874870000    -2.4520800000
   28      H       4.8031870000    -3.4833290000    -2.7743020000
   29      H       4.8605360000    -1.9649720000    -1.7733010000
   30      H       3.9666070000    -1.9629320000    -3.3213510000
   31      H       0.0605670000    -7.8223180000    -0.0370430000
   32      C       0.0000000000     0.0000000000     0.0000000000
   33      S       0.0689290000     0.7901700000     1.5805300000
   34      C       0.2116390000     2.4216550000     0.9049110000
   35      C       0.0868130000     0.9942070000    -0.9854000000
   36      C       0.2017820000     2.3094330000    -0.4935280000
   37      H       0.0662990000     0.7594540000    -2.0599340000
   38      H       0.2784880000     3.1870200000    -1.1525930000
   39      H       0.2883120000     3.2989920000     1.5560250000
 ----------------------------------------------------------------

   10   -1570.6907842446      7.11e-07  Convergence criterion met
 Total energy in the final basis set =    -1570.6907842446
        RIMP2         total energy =     -1575.3150459279 a.u.

                    Orbital Energies (a.u.)
 --------------------------------------------------------------

 Alpha MOs
 -- Occupied --
-91.9936 -20.5587 -20.5563 -20.5556 -20.5552 -15.6313 -15.6308 -11.4003
-11.3965 -11.3928 -11.3907 -11.3163 -11.3060 -11.3030 -11.3012 -11.2989
-11.2984 -11.2912 -11.2866 -11.2865 -11.2832 -11.2807 -11.2785 -11.2648
-11.2646 -11.2555 -11.2503  -8.9928  -6.6736  -6.6731  -6.6725  -1.4250
 -1.4239  -1.4043  -1.4030  -1.2676  -1.2653  -1.2179  -1.1749  -1.1445
 -1.1178  -1.0635  -1.0503  -0.9932  -0.9896  -0.9834  -0.9593  -0.9485
 -0.8973  -0.8798  -0.8780  -0.8614  -0.7960  -0.7777  -0.7730  -0.7597
 -0.7377  -0.7179  -0.7053  -0.6952  -0.6806  -0.6728  -0.6665  -0.6623
 -0.6570  -0.6424  -0.6375  -0.6336  -0.6300  -0.6127  -0.5861  -0.5845
 -0.5781  -0.5733  -0.5658  -0.5639  -0.5607  -0.5553  -0.5522  -0.5485
 -0.5362  -0.5265  -0.5200  -0.5186  -0.4835  -0.4707  -0.4664  -0.4624
 -0.4602  -0.4535  -0.4284  -0.4183  -0.4091  -0.3612  -0.3536  -0.3358
 -0.3132

          Ground-State Mulliken Net Atomic Charges

     Atom                 Charge (a.u.)
  ----------------------------------------
      1 C                    -0.132966
      2 C                    -0.107458
      3 C                    -0.041989
      4 C                    -0.002591
      5 H                     0.188868
      6 C                    -0.007001
      7 C                     0.075880
      8 C                     0.009160
      9 C                    -0.017131
     10 C                    -0.157062
     11 C                     0.098177
     12 H                     0.185219
     13 C                     0.361034
     14 C                     0.369183
     15 N                    -0.101716
     16 C                     0.360101
     17 C                     0.353001
     18 N                    -0.094761
     19 O                    -0.464738
     20 O                    -0.476054
     21 O                    -0.480344
     22 O                    -0.457547
     23 C                    -0.200940
     24 H                     0.141030
     25 H                     0.112431
     26 H                     0.112594
     27 C                    -0.196177
     28 H                     0.133840
     29 H                     0.113537
     30 H                     0.112393
     31 H                     0.214272
     32 C                    -0.065977
     33 S                     0.033187
     34 C                    -0.207712
     35 C                    -0.145495
     36 C                    -0.206485
     37 H                     0.186724
     38 H                     0.191058
     39 H                     0.212453
  ----------------------------------------
  Sum of atomic charges =     0.000000

                    Cartesian Multipole Moments
 -----------------------------------------------------------------
    Charge (ESU x 10^10)
                 0.0000
    Dipole Moment (Debye)
         X       0.2080      Y       1.0648      Z      -0.9924
       Tot       1.4703
    Quadrupole Moments (Debye-Ang)
        XX    -179.3903     XY       0.2846     YY    -164.4701
        XZ       8.9168     YZ       1.0967     ZZ    -162.5940

 Total job time:  258.63s(wall), 8237.44s(cpu)
        *  Thank you very much for using Q-Chem.  Have a nice day.  *
