 Q-Chem 5.4, Q-Chem, Inc., Pleasanton, CA (2021)
 Q-Chem 5.4.0 for Intel X86 EM64T Linux

User input:
--------------------------------------------------------------
$molecule
0 1
C	0.195868	-6.741404	-0.166281
C	1.196048	-6.155638	-1.005696
C	-0.634911	-5.791452	0.530233
C	1.409599	-4.803786	-1.184587
H	1.868538	-6.821518	-1.570232
C	-0.410996	-4.378638	0.343266
C	0.608444	-3.838032	-0.511683
C	-1.211179	-3.413062	1.015440
C	0.830559	-2.426473	-0.697165
C	-0.999915	-2.059348	0.838968
C	-0.000000	-1.478216	-0.000000
H	-1.673009	-1.394783	1.404302
C	-1.741129	-6.187987	1.456059
C	-2.307170	-3.798164	1.934944
N	-2.494766	-5.170003	2.090139
C	2.508468	-4.424987	-2.106725
C	1.936893	-2.036627	-1.624494
N	2.690936	-3.049156	-2.258486
O	-2.042736	-7.353131	1.705414
O	-3.013823	-2.986854	2.529122
O	3.206857	-5.248946	-2.693680
O	2.254108	-0.878829	-1.888802
C	-3.577543	-5.563799	2.997334
H	-3.612920	-6.664085	3.025519
H	-4.536833	-5.147101	2.635109
H	-3.387762	-5.148785	4.005702
C	3.756883	-2.587487	-3.152347
H	4.248464	-3.483329	-3.566218
H	4.478763	-1.964972	-2.590383
H	3.329599	-1.962932	-3.959687
H	0.053215	-7.822318	-0.046998
C	0.000000	0.000000	0.000000
S	0.686805	0.396760	1.580530
C	2.105095	1.215640	0.904911
C	0.864201	0.499140	-0.985400
C	2.007514	1.159347	-0.493528
H	0.660136	0.381296	-2.059934
H	2.770388	1.599875	-1.152593
H	2.867745	1.656053	1.556025
$end

$rem
JOBTYPE		SP
EXCHANGE	HF
CORRELATION	pRIMP2
BASIS		cc-pvtz
METHOD		rimp2
AUX_BASIS	rimp2-cc-pvtz
SOLVENT_METHOD	PCM
PURECART	11111
SYMMETRY	false
MEM_TOTAL	110000
SCF_CONVERGENCE = 6
THRESH=10
GUI = 2
$end

$solvent
dielectric 4.90
$end
--------------------------------------------------------------

             Standard Nuclear Orientation (Angstroms)
    I     Atom           X                Y                Z
 ----------------------------------------------------------------
    1      C       0.1958680000    -6.7414040000    -0.1662810000
    2      C       1.1960480000    -6.1556380000    -1.0056960000
    3      C      -0.6349110000    -5.7914520000     0.5302330000
    4      C       1.4095990000    -4.8037860000    -1.1845870000
    5      H       1.8685380000    -6.8215180000    -1.5702320000
    6      C      -0.4109960000    -4.3786380000     0.3432660000
    7      C       0.6084440000    -3.8380320000    -0.5116830000
    8      C      -1.2111790000    -3.4130620000     1.0154400000
    9      C       0.8305590000    -2.4264730000    -0.6971650000
   10      C      -0.9999150000    -2.0593480000     0.8389680000
   11      C       0.0000000000    -1.4782160000     0.0000000000
   12      H      -1.6730090000    -1.3947830000     1.4043020000
   13      C      -1.7411290000    -6.1879870000     1.4560590000
   14      C      -2.3071700000    -3.7981640000     1.9349440000
   15      N      -2.4947660000    -5.1700030000     2.0901390000
   16      C       2.5084680000    -4.4249870000    -2.1067250000
   17      C       1.9368930000    -2.0366270000    -1.6244940000
   18      N       2.6909360000    -3.0491560000    -2.2584860000
   19      O      -2.0427360000    -7.3531310000     1.7054140000
   20      O      -3.0138230000    -2.9868540000     2.5291220000
   21      O       3.2068570000    -5.2489460000    -2.6936800000
   22      O       2.2541080000    -0.8788290000    -1.8888020000
   23      C      -3.5775430000    -5.5637990000     2.9973340000
   24      H      -3.6129200000    -6.6640850000     3.0255190000
   25      H      -4.5368330000    -5.1471010000     2.6351090000
   26      H      -3.3877620000    -5.1487850000     4.0057020000
   27      C       3.7568830000    -2.5874870000    -3.1523470000
   28      H       4.2484640000    -3.4833290000    -3.5662180000
   29      H       4.4787630000    -1.9649720000    -2.5903830000
   30      H       3.3295990000    -1.9629320000    -3.9596870000
   31      H       0.0532150000    -7.8223180000    -0.0469980000
   32      C       0.0000000000     0.0000000000     0.0000000000
   33      S       0.6868050000     0.3967600000     1.5805300000
   34      C       2.1050950000     1.2156400000     0.9049110000
   35      C       0.8642010000     0.4991400000    -0.9854000000
   36      C       2.0075140000     1.1593470000    -0.4935280000
   37      H       0.6601360000     0.3812960000    -2.0599340000
   38      H       2.7703880000     1.5998750000    -1.1525930000
   39      H       2.8677450000     1.6560530000     1.5560250000
 ----------------------------------------------------------------

   11   -1570.6034547189      4.97e-07  Convergence criterion met
 Total energy in the final basis set =    -1570.6034547189
        RIMP2         total energy =     -1575.2415389133 a.u.

                    Orbital Energies (a.u.)
 --------------------------------------------------------------

 Alpha MOs
 -- Occupied --
-91.9824 -20.5575 -20.5549 -20.5545 -20.5537 -15.6318 -15.6296 -11.3994
-11.3985 -11.3911 -11.3885 -11.3172 -11.3025 -11.3003 -11.2975 -11.2904
-11.2898 -11.2890 -11.2841 -11.2832 -11.2800 -11.2769 -11.2695 -11.2661
-11.2634 -11.2513 -11.2485  -8.9831  -6.6640  -6.6632  -6.6626  -1.4304
 -1.4233  -1.4064  -1.4026  -1.2686  -1.2648  -1.2153  -1.1842  -1.1404
 -1.1130  -1.0600  -1.0460  -0.9953  -0.9916  -0.9875  -0.9582  -0.9472
 -0.8953  -0.8777  -0.8702  -0.8593  -0.7929  -0.7763  -0.7736  -0.7645
 -0.7355  -0.7273  -0.7024  -0.6910  -0.6826  -0.6713  -0.6666  -0.6618
 -0.6541  -0.6414  -0.6362  -0.6338  -0.6254  -0.6103  -0.5924  -0.5881
 -0.5805  -0.5737  -0.5641  -0.5622  -0.5563  -0.5544  -0.5515  -0.5476
 -0.5377  -0.5230  -0.5175  -0.5045  -0.4828  -0.4703  -0.4658  -0.4616
 -0.4540  -0.4443  -0.4286  -0.4177  -0.4063  -0.3695  -0.3352  -0.3291
 -0.3046

          Ground-State Mulliken Net Atomic Charges

     Atom                 Charge (a.u.)
  ----------------------------------------
      1 C                    -0.157240
      2 C                    -0.108347
      3 C                    -0.027163
      4 C                    -0.007261
      5 H                     0.186747
      6 C                    -0.015445
      7 C                     0.083039
      8 C                     0.001646
      9 C                    -0.088717
     10 C                    -0.153073
     11 C                     0.104422
     12 H                     0.178042
     13 C                     0.360380
     14 C                     0.364811
     15 N                    -0.101243
     16 C                     0.357976
     17 C                     0.400244
     18 N                    -0.089000
     19 O                    -0.464782
     20 O                    -0.476336
     21 O                    -0.483198
     22 O                    -0.476359
     23 C                    -0.201632
     24 H                     0.140699
     25 H                     0.112121
     26 H                     0.112225
     27 C                    -0.198896
     28 H                     0.135577
     29 H                     0.112712
     30 H                     0.111976
     31 H                     0.211016
     32 C                    -0.223605
     33 S                     0.009869
     34 C                    -0.143861
     35 C                     0.044844
     36 C                    -0.210819
     37 H                     0.199363
     38 H                     0.183842
     39 H                     0.215424
  ----------------------------------------
  Sum of atomic charges =     0.000000

                    Cartesian Multipole Moments
 -----------------------------------------------------------------
    Charge (ESU x 10^10)
                 0.0000
    Dipole Moment (Debye)
         X       3.4903      Y       2.0146      Z      -1.7918
       Tot       4.4104
    Quadrupole Moments (Debye-Ang)
        XX    -165.7409     XY       5.8946     YY    -181.4325
        XZ      10.3410     YZ       0.1183     ZZ    -165.5821

 Total job time:  276.19s(wall), 8586.28s(cpu)
        *  Thank you very much for using Q-Chem.  Have a nice day.  *
