 Q-Chem 5.4, Q-Chem, Inc., Pleasanton, CA (2021)
 Q-Chem 5.4.0 for Intel X86 EM64T Linux

User input:
--------------------------------------------------------------
$molecule
0 1
C	0.001478	-6.741404	0.256927
C	0.001603	-6.155638	1.562675
C	0.001931	-5.791452	-0.827197
C	0.001374	-4.803786	1.841253
H	0.001794	-6.821518	2.440709
C	0.001227	-4.378638	-0.535488
C	0.000872	-3.838032	0.794999
C	0.000658	-3.413062	-1.580529
C	0.000186	-2.426473	1.084374
C	0.000046	-2.059348	-1.305258
C	-0.000000	-1.478216	-0.000000
H	-0.000369	-1.394783	-2.184267
C	0.003770	-6.187987	-2.269719
C	0.000767	-3.798164	-3.011152
N	0.002465	-5.170003	-3.254617
C	0.001433	-4.424987	3.275775
C	-0.000576	-2.036627	2.527951
N	0.000400	-3.049156	3.513104
O	0.006623	-7.353131	-2.661046
O	-0.000172	-2.986854	-3.934410
O	0.002151	-5.248946	4.188059
O	-0.002006	-0.878829	2.940845
C	0.003509	-5.563799	-4.667206
H	0.004658	-6.664085	-4.712423
H	0.897610	-5.147101	-5.169231
H	-0.890935	-5.148785	-5.169992
C	-0.000039	-2.587487	4.904229
H	0.001022	-3.483329	5.546833
H	-0.894545	-1.964972	5.095998
H	0.893071	-1.962932	5.095858
H	0.001797	-7.822318	0.070974
C	0.000000	0.000000	0.000000
S	0.607475	0.509994	1.580530
C	1.862020	1.562717	0.904911
C	0.764397	0.641624	-0.985400
C	1.775697	1.490335	-0.493528
H	0.583895	0.490135	-2.059934
H	2.450484	2.056643	-1.152593
H	2.536607	2.128872	1.556025
$end

$rem
JOBTYPE		SP
EXCHANGE	HF
CORRELATION	pRIMP2
BASIS		cc-pvtz
METHOD		rimp2
AUX_BASIS	rimp2-cc-pvtz
SOLVENT_METHOD	PCM
PURECART	11111
SYMMETRY	false
MEM_TOTAL	110000
SCF_CONVERGENCE = 6
THRESH=10
GUI = 2
$end

$solvent
dielectric 4.90
$end
--------------------------------------------------------------

             Standard Nuclear Orientation (Angstroms)
    I     Atom           X                Y                Z
 ----------------------------------------------------------------
    1      C       0.0014780000    -6.7414040000     0.2569270000
    2      C       0.0016030000    -6.1556380000     1.5626750000
    3      C       0.0019310000    -5.7914520000    -0.8271970000
    4      C       0.0013740000    -4.8037860000     1.8412530000
    5      H       0.0017940000    -6.8215180000     2.4407090000
    6      C       0.0012270000    -4.3786380000    -0.5354880000
    7      C       0.0008720000    -3.8380320000     0.7949990000
    8      C       0.0006580000    -3.4130620000    -1.5805290000
    9      C       0.0001860000    -2.4264730000     1.0843740000
   10      C       0.0000460000    -2.0593480000    -1.3052580000
   11      C       0.0000000000    -1.4782160000     0.0000000000
   12      H      -0.0003690000    -1.3947830000    -2.1842670000
   13      C       0.0037700000    -6.1879870000    -2.2697190000
   14      C       0.0007670000    -3.7981640000    -3.0111520000
   15      N       0.0024650000    -5.1700030000    -3.2546170000
   16      C       0.0014330000    -4.4249870000     3.2757750000
   17      C      -0.0005760000    -2.0366270000     2.5279510000
   18      N       0.0004000000    -3.0491560000     3.5131040000
   19      O       0.0066230000    -7.3531310000    -2.6610460000
   20      O      -0.0001720000    -2.9868540000    -3.9344100000
   21      O       0.0021510000    -5.2489460000     4.1880590000
   22      O      -0.0020060000    -0.8788290000     2.9408450000
   23      C       0.0035090000    -5.5637990000    -4.6672060000
   24      H       0.0046580000    -6.6640850000    -4.7124230000
   25      H       0.8976100000    -5.1471010000    -5.1692310000
   26      H      -0.8909350000    -5.1487850000    -5.1699920000
   27      C      -0.0000390000    -2.5874870000     4.9042290000
   28      H       0.0010220000    -3.4833290000     5.5468330000
   29      H      -0.8945450000    -1.9649720000     5.0959980000
   30      H       0.8930710000    -1.9629320000     5.0958580000
   31      H       0.0017970000    -7.8223180000     0.0709740000
   32      C       0.0000000000     0.0000000000     0.0000000000
   33      S       0.6074750000     0.5099940000     1.5805300000
   34      C       1.8620200000     1.5627170000     0.9049110000
   35      C       0.7643970000     0.6416240000    -0.9854000000
   36      C       1.7756970000     1.4903350000    -0.4935280000
   37      H       0.5838950000     0.4901350000    -2.0599340000
   38      H       2.4504840000     2.0566430000    -1.1525930000
   39      H       2.5366070000     2.1288720000     1.5560250000
 ----------------------------------------------------------------

   11   -1570.5797910111      6.38e-07  Convergence criterion met
 Total energy in the final basis set =    -1570.5797910111
        RIMP2         total energy =     -1575.2324876096 a.u.

                    Orbital Energies (a.u.)
 --------------------------------------------------------------

 Alpha MOs
 -- Occupied --
-91.9787 -20.5626 -20.5583 -20.5563 -20.5518 -15.6318 -15.6308 -11.3995
-11.3991 -11.3903 -11.3899 -11.3231 -11.3005 -11.2986 -11.2899 -11.2885
-11.2881 -11.2860 -11.2801 -11.2790 -11.2764 -11.2752 -11.2741 -11.2722
-11.2655 -11.2644 -11.2440  -8.9788  -6.6592  -6.6572  -6.6562  -1.4413
 -1.4245  -1.4076  -1.4040  -1.2703  -1.2660  -1.2157  -1.1799  -1.1398
 -1.1136  -1.0598  -1.0472  -0.9934  -0.9919  -0.9868  -0.9585  -0.9454
 -0.8969  -0.8789  -0.8745  -0.8623  -0.7912  -0.7809  -0.7765  -0.7625
 -0.7342  -0.7276  -0.7027  -0.6922  -0.6902  -0.6741  -0.6688  -0.6631
 -0.6566  -0.6412  -0.6374  -0.6354  -0.6248  -0.6144  -0.5891  -0.5847
 -0.5807  -0.5775  -0.5730  -0.5645  -0.5642  -0.5568  -0.5556  -0.5488
 -0.5334  -0.5295  -0.5197  -0.5127  -0.4900  -0.4735  -0.4621  -0.4576
 -0.4552  -0.4334  -0.4203  -0.4084  -0.3820  -0.3746  -0.3365  -0.3257
 -0.2946

          Ground-State Mulliken Net Atomic Charges

     Atom                 Charge (a.u.)
  ----------------------------------------
      1 C                    -0.162300
      2 C                    -0.110591
      3 C                    -0.020479
      4 C                    -0.006383
      5 H                     0.186765
      6 C                    -0.011360
      7 C                     0.080667
      8 C                     0.009619
      9 C                    -0.127768
     10 C                    -0.130974
     11 C                     0.084177
     12 H                     0.179002
     13 C                     0.359437
     14 C                     0.362199
     15 N                    -0.101540
     16 C                     0.356662
     17 C                     0.388475
     18 N                    -0.088108
     19 O                    -0.463776
     20 O                    -0.478221
     21 O                    -0.485500
     22 O                    -0.426358
     23 C                    -0.201380
     24 H                     0.141166
     25 H                     0.111986
     26 H                     0.112193
     27 C                    -0.198847
     28 H                     0.135398
     29 H                     0.112954
     30 H                     0.112914
     31 H                     0.210353
     32 C                    -0.072878
     33 S                     0.110522
     34 C                    -0.193715
     35 C                    -0.112267
     36 C                    -0.247649
     37 H                     0.196118
     38 H                     0.183643
     39 H                     0.205844
  ----------------------------------------
  Sum of atomic charges =     0.000000

                    Cartesian Multipole Moments
 -----------------------------------------------------------------
    Charge (ESU x 10^10)
                 0.0000
    Dipole Moment (Debye)
         X       1.8765      Y       1.9206      Z      -0.0702
       Tot       2.6861
    Quadrupole Moments (Debye-Ang)
        XX    -157.8654     XY       5.1298     YY    -181.6203
        XZ       1.2174     YZ       0.8182     ZZ    -175.4524

 Total job time:  286.46s(wall), 8697.22s(cpu)
        *  Thank you very much for using Q-Chem.  Have a nice day.  *
