 Q-Chem 5.4, Q-Chem, Inc., Pleasanton, CA (2021)
 Q-Chem 5.4.0 for Intel X86 EM64T Linux

User input:
--------------------------------------------------------------
$molecule
0 1
C	-6.452381	1.969596	-0.002838
C	-6.327556	0.543932	-0.003583
C	-5.199266	2.681941	-0.002518
C	-5.141988	-0.162849	-0.003264
H	-7.244699	-0.066958	-0.004382
C	-3.960422	1.942750	-0.001720
C	-3.886374	0.508537	-0.002007
C	-2.705373	2.613048	-0.000397
C	-2.647949	-0.228038	-0.001227
C	-1.516962	1.908779	0.000307
C	-1.396353	0.485099	-0.000267
H	-0.600741	2.521022	0.001330
C	-5.100455	4.174706	-0.003627
C	-2.599668	4.090821	0.000219
N	-3.815638	4.770993	-0.001591
C	-5.254927	-1.642236	-0.004052
C	-2.753425	-1.719604	-0.001196
N	-4.033172	-2.317922	-0.002902
O	-6.072653	4.926722	-0.006473
O	-1.530307	4.696705	0.001818
O	-6.332635	-2.233603	-0.005425
O	-1.795243	-2.489582	0.000214
C	-3.724063	6.234584	-0.001922
H	-4.748576	6.638373	-0.003244
H	-3.165379	6.572477	-0.895668
H	-3.167351	6.572916	0.892876
C	-4.053589	-3.783511	-0.003152
H	-5.110700	-4.096543	-0.004732
H	-3.528796	-4.169364	0.891359
H	-3.526193	-4.169069	-0.896256
H	-7.412411	2.499969	-0.003249
C	0.000000	0.000000	0.000000
S	1.267920	1.232710	0.000820
C	2.593224	0.057066	0.000714
C	0.619348	-1.258334	-0.000535
C	2.027890	-1.226959	-0.000122
H	0.044126	-2.196030	-0.001151
H	2.643755	-2.138617	-0.000401
H	3.638806	0.383112	0.001151
$end

$rem
JOBTYPE		SP
EXCHANGE	HF
CORRELATION	pRIMP2
BASIS		cc-pvtz
METHOD		rimp2
AUX_BASIS	rimp2-cc-pvtz
SOLVENT_METHOD	PCM
PURECART	11111
SYMMETRY	false
MEM_TOTAL	110000
SCF_CONVERGENCE = 6
THRESH=10
GUI = 2
$end

$solvent
dielectric 4.90
$end
--------------------------------------------------------------

             Standard Nuclear Orientation (Angstroms)
    I     Atom           X                Y                Z
 ----------------------------------------------------------------
    1      C      -6.4523810000     1.9695960000    -0.0028380000
    2      C      -6.3275560000     0.5439320000    -0.0035830000
    3      C      -5.1992660000     2.6819410000    -0.0025180000
    4      C      -5.1419880000    -0.1628490000    -0.0032640000
    5      H      -7.2446990000    -0.0669580000    -0.0043820000
    6      C      -3.9604220000     1.9427500000    -0.0017200000
    7      C      -3.8863740000     0.5085370000    -0.0020070000
    8      C      -2.7053730000     2.6130480000    -0.0003970000
    9      C      -2.6479490000    -0.2280380000    -0.0012270000
   10      C      -1.5169620000     1.9087790000     0.0003070000
   11      C      -1.3963530000     0.4850990000    -0.0002670000
   12      H      -0.6007410000     2.5210220000     0.0013300000
   13      C      -5.1004550000     4.1747060000    -0.0036270000
   14      C      -2.5996680000     4.0908210000     0.0002190000
   15      N      -3.8156380000     4.7709930000    -0.0015910000
   16      C      -5.2549270000    -1.6422360000    -0.0040520000
   17      C      -2.7534250000    -1.7196040000    -0.0011960000
   18      N      -4.0331720000    -2.3179220000    -0.0029020000
   19      O      -6.0726530000     4.9267220000    -0.0064730000
   20      O      -1.5303070000     4.6967050000     0.0018180000
   21      O      -6.3326350000    -2.2336030000    -0.0054250000
   22      O      -1.7952430000    -2.4895820000     0.0002140000
   23      C      -3.7240630000     6.2345840000    -0.0019220000
   24      H      -4.7485760000     6.6383730000    -0.0032440000
   25      H      -3.1653790000     6.5724770000    -0.8956680000
   26      H      -3.1673510000     6.5729160000     0.8928760000
   27      C      -4.0535890000    -3.7835110000    -0.0031520000
   28      H      -5.1107000000    -4.0965430000    -0.0047320000
   29      H      -3.5287960000    -4.1693640000     0.8913590000
   30      H      -3.5261930000    -4.1690690000    -0.8962560000
   31      H      -7.4124110000     2.4999690000    -0.0032490000
   32      C       0.0000000000     0.0000000000     0.0000000000
   33      S       1.2679200000     1.2327100000     0.0008200000
   34      C       2.5932240000     0.0570660000     0.0007140000
   35      C       0.6193480000    -1.2583340000    -0.0005350000
   36      C       2.0278900000    -1.2269590000    -0.0001220000
   37      H       0.0441260000    -2.1960300000    -0.0011510000
   38      H       2.6437550000    -2.1386170000    -0.0004010000
   39      H       3.6388060000     0.3831120000     0.0011510000
 ----------------------------------------------------------------

   10   -1570.6854053563      7.91e-07  Convergence criterion met
 Total energy in the final basis set =    -1570.6854053563
        RIMP2         total energy =     -1575.3131753691 a.u.

                    Orbital Energies (a.u.)
 --------------------------------------------------------------

 Alpha MOs
 -- Occupied --
-91.9933 -20.5586 -20.5566 -20.5562 -20.5538 -15.6313 -15.6309 -11.3999
-11.3978 -11.3916 -11.3909 -11.3201 -11.3022 -11.3005 -11.2989 -11.2957
-11.2944 -11.2918 -11.2899 -11.2878 -11.2835 -11.2792 -11.2791 -11.2651
-11.2645 -11.2520 -11.2497  -8.9932  -6.6740  -6.6735  -6.6728  -1.4260
 -1.4249  -1.4044  -1.4043  -1.2678  -1.2656  -1.2172  -1.1774  -1.1442
 -1.1166  -1.0639  -1.0497  -0.9927  -0.9903  -0.9869  -0.9590  -0.9475
 -0.8976  -0.8796  -0.8790  -0.8619  -0.7967  -0.7803  -0.7734  -0.7623
 -0.7360  -0.7243  -0.7035  -0.6942  -0.6825  -0.6742  -0.6667  -0.6625
 -0.6563  -0.6417  -0.6379  -0.6342  -0.6283  -0.6130  -0.5915  -0.5838
 -0.5792  -0.5709  -0.5659  -0.5642  -0.5616  -0.5563  -0.5544  -0.5471
 -0.5352  -0.5255  -0.5251  -0.5164  -0.4819  -0.4698  -0.4656  -0.4620
 -0.4582  -0.4506  -0.4296  -0.4195  -0.4101  -0.3777  -0.3553  -0.3368
 -0.2994

          Ground-State Mulliken Net Atomic Charges

     Atom                 Charge (a.u.)
  ----------------------------------------
      1 C                    -0.143230
      2 C                    -0.111706
      3 C                    -0.029569
      4 C                    -0.002643
      5 H                     0.187994
      6 C                     0.006117
      7 C                     0.069806
      8 C                     0.060857
      9 C                    -0.071285
     10 C                    -0.180085
     11 C                     0.041919
     12 H                     0.168570
     13 C                     0.358121
     14 C                     0.365721
     15 N                    -0.101319
     16 C                     0.359542
     17 C                     0.388009
     18 N                    -0.091061
     19 O                    -0.464197
     20 O                    -0.476553
     21 O                    -0.482995
     22 O                    -0.478688
     23 C                    -0.201227
     24 H                     0.141029
     25 H                     0.112612
     26 H                     0.112634
     27 C                    -0.198153
     28 H                     0.134623
     29 H                     0.112729
     30 H                     0.112726
     31 H                     0.212811
     32 C                    -0.010371
     33 S                     0.004853
     34 C                    -0.189999
     35 C                    -0.113206
     36 C                    -0.251163
     37 H                     0.234833
     38 H                     0.191520
     39 H                     0.220423
  ----------------------------------------
  Sum of atomic charges =     0.000000

                    Cartesian Multipole Moments
 -----------------------------------------------------------------
    Charge (ESU x 10^10)
                -0.0000
    Dipole Moment (Debye)
         X       1.7145      Y      -1.5013      Z       0.0027
       Tot       2.2788
    Quadrupole Moments (Debye-Ang)
        XX    -168.3064     XY      -2.7785     YY    -177.2147
        XZ      -0.0591     YZ       0.0190     ZZ    -163.9975

 Total job time:  279.99s(wall), 8089.58s(cpu)
        *  Thank you very much for using Q-Chem.  Have a nice day.  *
