 Q-Chem 5.4, Q-Chem, Inc., Pleasanton, CA (2021)
 Q-Chem 5.4.0 for Intel X86 EM64T Linux

User input:
--------------------------------------------------------------
$molecule
0 1
C	-0.240927	-6.741404	0.089263
C	-1.467886	-6.155638	0.535973
C	0.777972	-5.791452	-0.281103
C	-1.729742	-4.803786	0.631036
H	-2.292903	-6.821518	0.836458
C	0.503614	-4.378638	-0.181995
C	-0.746756	-3.838032	0.272725
C	1.485437	-3.413062	-0.539954
C	-1.018915	-2.426473	0.371053
C	1.226557	-2.059348	-0.446381
C	0.000000	-1.478216	0.000000
H	2.052413	-1.394783	-0.747410
C	2.134128	-6.187987	-0.772747
C	2.829820	-3.798164	-1.029154
N	3.059182	-5.170003	-1.110828
C	-3.077731	-4.424987	1.121728
C	-2.375694	-2.036627	0.864069
N	-3.301101	-3.049156	1.201928
O	2.502830	-7.353131	-0.903908
O	3.697078	-2.986854	-1.345809
O	-3.934752	-5.248946	1.434422
O	-2.764177	-0.878829	1.003943
C	4.386939	-5.563799	-1.592981
H	4.429822	-6.664085	-1.607367
H	5.164489	-5.147101	-0.924504
H	4.553486	-5.148785	-2.605446
C	-4.608481	-2.587487	1.677308
H	-5.211969	-3.483329	1.898089
H	-5.094624	-1.964972	0.902337
H	-4.483092	-1.962932	2.582098
H	-0.066080	-7.822318	0.025963
C	0.000000	0.000000	0.000000
S	0.205093	0.766196	1.580530
C	0.628939	2.348114	0.904911
C	0.258137	0.964028	-0.985400
C	0.599745	2.239309	-0.493528
H	0.197169	0.736404	-2.059934
H	0.827678	3.090243	-1.152593
H	0.856796	3.198808	1.556025
$end

$rem
JOBTYPE		SP
EXCHANGE	HF
CORRELATION	pRIMP2
BASIS		cc-pvtz
METHOD		rimp2
AUX_BASIS	rimp2-cc-pvtz
SOLVENT_METHOD	PCM
PURECART	11111
SYMMETRY	false
MEM_TOTAL	110000
SCF_CONVERGENCE = 6
THRESH=10
GUI = 2
$end

$solvent
dielectric 4.90
$end
--------------------------------------------------------------

             Standard Nuclear Orientation (Angstroms)
    I     Atom           X                Y                Z
 ----------------------------------------------------------------
    1      C      -0.2409270000    -6.7414040000     0.0892630000
    2      C      -1.4678860000    -6.1556380000     0.5359730000
    3      C       0.7779720000    -5.7914520000    -0.2811030000
    4      C      -1.7297420000    -4.8037860000     0.6310360000
    5      H      -2.2929030000    -6.8215180000     0.8364580000
    6      C       0.5036140000    -4.3786380000    -0.1819950000
    7      C      -0.7467560000    -3.8380320000     0.2727250000
    8      C       1.4854370000    -3.4130620000    -0.5399540000
    9      C      -1.0189150000    -2.4264730000     0.3710530000
   10      C       1.2265570000    -2.0593480000    -0.4463810000
   11      C       0.0000000000    -1.4782160000     0.0000000000
   12      H       2.0524130000    -1.3947830000    -0.7474100000
   13      C       2.1341280000    -6.1879870000    -0.7727470000
   14      C       2.8298200000    -3.7981640000    -1.0291540000
   15      N       3.0591820000    -5.1700030000    -1.1108280000
   16      C      -3.0777310000    -4.4249870000     1.1217280000
   17      C      -2.3756940000    -2.0366270000     0.8640690000
   18      N      -3.3011010000    -3.0491560000     1.2019280000
   19      O       2.5028300000    -7.3531310000    -0.9039080000
   20      O       3.6970780000    -2.9868540000    -1.3458090000
   21      O      -3.9347520000    -5.2489460000     1.4344220000
   22      O      -2.7641770000    -0.8788290000     1.0039430000
   23      C       4.3869390000    -5.5637990000    -1.5929810000
   24      H       4.4298220000    -6.6640850000    -1.6073670000
   25      H       5.1644890000    -5.1471010000    -0.9245040000
   26      H       4.5534860000    -5.1487850000    -2.6054460000
   27      C      -4.6084810000    -2.5874870000     1.6773080000
   28      H      -5.2119690000    -3.4833290000     1.8980890000
   29      H      -5.0946240000    -1.9649720000     0.9023370000
   30      H      -4.4830920000    -1.9629320000     2.5820980000
   31      H      -0.0660800000    -7.8223180000     0.0259630000
   32      C       0.0000000000     0.0000000000     0.0000000000
   33      S       0.2050930000     0.7661960000     1.5805300000
   34      C       0.6289390000     2.3481140000     0.9049110000
   35      C       0.2581370000     0.9640280000    -0.9854000000
   36      C       0.5997450000     2.2393090000    -0.4935280000
   37      H       0.1971690000     0.7364040000    -2.0599340000
   38      H       0.8276780000     3.0902430000    -1.1525930000
   39      H       0.8567960000     3.1988080000     1.5560250000
 ----------------------------------------------------------------

   10   -1570.6885246432      7.15e-07  Convergence criterion met
 Total energy in the final basis set =    -1570.6885246432
        RIMP2         total energy =     -1575.3129404170 a.u.

                    Orbital Energies (a.u.)
 --------------------------------------------------------------

 Alpha MOs
 -- Occupied --
-91.9910 -20.5589 -20.5573 -20.5565 -20.5556 -15.6316 -15.6313 -11.4005
-11.3973 -11.3931 -11.3910 -11.3165 -11.3071 -11.3033 -11.3014 -11.2996
-11.2990 -11.2935 -11.2871 -11.2865 -11.2819 -11.2809 -11.2791 -11.2648
-11.2647 -11.2565 -11.2502  -8.9903  -6.6711  -6.6706  -6.6700  -1.4252
 -1.4246  -1.4045  -1.4036  -1.2680  -1.2656  -1.2184  -1.1755  -1.1445
 -1.1183  -1.0636  -1.0507  -0.9934  -0.9898  -0.9835  -0.9595  -0.9485
 -0.8978  -0.8799  -0.8784  -0.8613  -0.7958  -0.7776  -0.7736  -0.7610
 -0.7357  -0.7193  -0.7056  -0.6952  -0.6818  -0.6740  -0.6668  -0.6626
 -0.6574  -0.6424  -0.6381  -0.6342  -0.6304  -0.6132  -0.5853  -0.5848
 -0.5783  -0.5731  -0.5667  -0.5645  -0.5636  -0.5555  -0.5534  -0.5487
 -0.5333  -0.5261  -0.5206  -0.5174  -0.4838  -0.4717  -0.4671  -0.4610
 -0.4593  -0.4539  -0.4286  -0.4185  -0.4092  -0.3588  -0.3506  -0.3359
 -0.3187

          Ground-State Mulliken Net Atomic Charges

     Atom                 Charge (a.u.)
  ----------------------------------------
      1 C                    -0.130490
      2 C                    -0.108533
      3 C                    -0.043365
      4 C                     0.000637
      5 H                     0.189126
      6 C                     0.001858
      7 C                     0.071430
      8 C                     0.004031
      9 C                    -0.016634
     10 C                    -0.104300
     11 C                     0.031550
     12 H                     0.187380
     13 C                     0.360669
     14 C                     0.364690
     15 N                    -0.101852
     16 C                     0.359840
     17 C                     0.349485
     18 N                    -0.097835
     19 O                    -0.464707
     20 O                    -0.476241
     21 O                    -0.479683
     22 O                    -0.457582
     23 C                    -0.201041
     24 H                     0.141102
     25 H                     0.112648
     26 H                     0.112329
     27 C                    -0.195822
     28 H                     0.133632
     29 H                     0.113433
     30 H                     0.113455
     31 H                     0.214591
     32 C                    -0.006417
     33 S                     0.037843
     34 C                    -0.211503
     35 C                    -0.204268
     36 C                    -0.194283
     37 H                     0.191632
     38 H                     0.192171
     39 H                     0.211024
  ----------------------------------------
  Sum of atomic charges =     0.000000

                    Cartesian Multipole Moments
 -----------------------------------------------------------------
    Charge (ESU x 10^10)
                 0.0000
    Dipole Moment (Debye)
         X       0.4791      Y       0.7395      Z      -0.8824
       Tot       1.2470
    Quadrupole Moments (Debye-Ang)
        XX    -181.2443     XY       3.8601     YY    -164.6038
        XZ       6.5996     YZ       0.3790     ZZ    -159.8141

 Total job time:  282.04s(wall), 8546.99s(cpu)
        *  Thank you very much for using Q-Chem.  Have a nice day.  *
