 Q-Chem 5.4, Q-Chem, Inc., Pleasanton, CA (2021)
 Q-Chem 5.4.0 for Intel X86 EM64T Linux

User input:
--------------------------------------------------------------
$molecule
0 1
C	0.129743	-6.741404	0.221766
C	0.782726	-6.155638	1.352515
C	-0.411926	-5.791452	-0.717339
C	0.921816	-4.803786	1.593885
H	1.221908	-6.821518	2.112819
C	-0.266682	-4.378638	-0.464360
C	0.398255	-3.838032	0.688053
C	-0.789694	-3.413062	-1.369108
C	0.542349	-2.426473	0.939002
C	-0.652589	-2.059348	-1.130409
C	0.000000	-1.478216	0.000000
H	-1.092453	-1.394783	-1.891446
C	-1.131595	-6.187987	-1.967519
C	-1.504912	-3.798164	-2.608118
N	-1.625174	-5.170003	-2.819813
C	1.639129	-4.424987	2.836188
C	1.263477	-2.036627	2.189558
N	1.756898	-3.049156	3.042237
O	-1.324787	-7.353131	-2.307845
O	-1.967354	-2.986854	-3.407213
O	2.095892	-5.248946	3.625890
O	1.468685	-0.878829	2.547850
C	-2.330564	-5.563799	-4.043674
H	-2.352178	-6.664085	-4.083407
H	-1.807263	-5.147101	-4.925490
H	-3.356568	-5.148785	-4.031877
C	2.452080	-2.587487	4.247206
H	2.774302	-3.483329	4.803187
H	1.773301	-1.964972	4.860536
H	3.321351	-1.962932	3.966607
H	0.037043	-7.822318	0.060567
C	0.000000	0.000000	0.000000
S	0.068929	0.790170	1.580530
C	0.211639	2.421655	0.904911
C	0.086813	0.994207	-0.985400
C	0.201782	2.309433	-0.493528
H	0.066299	0.759454	-2.059934
H	0.278488	3.187020	-1.152593
H	0.288312	3.298992	1.556025
$end

$rem
JOBTYPE		SP
EXCHANGE	HF
CORRELATION	pRIMP2
BASIS		cc-pvtz
METHOD		rimp2
AUX_BASIS	rimp2-cc-pvtz
SOLVENT_METHOD	PCM
PURECART	11111
SYMMETRY	false
MEM_TOTAL	110000
SCF_CONVERGENCE = 6
THRESH=10
GUI = 2
$end

$solvent
dielectric 4.90
$end
--------------------------------------------------------------

             Standard Nuclear Orientation (Angstroms)
    I     Atom           X                Y                Z
 ----------------------------------------------------------------
    1      C       0.1297430000    -6.7414040000     0.2217660000
    2      C       0.7827260000    -6.1556380000     1.3525150000
    3      C      -0.4119260000    -5.7914520000    -0.7173390000
    4      C       0.9218160000    -4.8037860000     1.5938850000
    5      H       1.2219080000    -6.8215180000     2.1128190000
    6      C      -0.2666820000    -4.3786380000    -0.4643600000
    7      C       0.3982550000    -3.8380320000     0.6880530000
    8      C      -0.7896940000    -3.4130620000    -1.3691080000
    9      C       0.5423490000    -2.4264730000     0.9390020000
   10      C      -0.6525890000    -2.0593480000    -1.1304090000
   11      C       0.0000000000    -1.4782160000     0.0000000000
   12      H      -1.0924530000    -1.3947830000    -1.8914460000
   13      C      -1.1315950000    -6.1879870000    -1.9675190000
   14      C      -1.5049120000    -3.7981640000    -2.6081180000
   15      N      -1.6251740000    -5.1700030000    -2.8198130000
   16      C       1.6391290000    -4.4249870000     2.8361880000
   17      C       1.2634770000    -2.0366270000     2.1895580000
   18      N       1.7568980000    -3.0491560000     3.0422370000
   19      O      -1.3247870000    -7.3531310000    -2.3078450000
   20      O      -1.9673540000    -2.9868540000    -3.4072130000
   21      O       2.0958920000    -5.2489460000     3.6258900000
   22      O       1.4686850000    -0.8788290000     2.5478500000
   23      C      -2.3305640000    -5.5637990000    -4.0436740000
   24      H      -2.3521780000    -6.6640850000    -4.0834070000
   25      H      -1.8072630000    -5.1471010000    -4.9254900000
   26      H      -3.3565680000    -5.1487850000    -4.0318770000
   27      C       2.4520800000    -2.5874870000     4.2472060000
   28      H       2.7743020000    -3.4833290000     4.8031870000
   29      H       1.7733010000    -1.9649720000     4.8605360000
   30      H       3.3213510000    -1.9629320000     3.9666070000
   31      H       0.0370430000    -7.8223180000     0.0605670000
   32      C       0.0000000000     0.0000000000     0.0000000000
   33      S       0.0689290000     0.7901700000     1.5805300000
   34      C       0.2116390000     2.4216550000     0.9049110000
   35      C       0.0868130000     0.9942070000    -0.9854000000
   36      C       0.2017820000     2.3094330000    -0.4935280000
   37      H       0.0662990000     0.7594540000    -2.0599340000
   38      H       0.2784880000     3.1870200000    -1.1525930000
   39      H       0.2883120000     3.2989920000     1.5560250000
 ----------------------------------------------------------------

   10   -1570.6652037320      7.86e-07  Convergence criterion met
 Total energy in the final basis set =    -1570.6652037320
        RIMP2         total energy =     -1575.2998150763 a.u.

                    Orbital Energies (a.u.)
 --------------------------------------------------------------

 Alpha MOs
 -- Occupied --
-91.9811 -20.5589 -20.5568 -20.5543 -20.5535 -15.6315 -15.6309 -11.4002
-11.3976 -11.3919 -11.3910 -11.3192 -11.3026 -11.3018 -11.3008 -11.2964
-11.2954 -11.2885 -11.2871 -11.2843 -11.2797 -11.2790 -11.2782 -11.2648
-11.2648 -11.2592 -11.2430  -8.9809  -6.6613  -6.6606  -6.6600  -1.4271
 -1.4252  -1.4053  -1.4045  -1.2681  -1.2660  -1.2171  -1.1721  -1.1429
 -1.1170  -1.0620  -1.0497  -0.9930  -0.9882  -0.9809  -0.9592  -0.9473
 -0.8968  -0.8800  -0.8777  -0.8624  -0.7937  -0.7774  -0.7750  -0.7597
 -0.7325  -0.7210  -0.7033  -0.6933  -0.6862  -0.6740  -0.6668  -0.6627
 -0.6570  -0.6406  -0.6379  -0.6358  -0.6282  -0.6138  -0.5841  -0.5822
 -0.5799  -0.5713  -0.5689  -0.5651  -0.5641  -0.5559  -0.5549  -0.5488
 -0.5336  -0.5237  -0.5215  -0.5182  -0.4857  -0.4723  -0.4646  -0.4638
 -0.4571  -0.4363  -0.4253  -0.4164  -0.4091  -0.3719  -0.3371  -0.3330
 -0.2999

          Ground-State Mulliken Net Atomic Charges

     Atom                 Charge (a.u.)
  ----------------------------------------
      1 C                    -0.142412
      2 C                    -0.109264
      3 C                    -0.035559
      4 C                    -0.004512
      5 H                     0.188454
      6 C                    -0.001355
      7 C                     0.081885
      8 C                     0.000468
      9 C                    -0.079464
     10 C                    -0.147004
     11 C                     0.110126
     12 H                     0.183467
     13 C                     0.360389
     14 C                     0.367564
     15 N                    -0.101582
     16 C                     0.359691
     17 C                     0.388324
     18 N                    -0.094975
     19 O                    -0.464190
     20 O                    -0.476577
     21 O                    -0.481872
     22 O                    -0.460977
     23 C                    -0.201028
     24 H                     0.141182
     25 H                     0.112275
     26 H                     0.112507
     27 C                    -0.197314
     28 H                     0.134402
     29 H                     0.113112
     30 H                     0.113126
     31 H                     0.213069
     32 C                    -0.061995
     33 S                     0.085301
     34 C                    -0.203500
     35 C                    -0.150836
     36 C                    -0.237586
     37 H                     0.189915
     38 H                     0.186768
     39 H                     0.209977
  ----------------------------------------
  Sum of atomic charges =     0.000000

                    Cartesian Multipole Moments
 -----------------------------------------------------------------
    Charge (ESU x 10^10)
                 0.0000
    Dipole Moment (Debye)
         X       0.4658      Y       1.1922      Z      -0.2907
       Tot       1.3125
    Quadrupole Moments (Debye-Ang)
        XX    -168.9668     XY       0.9999     YY    -168.4918
        XZ      -7.9806     YZ       0.6490     ZZ    -171.6357

 Total job time:  266.09s(wall), 8103.19s(cpu)
        *  Thank you very much for using Q-Chem.  Have a nice day.  *
