 Q-Chem 5.4, Q-Chem, Inc., Pleasanton, CA (2021)
 Q-Chem 5.4.0 for Intel X86 EM64T Linux

User input:
--------------------------------------------------------------
$molecule
0 1
C	0.166281	-6.741404	0.195868
C	1.005696	-6.155638	1.196048
C	-0.530233	-5.791452	-0.634911
C	1.184587	-4.803786	1.409599
H	1.570232	-6.821518	1.868538
C	-0.343266	-4.378638	-0.410996
C	0.511683	-3.838032	0.608444
C	-1.015440	-3.413062	-1.211179
C	0.697165	-2.426473	0.830559
C	-0.838968	-2.059348	-0.999915
C	-0.000000	-1.478216	-0.000000
H	-1.404302	-1.394783	-1.673009
C	-1.456059	-6.187987	-1.741129
C	-1.934944	-3.798164	-2.307170
N	-2.090139	-5.170003	-2.494766
C	2.106725	-4.424987	2.508468
C	1.624494	-2.036627	1.936893
N	2.258486	-3.049156	2.690936
O	-1.705414	-7.353131	-2.042736
O	-2.529122	-2.986854	-3.013823
O	2.693680	-5.248946	3.206857
O	1.888802	-0.878829	2.254108
C	-2.997334	-5.563799	-3.577543
H	-3.025519	-6.664085	-3.612920
H	-2.635109	-5.147101	-4.536833
H	-4.005702	-5.148785	-3.387762
C	3.152347	-2.587487	3.756883
H	3.566218	-3.483329	4.248464
H	2.590383	-1.964972	4.478763
H	3.959687	-1.962932	3.329599
H	0.046998	-7.822318	0.053215
C	0.000000	0.000000	0.000000
S	0.607475	0.509994	1.580530
C	1.862020	1.562717	0.904911
C	0.764397	0.641624	-0.985400
C	1.775697	1.490335	-0.493528
H	0.583895	0.490135	-2.059934
H	2.450484	2.056643	-1.152593
H	2.536607	2.128872	1.556025
$end

$rem
JOBTYPE		SP
EXCHANGE	HF
CORRELATION	pRIMP2
BASIS		cc-pvtz
METHOD		rimp2
AUX_BASIS	rimp2-cc-pvtz
SOLVENT_METHOD	PCM
PURECART	11111
SYMMETRY	false
MEM_TOTAL	110000
SCF_CONVERGENCE = 6
THRESH=10
GUI = 2
$end

$solvent
dielectric 4.90
$end
--------------------------------------------------------------

             Standard Nuclear Orientation (Angstroms)
    I     Atom           X                Y                Z
 ----------------------------------------------------------------
    1      C       0.1662810000    -6.7414040000     0.1958680000
    2      C       1.0056960000    -6.1556380000     1.1960480000
    3      C      -0.5302330000    -5.7914520000    -0.6349110000
    4      C       1.1845870000    -4.8037860000     1.4095990000
    5      H       1.5702320000    -6.8215180000     1.8685380000
    6      C      -0.3432660000    -4.3786380000    -0.4109960000
    7      C       0.5116830000    -3.8380320000     0.6084440000
    8      C      -1.0154400000    -3.4130620000    -1.2111790000
    9      C       0.6971650000    -2.4264730000     0.8305590000
   10      C      -0.8389680000    -2.0593480000    -0.9999150000
   11      C       0.0000000000    -1.4782160000     0.0000000000
   12      H      -1.4043020000    -1.3947830000    -1.6730090000
   13      C      -1.4560590000    -6.1879870000    -1.7411290000
   14      C      -1.9349440000    -3.7981640000    -2.3071700000
   15      N      -2.0901390000    -5.1700030000    -2.4947660000
   16      C       2.1067250000    -4.4249870000     2.5084680000
   17      C       1.6244940000    -2.0366270000     1.9368930000
   18      N       2.2584860000    -3.0491560000     2.6909360000
   19      O      -1.7054140000    -7.3531310000    -2.0427360000
   20      O      -2.5291220000    -2.9868540000    -3.0138230000
   21      O       2.6936800000    -5.2489460000     3.2068570000
   22      O       1.8888020000    -0.8788290000     2.2541080000
   23      C      -2.9973340000    -5.5637990000    -3.5775430000
   24      H      -3.0255190000    -6.6640850000    -3.6129200000
   25      H      -2.6351090000    -5.1471010000    -4.5368330000
   26      H      -4.0057020000    -5.1487850000    -3.3877620000
   27      C       3.1523470000    -2.5874870000     3.7568830000
   28      H       3.5662180000    -3.4833290000     4.2484640000
   29      H       2.5903830000    -1.9649720000     4.4787630000
   30      H       3.9596870000    -1.9629320000     3.3295990000
   31      H       0.0469980000    -7.8223180000     0.0532150000
   32      C       0.0000000000     0.0000000000     0.0000000000
   33      S       0.6074750000     0.5099940000     1.5805300000
   34      C       1.8620200000     1.5627170000     0.9049110000
   35      C       0.7643970000     0.6416240000    -0.9854000000
   36      C       1.7756970000     1.4903350000    -0.4935280000
   37      H       0.5838950000     0.4901350000    -2.0599340000
   38      H       2.4504840000     2.0566430000    -1.1525930000
   39      H       2.5366070000     2.1288720000     1.5560250000
 ----------------------------------------------------------------

   11   -1570.5536118069      7.73e-07  Convergence criterion met
 Total energy in the final basis set =    -1570.5536118069
        RIMP2         total energy =     -1575.2172037479 a.u.

                    Orbital Energies (a.u.)
 --------------------------------------------------------------

 Alpha MOs
 -- Occupied --
-91.9993 -20.5654 -20.5590 -20.5566 -20.5564 -15.6374 -15.6312 -11.4094
-11.4000 -11.3940 -11.3905 -11.3210 -11.3026 -11.3010 -11.2944 -11.2930
-11.2919 -11.2869 -11.2823 -11.2794 -11.2778 -11.2721 -11.2683 -11.2645
-11.2624 -11.2499 -11.2389  -8.9978  -6.6784  -6.6771  -6.6760  -1.4486
 -1.4250  -1.4119  -1.4043  -1.2758  -1.2666  -1.2168  -1.1751  -1.1406
 -1.1159  -1.0597  -1.0490  -0.9944  -0.9924  -0.9833  -0.9606  -0.9470
 -0.8994  -0.8810  -0.8735  -0.8636  -0.7904  -0.7812  -0.7777  -0.7566
 -0.7381  -0.7277  -0.7041  -0.6915  -0.6900  -0.6742  -0.6702  -0.6638
 -0.6583  -0.6484  -0.6400  -0.6378  -0.6285  -0.6141  -0.5885  -0.5845
 -0.5826  -0.5764  -0.5673  -0.5642  -0.5603  -0.5579  -0.5576  -0.5499
 -0.5371  -0.5276  -0.5204  -0.5141  -0.4812  -0.4739  -0.4654  -0.4604
 -0.4555  -0.4421  -0.4249  -0.4198  -0.4092  -0.3659  -0.3373  -0.3029
 -0.2738

          Ground-State Mulliken Net Atomic Charges

     Atom                 Charge (a.u.)
  ----------------------------------------
      1 C                    -0.154477
      2 C                    -0.105030
      3 C                    -0.027116
      4 C                    -0.009972
      5 H                     0.187743
      6 C                    -0.013535
      7 C                     0.084574
      8 C                     0.003382
      9 C                    -0.131514
     10 C                    -0.156966
     11 C                     0.128722
     12 H                     0.180430
     13 C                     0.361017
     14 C                     0.364460
     15 N                    -0.101525
     16 C                     0.360731
     17 C                     0.447058
     18 N                    -0.087583
     19 O                    -0.463149
     20 O                    -0.474506
     21 O                    -0.479586
     22 O                    -0.418654
     23 C                    -0.201149
     24 H                     0.141019
     25 H                     0.112256
     26 H                     0.112563
     27 C                    -0.197944
     28 H                     0.136413
     29 H                     0.114533
     30 H                     0.113728
     31 H                     0.211763
     32 C                    -0.136896
     33 S                     0.115747
     34 C                    -0.192993
     35 C                    -0.155563
     36 C                    -0.249850
     37 H                     0.189432
     38 H                     0.186949
     39 H                     0.205487
  ----------------------------------------
  Sum of atomic charges =     0.000000

                    Cartesian Multipole Moments
 -----------------------------------------------------------------
    Charge (ESU x 10^10)
                 0.0000
    Dipole Moment (Debye)
         X       2.8175      Y       0.1398      Z       1.0183
       Tot       2.9991
    Quadrupole Moments (Debye-Ang)
        XX    -164.4847     XY       4.4151     YY    -177.3525
        XZ      -5.5775     YZ      -0.5949     ZZ    -165.9301

 Total job time:  288.40s(wall), 8638.16s(cpu)
        *  Thank you very much for using Q-Chem.  Have a nice day.  *
