 Q-Chem 5.4, Q-Chem, Inc., Pleasanton, CA (2021)
 Q-Chem 5.4.0 for Intel X86 EM64T Linux

User input:
--------------------------------------------------------------
$molecule
0 1
C	0.129743	-6.741404	0.221766
C	0.782726	-6.155638	1.352515
C	-0.411926	-5.791452	-0.717339
C	0.921816	-4.803786	1.593885
H	1.221908	-6.821518	2.112819
C	-0.266682	-4.378638	-0.464360
C	0.398255	-3.838032	0.688053
C	-0.789694	-3.413062	-1.369108
C	0.542349	-2.426473	0.939002
C	-0.652589	-2.059348	-1.130409
C	-0.000000	-1.478216	-0.000000
H	-1.092453	-1.394783	-1.891446
C	-1.131595	-6.187987	-1.967519
C	-1.504912	-3.798164	-2.608118
N	-1.625174	-5.170003	-2.819813
C	1.639129	-4.424987	2.836188
C	1.263477	-2.036627	2.189558
N	1.756898	-3.049156	3.042237
O	-1.324787	-7.353131	-2.307845
O	-1.967354	-2.986854	-3.407213
O	2.095892	-5.248946	3.625890
O	1.468685	-0.878829	2.547850
C	-2.330564	-5.563799	-4.043674
H	-2.352178	-6.664085	-4.083407
H	-1.807263	-5.147101	-4.925490
H	-3.356568	-5.148785	-4.031877
C	2.452080	-2.587487	4.247206
H	2.774302	-3.483329	4.803187
H	1.773301	-1.964972	4.860536
H	3.321351	-1.962932	3.966607
H	0.037043	-7.822318	0.060567
C	0.000000	0.000000	0.000000
S	0.686805	0.396760	1.580530
C	2.105095	1.215640	0.904911
C	0.864201	0.499140	-0.985400
C	2.007514	1.159347	-0.493528
H	0.660136	0.381296	-2.059934
H	2.770388	1.599875	-1.152593
H	2.867745	1.656053	1.556025
$end

$rem
JOBTYPE		SP
EXCHANGE	HF
CORRELATION	pRIMP2
BASIS		cc-pvtz
METHOD		rimp2
AUX_BASIS	rimp2-cc-pvtz
SOLVENT_METHOD	PCM
PURECART	11111
SYMMETRY	false
MEM_TOTAL	110000
SCF_CONVERGENCE = 6
THRESH=10
GUI = 2
$end

$solvent
dielectric 4.90
$end
--------------------------------------------------------------

             Standard Nuclear Orientation (Angstroms)
    I     Atom           X                Y                Z
 ----------------------------------------------------------------
    1      C       0.1297430000    -6.7414040000     0.2217660000
    2      C       0.7827260000    -6.1556380000     1.3525150000
    3      C      -0.4119260000    -5.7914520000    -0.7173390000
    4      C       0.9218160000    -4.8037860000     1.5938850000
    5      H       1.2219080000    -6.8215180000     2.1128190000
    6      C      -0.2666820000    -4.3786380000    -0.4643600000
    7      C       0.3982550000    -3.8380320000     0.6880530000
    8      C      -0.7896940000    -3.4130620000    -1.3691080000
    9      C       0.5423490000    -2.4264730000     0.9390020000
   10      C      -0.6525890000    -2.0593480000    -1.1304090000
   11      C       0.0000000000    -1.4782160000     0.0000000000
   12      H      -1.0924530000    -1.3947830000    -1.8914460000
   13      C      -1.1315950000    -6.1879870000    -1.9675190000
   14      C      -1.5049120000    -3.7981640000    -2.6081180000
   15      N      -1.6251740000    -5.1700030000    -2.8198130000
   16      C       1.6391290000    -4.4249870000     2.8361880000
   17      C       1.2634770000    -2.0366270000     2.1895580000
   18      N       1.7568980000    -3.0491560000     3.0422370000
   19      O      -1.3247870000    -7.3531310000    -2.3078450000
   20      O      -1.9673540000    -2.9868540000    -3.4072130000
   21      O       2.0958920000    -5.2489460000     3.6258900000
   22      O       1.4686850000    -0.8788290000     2.5478500000
   23      C      -2.3305640000    -5.5637990000    -4.0436740000
   24      H      -2.3521780000    -6.6640850000    -4.0834070000
   25      H      -1.8072630000    -5.1471010000    -4.9254900000
   26      H      -3.3565680000    -5.1487850000    -4.0318770000
   27      C       2.4520800000    -2.5874870000     4.2472060000
   28      H       2.7743020000    -3.4833290000     4.8031870000
   29      H       1.7733010000    -1.9649720000     4.8605360000
   30      H       3.3213510000    -1.9629320000     3.9666070000
   31      H       0.0370430000    -7.8223180000     0.0605670000
   32      C       0.0000000000     0.0000000000     0.0000000000
   33      S       0.6868050000     0.3967600000     1.5805300000
   34      C       2.1050950000     1.2156400000     0.9049110000
   35      C       0.8642010000     0.4991400000    -0.9854000000
   36      C       2.0075140000     1.1593470000    -0.4935280000
   37      H       0.6601360000     0.3812960000    -2.0599340000
   38      H       2.7703880000     1.5998750000    -1.1525930000
   39      H       2.8677450000     1.6560530000     1.5560250000
 ----------------------------------------------------------------

   11   -1570.4858776942      6.19e-07  Convergence criterion met
 Total energy in the final basis set =    -1570.4858776942
        RIMP2         total energy =     -1575.1561541879 a.u.

                    Orbital Energies (a.u.)
 --------------------------------------------------------------

 Alpha MOs
 -- Occupied --
-92.0389 -20.6180 -20.5624 -20.5605 -20.5577 -15.6534 -15.6322 -11.4378
-11.4012 -11.4008 -11.3917 -11.3265 -11.3047 -11.3044 -11.2939 -11.2927
-11.2902 -11.2897 -11.2829 -11.2810 -11.2759 -11.2730 -11.2649 -11.2513
-11.2477 -11.2316 -11.2221  -9.0331  -6.7145  -6.7120  -6.7100  -1.5063
 -1.4260  -1.4203  -1.4054  -1.2936  -1.2677  -1.2198  -1.1775  -1.1409
 -1.1185  -1.0609  -1.0522  -1.0095  -0.9994  -0.9824  -0.9649  -0.9479
 -0.9078  -0.8857  -0.8746  -0.8671  -0.8060  -0.7922  -0.7830  -0.7580
 -0.7539  -0.7297  -0.7062  -0.6956  -0.6939  -0.6880  -0.6762  -0.6649
 -0.6618  -0.6478  -0.6426  -0.6418  -0.6316  -0.6190  -0.6161  -0.5992
 -0.5857  -0.5784  -0.5665  -0.5652  -0.5636  -0.5618  -0.5517  -0.5467
 -0.5443  -0.5370  -0.5176  -0.5154  -0.4848  -0.4799  -0.4716  -0.4634
 -0.4570  -0.4431  -0.4235  -0.4198  -0.4115  -0.3674  -0.3417  -0.3001
 -0.2416

          Ground-State Mulliken Net Atomic Charges

     Atom                 Charge (a.u.)
  ----------------------------------------
      1 C                    -0.166327
      2 C                    -0.102667
      3 C                    -0.016976
      4 C                    -0.015827
      5 H                     0.187878
      6 C                    -0.009156
      7 C                     0.099978
      8 C                    -0.002151
      9 C                    -0.164562
     10 C                    -0.147445
     11 C                     0.134199
     12 H                     0.181447
     13 C                     0.361466
     14 C                     0.364366
     15 N                    -0.102007
     16 C                     0.365594
     17 C                     0.439102
     18 N                    -0.078766
     19 O                    -0.460922
     20 O                    -0.471882
     21 O                    -0.472186
     22 O                    -0.316002
     23 C                    -0.200986
     24 H                     0.141136
     25 H                     0.112833
     26 H                     0.112934
     27 C                    -0.198598
     28 H                     0.140233
     29 H                     0.118368
     30 H                     0.117844
     31 H                     0.210892
     32 C                    -0.170702
     33 S                     0.251015
     34 C                    -0.335635
     35 C                    -0.241034
     36 C                    -0.229458
     37 H                     0.180143
     38 H                     0.185426
     39 H                     0.198437
  ----------------------------------------
  Sum of atomic charges =     0.000000

                    Cartesian Multipole Moments
 -----------------------------------------------------------------
    Charge (ESU x 10^10)
                 0.0000
    Dipole Moment (Debye)
         X       2.6123      Y      -1.7732      Z       3.3957
       Tot       4.6368
    Quadrupole Moments (Debye-Ang)
        XX    -161.3069     XY       0.9447     YY    -177.5133
        XZ      -1.0322     YZ      -3.3585     ZZ    -162.9090

 Total job time:  277.14s(wall), 8485.57s(cpu)
        *  Thank you very much for using Q-Chem.  Have a nice day.  *
