 Q-Chem 5.4, Q-Chem, Inc., Pleasanton, CA (2021)
 Q-Chem 5.4.0 for Intel X86 EM64T Linux

User input:
--------------------------------------------------------------
$molecule
0 1
C	0.197767	-6.741404	0.164018
C	1.198109	-6.155638	1.003240
C	-0.632428	-5.791452	-0.533192
C	1.411364	-4.803786	1.182482
H	1.870845	-6.821518	1.567483
C	-0.409419	-4.378638	-0.345145
C	0.609565	-3.838032	0.510347
C	-1.210332	-3.413062	-1.016449
C	0.830799	-2.426473	0.696879
C	-0.999856	-2.059348	-0.839039
C	-0.000000	-1.478216	-0.000000
H	-1.673483	-1.394783	-1.403737
C	-1.736282	-6.187987	-1.461835
C	-2.306183	-3.798164	-1.936119
N	-2.491597	-5.170003	-2.093916
C	2.510310	-4.424987	2.104529
C	1.936153	-2.036627	1.625377
N	2.691451	-3.049156	2.257873
O	-2.034222	-7.353131	-1.715561
O	-3.014044	-2.986854	-2.528858
O	3.209622	-5.248946	2.690385
O	2.251529	-0.878829	1.891876
C	-3.573032	-5.563799	-3.002711
H	-3.606932	-6.664085	-3.032655
H	-3.382888	-5.147101	-4.010326
H	-4.533125	-5.148785	-2.640711
C	3.756832	-2.587487	3.152408
H	4.249778	-3.483329	3.564653
H	3.328759	-1.964972	3.960905
H	4.477709	-1.962932	2.591422
H	0.055524	-7.822318	0.044245
C	0.000000	0.000000	0.000000
S	0.686805	0.396760	1.580530
C	2.105095	1.215640	0.904911
C	0.864201	0.499140	-0.985400
C	2.007514	1.159347	-0.493528
H	0.660136	0.381296	-2.059934
H	2.770388	1.599875	-1.152593
H	2.867745	1.656053	1.556025
$end

$rem
JOBTYPE		SP
EXCHANGE	HF
CORRELATION	pRIMP2
BASIS		cc-pvtz
METHOD		rimp2
AUX_BASIS	rimp2-cc-pvtz
SOLVENT_METHOD	PCM
PURECART	11111
SYMMETRY	false
MEM_TOTAL	110000
SCF_CONVERGENCE = 6
THRESH=10
GUI = 2
$end

$solvent
dielectric 4.90
$end
--------------------------------------------------------------

             Standard Nuclear Orientation (Angstroms)
    I     Atom           X                Y                Z
 ----------------------------------------------------------------
    1      C       0.1977670000    -6.7414040000     0.1640180000
    2      C       1.1981090000    -6.1556380000     1.0032400000
    3      C      -0.6324280000    -5.7914520000    -0.5331920000
    4      C       1.4113640000    -4.8037860000     1.1824820000
    5      H       1.8708450000    -6.8215180000     1.5674830000
    6      C      -0.4094190000    -4.3786380000    -0.3451450000
    7      C       0.6095650000    -3.8380320000     0.5103470000
    8      C      -1.2103320000    -3.4130620000    -1.0164490000
    9      C       0.8307990000    -2.4264730000     0.6968790000
   10      C      -0.9998560000    -2.0593480000    -0.8390390000
   11      C       0.0000000000    -1.4782160000     0.0000000000
   12      H      -1.6734830000    -1.3947830000    -1.4037370000
   13      C      -1.7362820000    -6.1879870000    -1.4618350000
   14      C      -2.3061830000    -3.7981640000    -1.9361190000
   15      N      -2.4915970000    -5.1700030000    -2.0939160000
   16      C       2.5103100000    -4.4249870000     2.1045290000
   17      C       1.9361530000    -2.0366270000     1.6253770000
   18      N       2.6914510000    -3.0491560000     2.2578730000
   19      O      -2.0342220000    -7.3531310000    -1.7155610000
   20      O      -3.0140440000    -2.9868540000    -2.5288580000
   21      O       3.2096220000    -5.2489460000     2.6903850000
   22      O       2.2515290000    -0.8788290000     1.8918760000
   23      C      -3.5730320000    -5.5637990000    -3.0027110000
   24      H      -3.6069320000    -6.6640850000    -3.0326550000
   25      H      -3.3828880000    -5.1471010000    -4.0103260000
   26      H      -4.5331250000    -5.1487850000    -2.6407110000
   27      C       3.7568320000    -2.5874870000     3.1524080000
   28      H       4.2497780000    -3.4833290000     3.5646530000
   29      H       3.3287590000    -1.9649720000     3.9609050000
   30      H       4.4777090000    -1.9629320000     2.5914220000
   31      H       0.0555240000    -7.8223180000     0.0442450000
   32      C       0.0000000000     0.0000000000     0.0000000000
   33      S       0.6868050000     0.3967600000     1.5805300000
   34      C       2.1050950000     1.2156400000     0.9049110000
   35      C       0.8642010000     0.4991400000    -0.9854000000
   36      C       2.0075140000     1.1593470000    -0.4935280000
   37      H       0.6601360000     0.3812960000    -2.0599340000
   38      H       2.7703880000     1.5998750000    -1.1525930000
   39      H       2.8677450000     1.6560530000     1.5560250000
 ----------------------------------------------------------------

   11   -1570.5288729399      9.56e-07  Convergence criterion met
 Total energy in the final basis set =    -1570.5288729399
        RIMP2         total energy =     -1575.1932479114 a.u.

                    Orbital Energies (a.u.)
 --------------------------------------------------------------

 Alpha MOs
 -- Occupied --
-91.9826 -20.5583 -20.5558 -20.5540 -20.5537 -15.6336 -15.6305 -11.4009
-11.3993 -11.3913 -11.3895 -11.3198 -11.3015 -11.2991 -11.2912 -11.2905
-11.2905 -11.2886 -11.2852 -11.2807 -11.2781 -11.2688 -11.2668 -11.2668
-11.2641 -11.2576 -11.2448  -8.9827  -6.6633  -6.6623  -6.6615  -1.4416
 -1.4243  -1.4091  -1.4036  -1.2721  -1.2658  -1.2159  -1.1797  -1.1402
 -1.1140  -1.0600  -1.0469  -0.9930  -0.9927  -0.9866  -0.9592  -0.9477
 -0.8965  -0.8792  -0.8702  -0.8612  -0.7884  -0.7805  -0.7749  -0.7638
 -0.7369  -0.7227  -0.7035  -0.6921  -0.6872  -0.6723  -0.6672  -0.6628
 -0.6572  -0.6521  -0.6384  -0.6363  -0.6274  -0.6119  -0.5890  -0.5825
 -0.5785  -0.5749  -0.5727  -0.5645  -0.5606  -0.5567  -0.5563  -0.5488
 -0.5373  -0.5248  -0.5195  -0.5046  -0.4795  -0.4747  -0.4627  -0.4564
 -0.4517  -0.4392  -0.4262  -0.4178  -0.4071  -0.3585  -0.3357  -0.3131
 -0.2751

          Ground-State Mulliken Net Atomic Charges

     Atom                 Charge (a.u.)
  ----------------------------------------
      1 C                    -0.156274
      2 C                    -0.106633
      3 C                    -0.027491
      4 C                    -0.005872
      5 H                     0.187199
      6 C                    -0.017392
      7 C                     0.081915
      8 C                     0.006214
      9 C                    -0.115023
     10 C                    -0.154524
     11 C                     0.121155
     12 H                     0.179174
     13 C                     0.360678
     14 C                     0.364500
     15 N                    -0.101252
     16 C                     0.356696
     17 C                     0.438426
     18 N                    -0.086641
     19 O                    -0.463753
     20 O                    -0.475012
     21 O                    -0.483636
     22 O                    -0.433410
     23 C                    -0.201347
     24 H                     0.140885
     25 H                     0.112010
     26 H                     0.112403
     27 C                    -0.198095
     28 H                     0.136096
     29 H                     0.113351
     30 H                     0.111754
     31 H                     0.211308
     32 C                    -0.164234
     33 S                     0.017571
     34 C                    -0.079876
     35 C                    -0.094023
     36 C                    -0.271617
     37 H                     0.193964
     38 H                     0.185761
     39 H                     0.205044
  ----------------------------------------
  Sum of atomic charges =     0.000000

                    Cartesian Multipole Moments
 -----------------------------------------------------------------
    Charge (ESU x 10^10)
                 0.0000
    Dipole Moment (Debye)
         X       3.6855      Y       0.8043      Z       0.0054
       Tot       3.7722
    Quadrupole Moments (Debye-Ang)
        XX    -164.9792     XY       5.1612     YY    -181.3140
        XZ      -6.3557     YZ      -0.3357     ZZ    -164.2119

 Total job time:  275.74s(wall), 8438.96s(cpu)
        *  Thank you very much for using Q-Chem.  Have a nice day.  *
