 Q-Chem 5.4, Q-Chem, Inc., Pleasanton, CA (2021)
 Q-Chem 5.4.0 for Intel X86 EM64T Linux

User input:
--------------------------------------------------------------
$molecule
0 1
C	-0.127184	-6.741404	0.223244
C	-0.779949	-6.155638	1.354118
C	0.415271	-5.791452	-0.715408
C	-0.919437	-4.803786	1.595259
H	-1.218801	-6.821518	2.114613
C	0.268806	-4.378638	-0.463133
C	-0.396744	-3.838032	0.688925
C	0.790835	-3.413062	-1.368449
C	-0.542026	-2.426473	0.939189
C	0.652669	-2.059348	-1.130363
C	-0.000000	-1.478216	-0.000000
H	1.091814	-1.394783	-1.891815
C	1.138124	-6.187987	-1.963749
C	1.506241	-3.798164	-2.607351
N	1.629443	-5.170003	-2.817348
C	-1.636646	-4.424987	2.837621
C	-1.264474	-2.036627	2.188982
N	-1.756205	-3.049156	3.042637
O	1.336258	-7.353131	-2.301222
O	1.967056	-2.986854	-3.407386
O	-2.092167	-5.248946	3.628041
O	-1.472160	-0.878829	2.545844
C	2.336642	-5.563799	-4.040164
H	2.360245	-6.664085	-4.078749
H	3.361968	-5.147101	-4.027880
H	1.813424	-5.148785	-4.922811
C	-2.452149	-2.587487	4.247167
H	-2.772531	-3.483329	4.804209
H	-3.322697	-1.964972	3.965991
H	-1.774507	-1.962932	4.859678
H	-0.033931	-7.822318	0.062364
C	0.000000	0.000000	0.000000
S	0.271091	0.745405	1.580530
C	0.831198	2.284363	0.904911
C	0.341175	0.937861	-0.985400
C	0.792631	2.178516	-0.493528
H	0.260601	0.716417	-2.059934
H	1.093860	3.006347	-1.152593
H	1.132330	3.111961	1.556025
$end

$rem
JOBTYPE		SP
EXCHANGE	HF
CORRELATION	pRIMP2
BASIS		cc-pvtz
METHOD		rimp2
AUX_BASIS	rimp2-cc-pvtz
SOLVENT_METHOD	PCM
PURECART	11111
SYMMETRY	false
MEM_TOTAL	110000
SCF_CONVERGENCE = 6
THRESH=10
GUI = 2
$end

$solvent
dielectric 4.90
$end
--------------------------------------------------------------

             Standard Nuclear Orientation (Angstroms)
    I     Atom           X                Y                Z
 ----------------------------------------------------------------
    1      C      -0.1271840000    -6.7414040000     0.2232440000
    2      C      -0.7799490000    -6.1556380000     1.3541180000
    3      C       0.4152710000    -5.7914520000    -0.7154080000
    4      C      -0.9194370000    -4.8037860000     1.5952590000
    5      H      -1.2188010000    -6.8215180000     2.1146130000
    6      C       0.2688060000    -4.3786380000    -0.4631330000
    7      C      -0.3967440000    -3.8380320000     0.6889250000
    8      C       0.7908350000    -3.4130620000    -1.3684490000
    9      C      -0.5420260000    -2.4264730000     0.9391890000
   10      C       0.6526690000    -2.0593480000    -1.1303630000
   11      C       0.0000000000    -1.4782160000     0.0000000000
   12      H       1.0918140000    -1.3947830000    -1.8918150000
   13      C       1.1381240000    -6.1879870000    -1.9637490000
   14      C       1.5062410000    -3.7981640000    -2.6073510000
   15      N       1.6294430000    -5.1700030000    -2.8173480000
   16      C      -1.6366460000    -4.4249870000     2.8376210000
   17      C      -1.2644740000    -2.0366270000     2.1889820000
   18      N      -1.7562050000    -3.0491560000     3.0426370000
   19      O       1.3362580000    -7.3531310000    -2.3012220000
   20      O       1.9670560000    -2.9868540000    -3.4073860000
   21      O      -2.0921670000    -5.2489460000     3.6280410000
   22      O      -1.4721600000    -0.8788290000     2.5458440000
   23      C       2.3366420000    -5.5637990000    -4.0401640000
   24      H       2.3602450000    -6.6640850000    -4.0787490000
   25      H       3.3619680000    -5.1471010000    -4.0278800000
   26      H       1.8134240000    -5.1487850000    -4.9228110000
   27      C      -2.4521490000    -2.5874870000     4.2471670000
   28      H      -2.7725310000    -3.4833290000     4.8042090000
   29      H      -3.3226970000    -1.9649720000     3.9659910000
   30      H      -1.7745070000    -1.9629320000     4.8596780000
   31      H      -0.0339310000    -7.8223180000     0.0623640000
   32      C       0.0000000000     0.0000000000     0.0000000000
   33      S       0.2710910000     0.7454050000     1.5805300000
   34      C       0.8311980000     2.2843630000     0.9049110000
   35      C       0.3411750000     0.9378610000    -0.9854000000
   36      C       0.7926310000     2.1785160000    -0.4935280000
   37      H       0.2606010000     0.7164170000    -2.0599340000
   38      H       1.0938600000     3.0063470000    -1.1525930000
   39      H       1.1323300000     3.1119610000     1.5560250000
 ----------------------------------------------------------------

   10   -1570.6775324873      7.78e-07  Convergence criterion met
 Total energy in the final basis set =    -1570.6775324873
        RIMP2         total energy =     -1575.3088200768 a.u.

                    Orbital Energies (a.u.)
 --------------------------------------------------------------

 Alpha MOs
 -- Occupied --
-91.9854 -20.5587 -20.5567 -20.5552 -20.5537 -15.6314 -15.6302 -11.4000
-11.3964 -11.3914 -11.3909 -11.3191 -11.3022 -11.3006 -11.2995 -11.2958
-11.2949 -11.2896 -11.2867 -11.2838 -11.2837 -11.2793 -11.2776 -11.2647
-11.2643 -11.2628 -11.2481  -8.9848  -6.6653  -6.6647  -6.6641  -1.4254
 -1.4250  -1.4044  -1.4040  -1.2676  -1.2653  -1.2168  -1.1756  -1.1432
 -1.1165  -1.0623  -1.0492  -0.9926  -0.9893  -0.9843  -0.9588  -0.9473
 -0.8965  -0.8792  -0.8773  -0.8613  -0.7940  -0.7770  -0.7744  -0.7627
 -0.7324  -0.7187  -0.7046  -0.6939  -0.6847  -0.6745  -0.6664  -0.6623
 -0.6565  -0.6404  -0.6369  -0.6341  -0.6277  -0.6137  -0.5837  -0.5834
 -0.5806  -0.5713  -0.5688  -0.5665  -0.5642  -0.5555  -0.5545  -0.5485
 -0.5324  -0.5239  -0.5213  -0.5184  -0.4860  -0.4731  -0.4636  -0.4619
 -0.4573  -0.4405  -0.4270  -0.4172  -0.4088  -0.3722  -0.3474  -0.3363
 -0.3012

          Ground-State Mulliken Net Atomic Charges

     Atom                 Charge (a.u.)
  ----------------------------------------
      1 C                    -0.143171
      2 C                    -0.109377
      3 C                    -0.033019
      4 C                    -0.005291
      5 H                     0.188423
      6 C                     0.001709
      7 C                     0.084775
      8 C                     0.005203
      9 C                    -0.070520
     10 C                    -0.138874
     11 C                     0.083515
     12 H                     0.182054
     13 C                     0.359023
     14 C                     0.364321
     15 N                    -0.101625
     16 C                     0.358418
     17 C                     0.366141
     18 N                    -0.095319
     19 O                    -0.464325
     20 O                    -0.477183
     21 O                    -0.482337
     22 O                    -0.470904
     23 C                    -0.201279
     24 H                     0.141230
     25 H                     0.112429
     26 H                     0.112270
     27 C                    -0.197072
     28 H                     0.134082
     29 H                     0.113056
     30 H                     0.112976
     31 H                     0.212888
     32 C                    -0.004642
     33 S                     0.087374
     34 C                    -0.209655
     35 C                    -0.204212
     36 C                    -0.202646
     37 H                     0.189992
     38 H                     0.190006
     39 H                     0.211568
  ----------------------------------------
  Sum of atomic charges =     0.000000

                    Cartesian Multipole Moments
 -----------------------------------------------------------------
    Charge (ESU x 10^10)
                 0.0000
    Dipole Moment (Debye)
         X       0.6684      Y       1.5901      Z      -0.6754
       Tot       1.8524
    Quadrupole Moments (Debye-Ang)
        XX    -167.9583     XY       3.6314     YY    -169.4344
        XZ       8.9835     YZ       0.7533     ZZ    -172.2195

 Total job time:  262.80s(wall), 8293.94s(cpu)
        *  Thank you very much for using Q-Chem.  Have a nice day.  *
