 Q-Chem 5.4, Q-Chem, Inc., Pleasanton, CA (2021)
 Q-Chem 5.4.0 for Intel X86 EM64T Linux

User input:
--------------------------------------------------------------
$molecule
0 1
C	0.195868	-6.741404	-0.166281
C	1.196048	-6.155638	-1.005696
C	-0.634911	-5.791452	0.530233
C	1.409599	-4.803786	-1.184587
H	1.868538	-6.821518	-1.570232
C	-0.410996	-4.378638	0.343266
C	0.608444	-3.838032	-0.511683
C	-1.211179	-3.413062	1.015440
C	0.830559	-2.426473	-0.697165
C	-0.999915	-2.059348	0.838968
C	-0.000000	-1.478216	-0.000000
H	-1.673009	-1.394783	1.404302
C	-1.741129	-6.187987	1.456059
C	-2.307170	-3.798164	1.934944
N	-2.494766	-5.170003	2.090139
C	2.508468	-4.424987	-2.106725
C	1.936893	-2.036627	-1.624494
N	2.690936	-3.049156	-2.258486
O	-2.042736	-7.353131	1.705414
O	-3.013823	-2.986854	2.529122
O	3.206857	-5.248946	-2.693680
O	2.254108	-0.878829	-1.888802
C	-3.577543	-5.563799	2.997334
H	-3.612920	-6.664085	3.025519
H	-4.536833	-5.147101	2.635109
H	-3.387762	-5.148785	4.005702
C	3.756883	-2.587487	-3.152347
H	4.248464	-3.483329	-3.566218
H	4.478763	-1.964972	-2.590383
H	3.329599	-1.962932	-3.959687
H	0.053215	-7.822318	-0.046998
C	0.000000	0.000000	0.000000
S	0.607475	0.509994	1.580530
C	1.862020	1.562717	0.904911
C	0.764397	0.641624	-0.985400
C	1.775697	1.490335	-0.493528
H	0.583895	0.490135	-2.059934
H	2.450484	2.056643	-1.152593
H	2.536607	2.128872	1.556025
$end

$rem
JOBTYPE		SP
EXCHANGE	HF
CORRELATION	pRIMP2
BASIS		cc-pvtz
METHOD		rimp2
AUX_BASIS	rimp2-cc-pvtz
SOLVENT_METHOD	PCM
PURECART	11111
SYMMETRY	false
MEM_TOTAL	110000
SCF_CONVERGENCE = 6
THRESH=10
GUI = 2
$end

$solvent
dielectric 4.90
$end
--------------------------------------------------------------

             Standard Nuclear Orientation (Angstroms)
    I     Atom           X                Y                Z
 ----------------------------------------------------------------
    1      C       0.1958680000    -6.7414040000    -0.1662810000
    2      C       1.1960480000    -6.1556380000    -1.0056960000
    3      C      -0.6349110000    -5.7914520000     0.5302330000
    4      C       1.4095990000    -4.8037860000    -1.1845870000
    5      H       1.8685380000    -6.8215180000    -1.5702320000
    6      C      -0.4109960000    -4.3786380000     0.3432660000
    7      C       0.6084440000    -3.8380320000    -0.5116830000
    8      C      -1.2111790000    -3.4130620000     1.0154400000
    9      C       0.8305590000    -2.4264730000    -0.6971650000
   10      C      -0.9999150000    -2.0593480000     0.8389680000
   11      C       0.0000000000    -1.4782160000     0.0000000000
   12      H      -1.6730090000    -1.3947830000     1.4043020000
   13      C      -1.7411290000    -6.1879870000     1.4560590000
   14      C      -2.3071700000    -3.7981640000     1.9349440000
   15      N      -2.4947660000    -5.1700030000     2.0901390000
   16      C       2.5084680000    -4.4249870000    -2.1067250000
   17      C       1.9368930000    -2.0366270000    -1.6244940000
   18      N       2.6909360000    -3.0491560000    -2.2584860000
   19      O      -2.0427360000    -7.3531310000     1.7054140000
   20      O      -3.0138230000    -2.9868540000     2.5291220000
   21      O       3.2068570000    -5.2489460000    -2.6936800000
   22      O       2.2541080000    -0.8788290000    -1.8888020000
   23      C      -3.5775430000    -5.5637990000     2.9973340000
   24      H      -3.6129200000    -6.6640850000     3.0255190000
   25      H      -4.5368330000    -5.1471010000     2.6351090000
   26      H      -3.3877620000    -5.1487850000     4.0057020000
   27      C       3.7568830000    -2.5874870000    -3.1523470000
   28      H       4.2484640000    -3.4833290000    -3.5662180000
   29      H       4.4787630000    -1.9649720000    -2.5903830000
   30      H       3.3295990000    -1.9629320000    -3.9596870000
   31      H       0.0532150000    -7.8223180000    -0.0469980000
   32      C       0.0000000000     0.0000000000     0.0000000000
   33      S       0.6074750000     0.5099940000     1.5805300000
   34      C       1.8620200000     1.5627170000     0.9049110000
   35      C       0.7643970000     0.6416240000    -0.9854000000
   36      C       1.7756970000     1.4903350000    -0.4935280000
   37      H       0.5838950000     0.4901350000    -2.0599340000
   38      H       2.4504840000     2.0566430000    -1.1525930000
   39      H       2.5366070000     2.1288720000     1.5560250000
 ----------------------------------------------------------------

   11   -1570.6357047550      4.81e-07  Convergence criterion met
 Total energy in the final basis set =    -1570.6357047550
        RIMP2         total energy =     -1575.2696348957 a.u.

                    Orbital Energies (a.u.)
 --------------------------------------------------------------

 Alpha MOs
 -- Occupied --
-91.9875 -20.5575 -20.5547 -20.5534 -20.5524 -15.6303 -15.6298 -11.3987
-11.3965 -11.3908 -11.3888 -11.3156 -11.3014 -11.3005 -11.2978 -11.2924
-11.2920 -11.2916 -11.2836 -11.2812 -11.2774 -11.2750 -11.2711 -11.2651
-11.2636 -11.2604 -11.2487  -8.9876  -6.6684  -6.6678  -6.6672  -1.4255
 -1.4235  -1.4040  -1.4028  -1.2668  -1.2646  -1.2148  -1.1807  -1.1412
 -1.1136  -1.0602  -1.0464  -0.9923  -0.9906  -0.9876  -0.9580  -0.9469
 -0.8949  -0.8777  -0.8718  -0.8594  -0.7927  -0.7753  -0.7725  -0.7631
 -0.7347  -0.7227  -0.7030  -0.6919  -0.6812  -0.6712  -0.6656  -0.6615
 -0.6545  -0.6411  -0.6359  -0.6337  -0.6259  -0.6107  -0.5874  -0.5865
 -0.5796  -0.5743  -0.5643  -0.5618  -0.5569  -0.5543  -0.5512  -0.5476
 -0.5365  -0.5233  -0.5191  -0.5090  -0.4818  -0.4703  -0.4645  -0.4613
 -0.4545  -0.4487  -0.4274  -0.4176  -0.4068  -0.3693  -0.3380  -0.3341
 -0.3054

          Ground-State Mulliken Net Atomic Charges

     Atom                 Charge (a.u.)
  ----------------------------------------
      1 C                    -0.151471
      2 C                    -0.108258
      3 C                    -0.030936
      4 C                    -0.007263
      5 H                     0.187103
      6 C                    -0.014434
      7 C                     0.080948
      8 C                     0.006628
      9 C                    -0.071303
     10 C                    -0.158037
     11 C                     0.103177
     12 H                     0.178844
     13 C                     0.360532
     14 C                     0.364432
     15 N                    -0.101206
     16 C                     0.358721
     17 C                     0.395023
     18 N                    -0.090536
     19 O                    -0.464976
     20 O                    -0.476583
     21 O                    -0.483387
     22 O                    -0.479638
     23 C                    -0.201524
     24 H                     0.140758
     25 H                     0.112125
     26 H                     0.112234
     27 C                    -0.197960
     28 H                     0.134763
     29 H                     0.112561
     30 H                     0.111518
     31 H                     0.211704
     32 C                    -0.177042
     33 S                     0.026089
     34 C                    -0.156170
     35 C                    -0.021829
     36 C                    -0.203332
     37 H                     0.195991
     38 H                     0.186223
     39 H                     0.216511
  ----------------------------------------
  Sum of atomic charges =     0.000000

                    Cartesian Multipole Moments
 -----------------------------------------------------------------
    Charge (ESU x 10^10)
                 0.0000
    Dipole Moment (Debye)
         X       2.7573      Y       2.2096      Z      -1.4193
       Tot       3.8078
    Quadrupole Moments (Debye-Ang)
        XX    -168.5304     XY       6.6196     YY    -177.8136
        XZ      10.8455     YZ       0.4158     ZZ    -165.8184

 Total job time:  278.11s(wall), 8527.14s(cpu)
        *  Thank you very much for using Q-Chem.  Have a nice day.  *
