 Q-Chem 5.4, Q-Chem, Inc., Pleasanton, CA (2021)
 Q-Chem 5.4.0 for Intel X86 EM64T Linux

User input:
--------------------------------------------------------------
$molecule
0 1
C	-0.221766	-6.741404	0.129743
C	-1.352515	-6.155638	0.782726
C	0.717339	-5.791452	-0.411926
C	-1.593885	-4.803786	0.921816
H	-2.112819	-6.821518	1.221908
C	0.464360	-4.378638	-0.266682
C	-0.688053	-3.838032	0.398255
C	1.369108	-3.413062	-0.789694
C	-0.939002	-2.426473	0.542349
C	1.130409	-2.059348	-0.652589
C	-0.000000	-1.478216	-0.000000
H	1.891446	-1.394783	-1.092453
C	1.967519	-6.187987	-1.131595
C	2.608118	-3.798164	-1.504912
N	2.819813	-5.170003	-1.625174
C	-2.836188	-4.424987	1.639129
C	-2.189558	-2.036627	1.263477
N	-3.042237	-3.049156	1.756898
O	2.307845	-7.353131	-1.324787
O	3.407213	-2.986854	-1.967354
O	-3.625890	-5.248946	2.095892
O	-2.547850	-0.878829	1.468685
C	4.043674	-5.563799	-2.330564
H	4.083407	-6.664085	-2.352178
H	4.925490	-5.147101	-1.807263
H	4.031877	-5.148785	-3.356568
C	-4.247206	-2.587487	2.452080
H	-4.803187	-3.483329	2.774302
H	-4.860536	-1.964972	1.773301
H	-3.966607	-1.962932	3.321351
H	-0.060567	-7.822318	0.037043
C	0.000000	0.000000	0.000000
S	0.271091	0.745405	1.580530
C	0.831198	2.284363	0.904911
C	0.341175	0.937861	-0.985400
C	0.792631	2.178516	-0.493528
H	0.260601	0.716417	-2.059934
H	1.093860	3.006347	-1.152593
H	1.132330	3.111961	1.556025
$end

$rem
JOBTYPE		SP
EXCHANGE	HF
CORRELATION	pRIMP2
BASIS		cc-pvtz
METHOD		rimp2
AUX_BASIS	rimp2-cc-pvtz
SOLVENT_METHOD	PCM
PURECART	11111
SYMMETRY	false
MEM_TOTAL	110000
SCF_CONVERGENCE = 6
THRESH=10
GUI = 2
$end

$solvent
dielectric 4.90
$end
--------------------------------------------------------------

             Standard Nuclear Orientation (Angstroms)
    I     Atom           X                Y                Z
 ----------------------------------------------------------------
    1      C      -0.2217660000    -6.7414040000     0.1297430000
    2      C      -1.3525150000    -6.1556380000     0.7827260000
    3      C       0.7173390000    -5.7914520000    -0.4119260000
    4      C      -1.5938850000    -4.8037860000     0.9218160000
    5      H      -2.1128190000    -6.8215180000     1.2219080000
    6      C       0.4643600000    -4.3786380000    -0.2666820000
    7      C      -0.6880530000    -3.8380320000     0.3982550000
    8      C       1.3691080000    -3.4130620000    -0.7896940000
    9      C      -0.9390020000    -2.4264730000     0.5423490000
   10      C       1.1304090000    -2.0593480000    -0.6525890000
   11      C       0.0000000000    -1.4782160000     0.0000000000
   12      H       1.8914460000    -1.3947830000    -1.0924530000
   13      C       1.9675190000    -6.1879870000    -1.1315950000
   14      C       2.6081180000    -3.7981640000    -1.5049120000
   15      N       2.8198130000    -5.1700030000    -1.6251740000
   16      C      -2.8361880000    -4.4249870000     1.6391290000
   17      C      -2.1895580000    -2.0366270000     1.2634770000
   18      N      -3.0422370000    -3.0491560000     1.7568980000
   19      O       2.3078450000    -7.3531310000    -1.3247870000
   20      O       3.4072130000    -2.9868540000    -1.9673540000
   21      O      -3.6258900000    -5.2489460000     2.0958920000
   22      O      -2.5478500000    -0.8788290000     1.4686850000
   23      C       4.0436740000    -5.5637990000    -2.3305640000
   24      H       4.0834070000    -6.6640850000    -2.3521780000
   25      H       4.9254900000    -5.1471010000    -1.8072630000
   26      H       4.0318770000    -5.1487850000    -3.3565680000
   27      C      -4.2472060000    -2.5874870000     2.4520800000
   28      H      -4.8031870000    -3.4833290000     2.7743020000
   29      H      -4.8605360000    -1.9649720000     1.7733010000
   30      H      -3.9666070000    -1.9629320000     3.3213510000
   31      H      -0.0605670000    -7.8223180000     0.0370430000
   32      C       0.0000000000     0.0000000000     0.0000000000
   33      S       0.2710910000     0.7454050000     1.5805300000
   34      C       0.8311980000     2.2843630000     0.9049110000
   35      C       0.3411750000     0.9378610000    -0.9854000000
   36      C       0.7926310000     2.1785160000    -0.4935280000
   37      H       0.2606010000     0.7164170000    -2.0599340000
   38      H       1.0938600000     3.0063470000    -1.1525930000
   39      H       1.1323300000     3.1119610000     1.5560250000
 ----------------------------------------------------------------

   10   -1570.6862872999      7.36e-07  Convergence criterion met
 Total energy in the final basis set =    -1570.6862872999
        RIMP2         total energy =     -1575.3121580366 a.u.

                    Orbital Energies (a.u.)
 --------------------------------------------------------------

 Alpha MOs
 -- Occupied --
-91.9907 -20.5588 -20.5565 -20.5564 -20.5550 -15.6315 -15.6308 -11.4004
-11.3967 -11.3926 -11.3909 -11.3168 -11.3050 -11.3029 -11.3009 -11.2986
-11.2981 -11.2920 -11.2864 -11.2862 -11.2841 -11.2805 -11.2783 -11.2648
-11.2644 -11.2584 -11.2505  -8.9900  -6.6708  -6.6703  -6.6697  -1.4252
 -1.4242  -1.4045  -1.4032  -1.2677  -1.2653  -1.2179  -1.1763  -1.1441
 -1.1177  -1.0632  -1.0501  -0.9931  -0.9899  -0.9844  -0.9592  -0.9481
 -0.8974  -0.8795  -0.8779  -0.8609  -0.7953  -0.7772  -0.7736  -0.7622
 -0.7346  -0.7187  -0.7057  -0.6949  -0.6819  -0.6742  -0.6665  -0.6623
 -0.6571  -0.6418  -0.6377  -0.6337  -0.6297  -0.6131  -0.5849  -0.5846
 -0.5783  -0.5732  -0.5669  -0.5644  -0.5642  -0.5554  -0.5534  -0.5485
 -0.5323  -0.5252  -0.5214  -0.5174  -0.4836  -0.4720  -0.4665  -0.4605
 -0.4591  -0.4533  -0.4284  -0.4183  -0.4090  -0.3618  -0.3515  -0.3364
 -0.3137

          Ground-State Mulliken Net Atomic Charges

     Atom                 Charge (a.u.)
  ----------------------------------------
      1 C                    -0.133233
      2 C                    -0.108447
      3 C                    -0.041171
      4 C                    -0.000574
      5 H                     0.188948
      6 C                     0.002660
      7 C                     0.073021
      8 C                     0.003483
      9 C                    -0.030966
     10 C                    -0.114477
     11 C                     0.052120
     12 H                     0.188600
     13 C                     0.360215
     14 C                     0.363736
     15 N                    -0.101583
     16 C                     0.359415
     17 C                     0.347707
     18 N                    -0.096709
     19 O                    -0.464682
     20 O                    -0.476293
     21 O                    -0.480340
     22 O                    -0.459772
     23 C                    -0.201130
     24 H                     0.141153
     25 H                     0.112526
     26 H                     0.112306
     27 C                    -0.196173
     28 H                     0.133634
     29 H                     0.113379
     30 H                     0.113230
     31 H                     0.214129
     32 C                    -0.004541
     33 S                     0.048328
     34 C                    -0.208203
     35 C                    -0.217412
     36 C                    -0.191240
     37 H                     0.194391
     38 H                     0.192456
     39 H                     0.211509
  ----------------------------------------
  Sum of atomic charges =     0.000000

                    Cartesian Multipole Moments
 -----------------------------------------------------------------
    Charge (ESU x 10^10)
                 0.0000
    Dipole Moment (Debye)
         X       0.7289      Y       0.9827      Z      -0.8688
       Tot       1.5006
    Quadrupole Moments (Debye-Ang)
        XX    -178.1507     XY       4.4204     YY    -166.0200
        XZ       9.0159     YZ       0.3732     ZZ    -162.4280

 Total job time:  262.14s(wall), 8307.75s(cpu)
        *  Thank you very much for using Q-Chem.  Have a nice day.  *
