 Q-Chem 5.4, Q-Chem, Inc., Pleasanton, CA (2021)
 Q-Chem 5.4.0 for Intel X86 EM64T Linux

User input:
--------------------------------------------------------------
$molecule
0 1
C	-0.166281	-6.741404	-0.195868
C	-1.005696	-6.155638	-1.196048
C	0.530233	-5.791452	0.634911
C	-1.184587	-4.803786	-1.409599
H	-1.570232	-6.821518	-1.868538
C	0.343266	-4.378638	0.410996
C	-0.511683	-3.838032	-0.608444
C	1.015440	-3.413062	1.211179
C	-0.697165	-2.426473	-0.830559
C	0.838968	-2.059348	0.999915
C	-0.000000	-1.478216	-0.000000
H	1.404302	-1.394783	1.673009
C	1.456059	-6.187987	1.741129
C	1.934944	-3.798164	2.307170
N	2.090139	-5.170003	2.494766
C	-2.106725	-4.424987	-2.508468
C	-1.624494	-2.036627	-1.936893
N	-2.258486	-3.049156	-2.690936
O	1.705414	-7.353131	2.042736
O	2.529122	-2.986854	3.013823
O	-2.693680	-5.248946	-3.206857
O	-1.888802	-0.878829	-2.254108
C	2.997334	-5.563799	3.577543
H	3.025519	-6.664085	3.612920
H	2.635109	-5.147101	4.536833
H	4.005702	-5.148785	3.387762
C	-3.152347	-2.587487	-3.756883
H	-3.566218	-3.483329	-4.248464
H	-2.590383	-1.964972	-4.478763
H	-3.959687	-1.962932	-3.329599
H	-0.046998	-7.822318	-0.053215
C	0.000000	0.000000	0.000000
S	0.271091	0.745405	1.580530
C	0.831198	2.284363	0.904911
C	0.341175	0.937861	-0.985400
C	0.792631	2.178516	-0.493528
H	0.260601	0.716417	-2.059934
H	1.093860	3.006347	-1.152593
H	1.132330	3.111961	1.556025
$end

$rem
JOBTYPE		SP
EXCHANGE	HF
CORRELATION	pRIMP2
BASIS		cc-pvtz
METHOD		rimp2
AUX_BASIS	rimp2-cc-pvtz
SOLVENT_METHOD	PCM
PURECART	11111
SYMMETRY	false
MEM_TOTAL	110000
SCF_CONVERGENCE = 6
THRESH=10
GUI = 2
$end

$solvent
dielectric 4.90
$end
--------------------------------------------------------------

             Standard Nuclear Orientation (Angstroms)
    I     Atom           X                Y                Z
 ----------------------------------------------------------------
    1      C      -0.1662810000    -6.7414040000    -0.1958680000
    2      C      -1.0056960000    -6.1556380000    -1.1960480000
    3      C       0.5302330000    -5.7914520000     0.6349110000
    4      C      -1.1845870000    -4.8037860000    -1.4095990000
    5      H      -1.5702320000    -6.8215180000    -1.8685380000
    6      C       0.3432660000    -4.3786380000     0.4109960000
    7      C      -0.5116830000    -3.8380320000    -0.6084440000
    8      C       1.0154400000    -3.4130620000     1.2111790000
    9      C      -0.6971650000    -2.4264730000    -0.8305590000
   10      C       0.8389680000    -2.0593480000     0.9999150000
   11      C       0.0000000000    -1.4782160000     0.0000000000
   12      H       1.4043020000    -1.3947830000     1.6730090000
   13      C       1.4560590000    -6.1879870000     1.7411290000
   14      C       1.9349440000    -3.7981640000     2.3071700000
   15      N       2.0901390000    -5.1700030000     2.4947660000
   16      C      -2.1067250000    -4.4249870000    -2.5084680000
   17      C      -1.6244940000    -2.0366270000    -1.9368930000
   18      N      -2.2584860000    -3.0491560000    -2.6909360000
   19      O       1.7054140000    -7.3531310000     2.0427360000
   20      O       2.5291220000    -2.9868540000     3.0138230000
   21      O      -2.6936800000    -5.2489460000    -3.2068570000
   22      O      -1.8888020000    -0.8788290000    -2.2541080000
   23      C       2.9973340000    -5.5637990000     3.5775430000
   24      H       3.0255190000    -6.6640850000     3.6129200000
   25      H       2.6351090000    -5.1471010000     4.5368330000
   26      H       4.0057020000    -5.1487850000     3.3877620000
   27      C      -3.1523470000    -2.5874870000    -3.7568830000
   28      H      -3.5662180000    -3.4833290000    -4.2484640000
   29      H      -2.5903830000    -1.9649720000    -4.4787630000
   30      H      -3.9596870000    -1.9629320000    -3.3295990000
   31      H      -0.0469980000    -7.8223180000    -0.0532150000
   32      C       0.0000000000     0.0000000000     0.0000000000
   33      S       0.2710910000     0.7454050000     1.5805300000
   34      C       0.8311980000     2.2843630000     0.9049110000
   35      C       0.3411750000     0.9378610000    -0.9854000000
   36      C       0.7926310000     2.1785160000    -0.4935280000
   37      H       0.2606010000     0.7164170000    -2.0599340000
   38      H       1.0938600000     3.0063470000    -1.1525930000
   39      H       1.1323300000     3.1119610000     1.5560250000
 ----------------------------------------------------------------

   10   -1570.6842497956      7.23e-07  Convergence criterion met
 Total energy in the final basis set =    -1570.6842497956
        RIMP2         total energy =     -1575.3115485200 a.u.

                    Orbital Energies (a.u.)
 --------------------------------------------------------------

 Alpha MOs
 -- Occupied --
-91.9928 -20.5585 -20.5562 -20.5553 -20.5541 -15.6311 -15.6301 -11.3999
-11.3956 -11.3918 -11.3905 -11.3178 -11.3023 -11.3013 -11.2999 -11.2966
-11.2961 -11.2917 -11.2888 -11.2863 -11.2846 -11.2797 -11.2760 -11.2645
-11.2645 -11.2610 -11.2516  -8.9926  -6.6734  -6.6729  -6.6723  -1.4248
 -1.4234  -1.4041  -1.4025  -1.2672  -1.2647  -1.2172  -1.1786  -1.1438
 -1.1166  -1.0636  -1.0494  -0.9926  -0.9907  -0.9870  -0.9587  -0.9474
 -0.8970  -0.8788  -0.8779  -0.8603  -0.7964  -0.7787  -0.7727  -0.7616
 -0.7367  -0.7171  -0.7055  -0.6950  -0.6805  -0.6734  -0.6661  -0.6619
 -0.6562  -0.6418  -0.6368  -0.6327  -0.6289  -0.6127  -0.5872  -0.5842
 -0.5796  -0.5736  -0.5664  -0.5635  -0.5612  -0.5554  -0.5525  -0.5480
 -0.5402  -0.5265  -0.5218  -0.5120  -0.4833  -0.4690  -0.4678  -0.4635
 -0.4598  -0.4530  -0.4281  -0.4182  -0.4089  -0.3699  -0.3539  -0.3362
 -0.3061

          Ground-State Mulliken Net Atomic Charges

     Atom                 Charge (a.u.)
  ----------------------------------------
      1 C                    -0.138270
      2 C                    -0.108281
      3 C                    -0.037056
      4 C                    -0.004150
      5 H                     0.188560
      6 C                     0.000706
      7 C                     0.072484
      8 C                     0.020211
      9 C                    -0.043392
     10 C                    -0.150613
     11 C                     0.064599
     12 H                     0.184772
     13 C                     0.359498
     14 C                     0.363331
     15 N                    -0.101543
     16 C                     0.359093
     17 C                     0.350593
     18 N                    -0.095566
     19 O                    -0.464611
     20 O                    -0.476074
     21 O                    -0.481925
     22 O                    -0.465649
     23 C                    -0.201140
     24 H                     0.141040
     25 H                     0.112441
     26 H                     0.112359
     27 C                    -0.196694
     28 H                     0.133762
     29 H                     0.112014
     30 H                     0.113333
     31 H                     0.213456
     32 C                    -0.028612
     33 S                     0.014873
     34 C                    -0.178581
     35 C                    -0.121808
     36 C                    -0.225423
     37 H                     0.195740
     38 H                     0.191974
     39 H                     0.214544
  ----------------------------------------
  Sum of atomic charges =     0.000000

                    Cartesian Multipole Moments
 -----------------------------------------------------------------
    Charge (ESU x 10^10)
                 0.0000
    Dipole Moment (Debye)
         X       0.9939      Y       1.6181      Z      -0.7876
       Tot       2.0558
    Quadrupole Moments (Debye-Ang)
        XX    -171.2923     XY       3.9334     YY    -167.6431
        XZ     -10.0161     YZ       1.0226     ZZ    -169.5524

 Total job time:  267.60s(wall), 8250.58s(cpu)
        *  Thank you very much for using Q-Chem.  Have a nice day.  *
