 Q-Chem 5.4, Q-Chem, Inc., Pleasanton, CA (2021)
 Q-Chem 5.4.0 for Intel X86 EM64T Linux

User input:
--------------------------------------------------------------
$molecule
0 1
C	-0.164018	-6.741404	0.197767
C	-1.003240	-6.155638	1.198109
C	0.533192	-5.791452	-0.632428
C	-1.182482	-4.803786	1.411364
H	-1.567483	-6.821518	1.870845
C	0.345145	-4.378638	-0.409419
C	-0.510347	-3.838032	0.609565
C	1.016449	-3.413062	-1.210332
C	-0.696879	-2.426473	0.830799
C	0.839039	-2.059348	-0.999856
C	-0.000000	-1.478216	-0.000000
H	1.403737	-1.394783	-1.673483
C	1.461835	-6.187987	-1.736282
C	1.936119	-3.798164	-2.306183
N	2.093916	-5.170003	-2.491597
C	-2.104529	-4.424987	2.510310
C	-1.625377	-2.036627	1.936153
N	-2.257873	-3.049156	2.691451
O	1.715561	-7.353131	-2.034222
O	2.528858	-2.986854	-3.014044
O	-2.690385	-5.248946	3.209622
O	-1.891876	-0.878829	2.251529
C	3.002711	-5.563799	-3.573032
H	3.032655	-6.664085	-3.606932
H	4.010326	-5.147101	-3.382888
H	2.640711	-5.148785	-4.533125
C	-3.152408	-2.587487	3.756832
H	-3.564653	-3.483329	4.249778
H	-3.960905	-1.964972	3.328759
H	-2.591422	-1.962932	4.477709
H	-0.044245	-7.822318	0.055524
C	0.000000	0.000000	0.000000
S	0.335026	0.718942	1.580530
C	1.027130	2.203226	0.904911
C	0.421617	0.904557	-0.985400
C	0.979485	2.101144	-0.493528
H	0.322049	0.690978	-2.059934
H	1.351718	2.899571	-1.152593
H	1.399246	3.001430	1.556025
$end

$rem
JOBTYPE		SP
EXCHANGE	HF
CORRELATION	pRIMP2
BASIS		cc-pvtz
METHOD		rimp2
AUX_BASIS	rimp2-cc-pvtz
SOLVENT_METHOD	PCM
PURECART	11111
SYMMETRY	false
MEM_TOTAL	110000
SCF_CONVERGENCE = 6
THRESH=10
GUI = 2
$end

$solvent
dielectric 4.90
$end
--------------------------------------------------------------

             Standard Nuclear Orientation (Angstroms)
    I     Atom           X                Y                Z
 ----------------------------------------------------------------
    1      C      -0.1640180000    -6.7414040000     0.1977670000
    2      C      -1.0032400000    -6.1556380000     1.1981090000
    3      C       0.5331920000    -5.7914520000    -0.6324280000
    4      C      -1.1824820000    -4.8037860000     1.4113640000
    5      H      -1.5674830000    -6.8215180000     1.8708450000
    6      C       0.3451450000    -4.3786380000    -0.4094190000
    7      C      -0.5103470000    -3.8380320000     0.6095650000
    8      C       1.0164490000    -3.4130620000    -1.2103320000
    9      C      -0.6968790000    -2.4264730000     0.8307990000
   10      C       0.8390390000    -2.0593480000    -0.9998560000
   11      C       0.0000000000    -1.4782160000     0.0000000000
   12      H       1.4037370000    -1.3947830000    -1.6734830000
   13      C       1.4618350000    -6.1879870000    -1.7362820000
   14      C       1.9361190000    -3.7981640000    -2.3061830000
   15      N       2.0939160000    -5.1700030000    -2.4915970000
   16      C      -2.1045290000    -4.4249870000     2.5103100000
   17      C      -1.6253770000    -2.0366270000     1.9361530000
   18      N      -2.2578730000    -3.0491560000     2.6914510000
   19      O       1.7155610000    -7.3531310000    -2.0342220000
   20      O       2.5288580000    -2.9868540000    -3.0140440000
   21      O      -2.6903850000    -5.2489460000     3.2096220000
   22      O      -1.8918760000    -0.8788290000     2.2515290000
   23      C       3.0027110000    -5.5637990000    -3.5730320000
   24      H       3.0326550000    -6.6640850000    -3.6069320000
   25      H       4.0103260000    -5.1471010000    -3.3828880000
   26      H       2.6407110000    -5.1487850000    -4.5331250000
   27      C      -3.1524080000    -2.5874870000     3.7568320000
   28      H      -3.5646530000    -3.4833290000     4.2497780000
   29      H      -3.9609050000    -1.9649720000     3.3287590000
   30      H      -2.5914220000    -1.9629320000     4.4777090000
   31      H      -0.0442450000    -7.8223180000     0.0555240000
   32      C       0.0000000000     0.0000000000     0.0000000000
   33      S       0.3350260000     0.7189420000     1.5805300000
   34      C       1.0271300000     2.2032260000     0.9049110000
   35      C       0.4216170000     0.9045570000    -0.9854000000
   36      C       0.9794850000     2.1011440000    -0.4935280000
   37      H       0.3220490000     0.6909780000    -2.0599340000
   38      H       1.3517180000     2.8995710000    -1.1525930000
   39      H       1.3992460000     3.0014300000     1.5560250000
 ----------------------------------------------------------------

   10   -1570.6806681118      7.84e-07  Convergence criterion met
 Total energy in the final basis set =    -1570.6806681118
        RIMP2         total energy =     -1575.3101178417 a.u.

                    Orbital Energies (a.u.)
 --------------------------------------------------------------

 Alpha MOs
 -- Occupied --
-91.9889 -20.5586 -20.5566 -20.5551 -20.5538 -15.6314 -15.6300 -11.4000
-11.3957 -11.3915 -11.3909 -11.3181 -11.3023 -11.3008 -11.2998 -11.2962
-11.2956 -11.2893 -11.2870 -11.2864 -11.2842 -11.2795 -11.2772 -11.2648
-11.2641 -11.2627 -11.2502  -8.9882  -6.6689  -6.6683  -6.6677  -1.4250
 -1.4240  -1.4044  -1.4030  -1.2674  -1.2648  -1.2169  -1.1772  -1.1434
 -1.1166  -1.0626  -1.0492  -0.9926  -0.9898  -0.9857  -0.9587  -0.9474
 -0.8966  -0.8789  -0.8771  -0.8606  -0.7944  -0.7767  -0.7739  -0.7636
 -0.7329  -0.7177  -0.7055  -0.6941  -0.6830  -0.6745  -0.6662  -0.6620
 -0.6564  -0.6408  -0.6369  -0.6331  -0.6281  -0.6133  -0.5841  -0.5840
 -0.5798  -0.5725  -0.5669  -0.5666  -0.5640  -0.5553  -0.5539  -0.5483
 -0.5316  -0.5238  -0.5220  -0.5178  -0.4844  -0.4727  -0.4643  -0.4598
 -0.4583  -0.4489  -0.4278  -0.4179  -0.4087  -0.3693  -0.3507  -0.3363
 -0.3047

          Ground-State Mulliken Net Atomic Charges

     Atom                 Charge (a.u.)
  ----------------------------------------
      1 C                    -0.140637
      2 C                    -0.108609
      3 C                    -0.035085
      4 C                    -0.005112
      5 H                     0.188523
      6 C                     0.000161
      7 C                     0.083028
      8 C                     0.005348
      9 C                    -0.062883
     10 C                    -0.138553
     11 C                     0.084809
     12 H                     0.184999
     13 C                     0.359258
     14 C                     0.364430
     15 N                    -0.101535
     16 C                     0.358428
     17 C                     0.357969
     18 N                    -0.095581
     19 O                    -0.464414
     20 O                    -0.477044
     21 O                    -0.482091
     22 O                    -0.468027
     23 C                    -0.201254
     24 H                     0.141211
     25 H                     0.112401
     26 H                     0.112192
     27 C                    -0.196789
     28 H                     0.133710
     29 H                     0.113148
     30 H                     0.112875
     31 H                     0.213232
     32 C                    -0.012350
     33 S                     0.075325
     34 C                    -0.204194
     35 C                    -0.210985
     36 C                    -0.194008
     37 H                     0.193608
     38 H                     0.192107
     39 H                     0.212390
  ----------------------------------------
  Sum of atomic charges =     0.000000

                    Cartesian Multipole Moments
 -----------------------------------------------------------------
    Charge (ESU x 10^10)
                 0.0000
    Dipole Moment (Debye)
         X       0.9916      Y       1.5572      Z      -0.8299
       Tot       2.0241
    Quadrupole Moments (Debye-Ang)
        XX    -170.6594     XY       4.5966     YY    -169.1236
        XZ      10.4817     YZ       0.6711     ZZ    -169.1792

 Total job time:  267.08s(wall), 7850.01s(cpu)
        *  Thank you very much for using Q-Chem.  Have a nice day.  *
