 Q-Chem 5.4, Q-Chem, Inc., Pleasanton, CA (2021)
 Q-Chem 5.4.0 for Intel X86 EM64T Linux

User input:
--------------------------------------------------------------
$molecule
0 1
C	0.086486	-6.741404	-0.241938
C	0.532960	-6.155638	-1.468983
C	-0.284733	-5.791452	0.776651
C	0.628455	-4.803786	-1.730681
H	0.833086	-6.821518	-2.294130
C	-0.184300	-4.378638	0.502775
C	0.271086	-3.838032	-0.747353
C	-0.541191	-3.413062	1.484986
C	0.370703	-2.426473	-1.019042
C	-0.446468	-2.059348	1.226525
C	-0.000000	-1.478216	-0.000000
H	-0.746717	-1.394783	2.052666
C	-0.779832	-6.187987	2.131549
C	-1.030596	-3.798164	2.829295
N	-1.115461	-5.170003	3.057496
C	1.119034	-4.424987	-3.078712
C	0.865151	-2.036627	-2.375300
N	1.201176	-3.049156	-3.301374
O	-0.916355	-7.353131	2.498300
O	-1.345486	-2.986854	3.697195
O	1.430379	-5.248946	-3.936224
O	1.007714	-0.878829	-2.762805
C	-1.599576	-5.563799	4.384539
H	-1.616121	-6.664085	4.426636
H	-2.611458	-5.147101	4.550487
H	-0.931037	-5.148785	5.162921
C	1.677382	-2.587487	-4.608454
H	1.896168	-3.483329	-5.212668
H	2.583531	-1.964972	-4.482719
H	0.903674	-1.962932	-5.093988
H	0.022586	-7.822318	-0.067309
C	0.000000	0.000000	0.000000
S	-0.000201	0.793171	1.580530
C	-0.000228	2.430885	0.904911
C	-0.000168	0.997990	-0.985400
C	-0.000267	2.318231	-0.493528
H	-0.000145	0.762343	-2.059934
H	-0.000339	3.199164	-1.152593
H	-0.000311	3.311566	1.556025
$end

$rem
JOBTYPE		SP
EXCHANGE	HF
CORRELATION	pRIMP2
BASIS		cc-pvtz
METHOD		rimp2
AUX_BASIS	rimp2-cc-pvtz
SOLVENT_METHOD	PCM
PURECART	11111
SYMMETRY	false
MEM_TOTAL	110000
SCF_CONVERGENCE = 6
THRESH=10
GUI = 2
$end

$solvent
dielectric 4.90
$end
--------------------------------------------------------------

             Standard Nuclear Orientation (Angstroms)
    I     Atom           X                Y                Z
 ----------------------------------------------------------------
    1      C       0.0864860000    -6.7414040000    -0.2419380000
    2      C       0.5329600000    -6.1556380000    -1.4689830000
    3      C      -0.2847330000    -5.7914520000     0.7766510000
    4      C       0.6284550000    -4.8037860000    -1.7306810000
    5      H       0.8330860000    -6.8215180000    -2.2941300000
    6      C      -0.1843000000    -4.3786380000     0.5027750000
    7      C       0.2710860000    -3.8380320000    -0.7473530000
    8      C      -0.5411910000    -3.4130620000     1.4849860000
    9      C       0.3707030000    -2.4264730000    -1.0190420000
   10      C      -0.4464680000    -2.0593480000     1.2265250000
   11      C       0.0000000000    -1.4782160000     0.0000000000
   12      H      -0.7467170000    -1.3947830000     2.0526660000
   13      C      -0.7798320000    -6.1879870000     2.1315490000
   14      C      -1.0305960000    -3.7981640000     2.8292950000
   15      N      -1.1154610000    -5.1700030000     3.0574960000
   16      C       1.1190340000    -4.4249870000    -3.0787120000
   17      C       0.8651510000    -2.0366270000    -2.3753000000
   18      N       1.2011760000    -3.0491560000    -3.3013740000
   19      O      -0.9163550000    -7.3531310000     2.4983000000
   20      O      -1.3454860000    -2.9868540000     3.6971950000
   21      O       1.4303790000    -5.2489460000    -3.9362240000
   22      O       1.0077140000    -0.8788290000    -2.7628050000
   23      C      -1.5995760000    -5.5637990000     4.3845390000
   24      H      -1.6161210000    -6.6640850000     4.4266360000
   25      H      -2.6114580000    -5.1471010000     4.5504870000
   26      H      -0.9310370000    -5.1487850000     5.1629210000
   27      C       1.6773820000    -2.5874870000    -4.6084540000
   28      H       1.8961680000    -3.4833290000    -5.2126680000
   29      H       2.5835310000    -1.9649720000    -4.4827190000
   30      H       0.9036740000    -1.9629320000    -5.0939880000
   31      H       0.0225860000    -7.8223180000    -0.0673090000
   32      C       0.0000000000     0.0000000000     0.0000000000
   33      S      -0.0002010000     0.7931710000     1.5805300000
   34      C      -0.0002280000     2.4308850000     0.9049110000
   35      C      -0.0001680000     0.9979900000    -0.9854000000
   36      C      -0.0002670000     2.3182310000    -0.4935280000
   37      H      -0.0001450000     0.7623430000    -2.0599340000
   38      H      -0.0003390000     3.1991640000    -1.1525930000
   39      H      -0.0003110000     3.3115660000     1.5560250000
 ----------------------------------------------------------------

   10   -1570.6888028164      7.58e-07  Convergence criterion met
 Total energy in the final basis set =    -1570.6888028164
        RIMP2         total energy =     -1575.3158495984 a.u.

                    Orbital Energies (a.u.)
 --------------------------------------------------------------

 Alpha MOs
 -- Occupied --
-91.9937 -20.5586 -20.5565 -20.5552 -20.5538 -15.6312 -15.6305 -11.3999
-11.3965 -11.3916 -11.3908 -11.3193 -11.3023 -11.3006 -11.2996 -11.2960
-11.2950 -11.2918 -11.2893 -11.2874 -11.2839 -11.2793 -11.2785 -11.2648
-11.2644 -11.2553 -11.2505  -8.9935  -6.6743  -6.6738  -6.6731  -1.4249
 -1.4246  -1.4042  -1.4035  -1.2675  -1.2652  -1.2171  -1.1772  -1.1443
 -1.1166  -1.0638  -1.0496  -0.9926  -0.9903  -0.9865  -0.9588  -0.9476
 -0.8972  -0.8793  -0.8786  -0.8614  -0.7966  -0.7794  -0.7729  -0.7620
 -0.7362  -0.7204  -0.7040  -0.6943  -0.6819  -0.6738  -0.6664  -0.6622
 -0.6562  -0.6417  -0.6370  -0.6336  -0.6284  -0.6129  -0.5900  -0.5839
 -0.5790  -0.5724  -0.5656  -0.5629  -0.5619  -0.5559  -0.5532  -0.5474
 -0.5367  -0.5258  -0.5236  -0.5169  -0.4826  -0.4691  -0.4662  -0.4632
 -0.4592  -0.4521  -0.4289  -0.4188  -0.4097  -0.3757  -0.3546  -0.3368
 -0.3008

          Ground-State Mulliken Net Atomic Charges

     Atom                 Charge (a.u.)
  ----------------------------------------
      1 C                    -0.142280
      2 C                    -0.109952
      3 C                    -0.033656
      4 C                    -0.004706
      5 H                     0.188304
      6 C                     0.000298
      7 C                     0.071612
      8 C                     0.040831
      9 C                    -0.064873
     10 C                    -0.179721
     11 C                     0.091651
     12 H                     0.167636
     13 C                     0.359156
     14 C                     0.367048
     15 N                    -0.101715
     16 C                     0.359875
     17 C                     0.375748
     18 N                    -0.092840
     19 O                    -0.464275
     20 O                    -0.476423
     21 O                    -0.482771
     22 O                    -0.476604
     23 C                    -0.201052
     24 H                     0.141050
     25 H                     0.112444
     26 H                     0.112629
     27 C                    -0.197445
     28 H                     0.134302
     29 H                     0.112959
     30 H                     0.112265
     31 H                     0.213014
     32 C                    -0.039937
     33 S                     0.017851
     34 C                    -0.187676
     35 C                    -0.110068
     36 C                    -0.232927
     37 H                     0.211590
     38 H                     0.191183
     39 H                     0.217475
  ----------------------------------------
  Sum of atomic charges =     0.000000

                    Cartesian Multipole Moments
 -----------------------------------------------------------------
    Charge (ESU x 10^10)
                -0.0000
    Dipole Moment (Debye)
         X      -0.0655      Y       2.0053      Z      -0.8337
       Tot       2.1727
    Quadrupole Moments (Debye-Ang)
        XX    -166.4679     XY       0.0391     YY    -167.0272
        XZ       6.6836     YZ       0.6882     ZZ    -175.7079

 Total job time:  265.90s(wall), 7888.06s(cpu)
        *  Thank you very much for using Q-Chem.  Have a nice day.  *
