 Q-Chem 5.4, Q-Chem, Inc., Pleasanton, CA (2021)
 Q-Chem 5.4.0 for Intel X86 EM64T Linux

User input:
--------------------------------------------------------------
$molecule
0 1
C	-0.043160	-6.741404	0.253280
C	-0.269777	-6.155638	1.539213
C	0.145543	-5.791452	-0.814295
C	-0.318377	-4.803786	1.813519
H	-0.422058	-6.821518	2.403941
C	0.094194	-4.378638	-0.527140
C	-0.137191	-3.838032	0.783072
C	0.275104	-3.413062	-1.556403
C	-0.188116	-2.426473	1.067932
C	0.226701	-2.059348	-1.285420
C	-0.000000	-1.478216	-0.000000
H	0.378931	-1.394783	-2.151147
C	0.397845	-6.187987	-2.234582
C	0.523637	-3.798164	-2.965273
N	0.567586	-5.170003	-3.204744
C	-0.567421	-4.424987	3.226257
C	-0.439541	-2.036627	2.489446
N	-0.609650	-3.049156	3.459801
O	0.468608	-7.353131	-2.619468
O	0.683034	-2.986854	-3.874668
O	-0.725131	-5.248946	4.124806
O	-0.512648	-0.878829	2.895819
C	0.813908	-5.563799	-4.595691
H	0.822891	-6.664085	-4.640022
H	1.781600	-5.147101	-4.934830
H	0.020360	-5.148785	-5.246157
C	-0.851649	-2.587487	4.829716
H	-0.962191	-3.483329	5.462742
H	-1.765865	-1.964972	4.863242
H	-0.005383	-1.962932	5.173521
H	-0.010555	-7.822318	0.070208
C	0.000000	0.000000	0.000000
S	0.686805	0.396760	1.580530
C	2.105095	1.215640	0.904911
C	0.864201	0.499140	-0.985400
C	2.007514	1.159347	-0.493528
H	0.660136	0.381296	-2.059934
H	2.770388	1.599875	-1.152593
H	2.867745	1.656053	1.556025
$end

$rem
JOBTYPE		SP
EXCHANGE	HF
CORRELATION	pRIMP2
BASIS		cc-pvtz
METHOD		rimp2
AUX_BASIS	rimp2-cc-pvtz
SOLVENT_METHOD	PCM
PURECART	11111
SYMMETRY	false
MEM_TOTAL	110000
SCF_CONVERGENCE = 6
THRESH=10
GUI = 2
$end

$solvent
dielectric 4.90
$end
--------------------------------------------------------------

             Standard Nuclear Orientation (Angstroms)
    I     Atom           X                Y                Z
 ----------------------------------------------------------------
    1      C      -0.0431600000    -6.7414040000     0.2532800000
    2      C      -0.2697770000    -6.1556380000     1.5392130000
    3      C       0.1455430000    -5.7914520000    -0.8142950000
    4      C      -0.3183770000    -4.8037860000     1.8135190000
    5      H      -0.4220580000    -6.8215180000     2.4039410000
    6      C       0.0941940000    -4.3786380000    -0.5271400000
    7      C      -0.1371910000    -3.8380320000     0.7830720000
    8      C       0.2751040000    -3.4130620000    -1.5564030000
    9      C      -0.1881160000    -2.4264730000     1.0679320000
   10      C       0.2267010000    -2.0593480000    -1.2854200000
   11      C       0.0000000000    -1.4782160000     0.0000000000
   12      H       0.3789310000    -1.3947830000    -2.1511470000
   13      C       0.3978450000    -6.1879870000    -2.2345820000
   14      C       0.5236370000    -3.7981640000    -2.9652730000
   15      N       0.5675860000    -5.1700030000    -3.2047440000
   16      C      -0.5674210000    -4.4249870000     3.2262570000
   17      C      -0.4395410000    -2.0366270000     2.4894460000
   18      N      -0.6096500000    -3.0491560000     3.4598010000
   19      O       0.4686080000    -7.3531310000    -2.6194680000
   20      O       0.6830340000    -2.9868540000    -3.8746680000
   21      O      -0.7251310000    -5.2489460000     4.1248060000
   22      O      -0.5126480000    -0.8788290000     2.8958190000
   23      C       0.8139080000    -5.5637990000    -4.5956910000
   24      H       0.8228910000    -6.6640850000    -4.6400220000
   25      H       1.7816000000    -5.1471010000    -4.9348300000
   26      H       0.0203600000    -5.1487850000    -5.2461570000
   27      C      -0.8516490000    -2.5874870000     4.8297160000
   28      H      -0.9621910000    -3.4833290000     5.4627420000
   29      H      -1.7658650000    -1.9649720000     4.8632420000
   30      H      -0.0053830000    -1.9629320000     5.1735210000
   31      H      -0.0105550000    -7.8223180000     0.0702080000
   32      C       0.0000000000     0.0000000000     0.0000000000
   33      S       0.6868050000     0.3967600000     1.5805300000
   34      C       2.1050950000     1.2156400000     0.9049110000
   35      C       0.8642010000     0.4991400000    -0.9854000000
   36      C       2.0075140000     1.1593470000    -0.4935280000
   37      H       0.6601360000     0.3812960000    -2.0599340000
   38      H       2.7703880000     1.5998750000    -1.1525930000
   39      H       2.8677450000     1.6560530000     1.5560250000
 ----------------------------------------------------------------

   11   -1570.5900570197      6.03e-07  Convergence criterion met
 Total energy in the final basis set =    -1570.5900570197
        RIMP2         total energy =     -1575.2391112404 a.u.

                    Orbital Energies (a.u.)
 --------------------------------------------------------------

 Alpha MOs
 -- Occupied --
-91.9826 -20.5577 -20.5568 -20.5560 -20.5501 -15.6304 -15.6288 -11.3985
-11.3945 -11.3899 -11.3881 -11.3226 -11.2994 -11.2967 -11.2963 -11.2877
-11.2866 -11.2847 -11.2839 -11.2828 -11.2772 -11.2752 -11.2716 -11.2703
-11.2642 -11.2638 -11.2505  -8.9828  -6.6631  -6.6615  -6.6609  -1.4310
 -1.4241  -1.4045  -1.4036  -1.2668  -1.2649  -1.2164  -1.1870  -1.1391
 -1.1120  -1.0607  -1.0459  -0.9951  -0.9924  -0.9900  -0.9572  -0.9446
 -0.8943  -0.8771  -0.8725  -0.8601  -0.7911  -0.7790  -0.7763  -0.7668
 -0.7319  -0.7207  -0.7042  -0.6916  -0.6888  -0.6744  -0.6662  -0.6620
 -0.6551  -0.6391  -0.6358  -0.6340  -0.6238  -0.6135  -0.5923  -0.5858
 -0.5797  -0.5778  -0.5713  -0.5640  -0.5636  -0.5556  -0.5544  -0.5481
 -0.5343  -0.5292  -0.5152  -0.5091  -0.4895  -0.4726  -0.4606  -0.4558
 -0.4515  -0.4318  -0.4201  -0.4078  -0.3944  -0.3755  -0.3478  -0.3333
 -0.2965

          Ground-State Mulliken Net Atomic Charges

     Atom                 Charge (a.u.)
  ----------------------------------------
      1 C                    -0.165463
      2 C                    -0.110017
      3 C                    -0.018056
      4 C                    -0.007185
      5 H                     0.186351
      6 C                    -0.021644
      7 C                     0.075330
      8 C                     0.018689
      9 C                    -0.117548
     10 C                    -0.142093
     11 C                     0.090023
     12 H                     0.173597
     13 C                     0.358857
     14 C                     0.362917
     15 N                    -0.101296
     16 C                     0.355081
     17 C                     0.385935
     18 N                    -0.089896
     19 O                    -0.464190
     20 O                    -0.480247
     21 O                    -0.487624
     22 O                    -0.465065
     23 C                    -0.201559
     24 H                     0.141179
     25 H                     0.111683
     26 H                     0.112038
     27 C                    -0.198037
     28 H                     0.134272
     29 H                     0.112256
     30 H                     0.112173
     31 H                     0.209777
     32 C                    -0.114969
     33 S                     0.114606
     34 C                    -0.148719
     35 C                    -0.067638
     36 C                    -0.251227
     37 H                     0.198213
     38 H                     0.188173
     39 H                     0.211320
  ----------------------------------------
  Sum of atomic charges =     0.000000

                    Cartesian Multipole Moments
 -----------------------------------------------------------------
    Charge (ESU x 10^10)
                 0.0000
    Dipole Moment (Debye)
         X       2.7727      Y       2.6518      Z      -0.6492
       Tot       3.8912
    Quadrupole Moments (Debye-Ang)
        XX    -155.6266     XY       5.0889     YY    -185.0490
        XZ       4.9718     YZ       1.5298     ZZ    -176.3321

 Total job time:  281.16s(wall), 8520.87s(cpu)
        *  Thank you very much for using Q-Chem.  Have a nice day.  *
