 Q-Chem 5.4, Q-Chem, Inc., Pleasanton, CA (2021)
 Q-Chem 5.4.0 for Intel X86 EM64T Linux

User input:
--------------------------------------------------------------
$molecule
0 1
C	0.086486	-6.741404	-0.241938
C	0.532960	-6.155638	-1.468983
C	-0.284733	-5.791452	0.776651
C	0.628455	-4.803786	-1.730681
H	0.833086	-6.821518	-2.294130
C	-0.184300	-4.378638	0.502775
C	0.271086	-3.838032	-0.747353
C	-0.541191	-3.413062	1.484986
C	0.370703	-2.426473	-1.019042
C	-0.446468	-2.059348	1.226525
C	-0.000000	-1.478216	-0.000000
H	-0.746717	-1.394783	2.052666
C	-0.779832	-6.187987	2.131549
C	-1.030596	-3.798164	2.829295
N	-1.115461	-5.170003	3.057496
C	1.119034	-4.424987	-3.078712
C	0.865151	-2.036627	-2.375300
N	1.201176	-3.049156	-3.301374
O	-0.916355	-7.353131	2.498300
O	-1.345486	-2.986854	3.697195
O	1.430379	-5.248946	-3.936224
O	1.007714	-0.878829	-2.762805
C	-1.599576	-5.563799	4.384539
H	-1.616121	-6.664085	4.426636
H	-2.611458	-5.147101	4.550487
H	-0.931037	-5.148785	5.162921
C	1.677382	-2.587487	-4.608454
H	1.896168	-3.483329	-5.212668
H	2.583531	-1.964972	-4.482719
H	0.903674	-1.962932	-5.093988
H	0.022586	-7.822318	-0.067309
C	0.000000	0.000000	0.000000
S	0.607475	0.509994	1.580530
C	1.862020	1.562717	0.904911
C	0.764397	0.641624	-0.985400
C	1.775697	1.490335	-0.493528
H	0.583895	0.490135	-2.059934
H	2.450484	2.056643	-1.152593
H	2.536607	2.128872	1.556025
$end

$rem
JOBTYPE		SP
EXCHANGE	HF
CORRELATION	pRIMP2
BASIS		cc-pvtz
METHOD		rimp2
AUX_BASIS	rimp2-cc-pvtz
SOLVENT_METHOD	PCM
PURECART	11111
SYMMETRY	false
MEM_TOTAL	110000
SCF_CONVERGENCE = 6
THRESH=10
GUI = 2
$end

$solvent
dielectric 4.90
$end
--------------------------------------------------------------

             Standard Nuclear Orientation (Angstroms)
    I     Atom           X                Y                Z
 ----------------------------------------------------------------
    1      C       0.0864860000    -6.7414040000    -0.2419380000
    2      C       0.5329600000    -6.1556380000    -1.4689830000
    3      C      -0.2847330000    -5.7914520000     0.7766510000
    4      C       0.6284550000    -4.8037860000    -1.7306810000
    5      H       0.8330860000    -6.8215180000    -2.2941300000
    6      C      -0.1843000000    -4.3786380000     0.5027750000
    7      C       0.2710860000    -3.8380320000    -0.7473530000
    8      C      -0.5411910000    -3.4130620000     1.4849860000
    9      C       0.3707030000    -2.4264730000    -1.0190420000
   10      C      -0.4464680000    -2.0593480000     1.2265250000
   11      C       0.0000000000    -1.4782160000     0.0000000000
   12      H      -0.7467170000    -1.3947830000     2.0526660000
   13      C      -0.7798320000    -6.1879870000     2.1315490000
   14      C      -1.0305960000    -3.7981640000     2.8292950000
   15      N      -1.1154610000    -5.1700030000     3.0574960000
   16      C       1.1190340000    -4.4249870000    -3.0787120000
   17      C       0.8651510000    -2.0366270000    -2.3753000000
   18      N       1.2011760000    -3.0491560000    -3.3013740000
   19      O      -0.9163550000    -7.3531310000     2.4983000000
   20      O      -1.3454860000    -2.9868540000     3.6971950000
   21      O       1.4303790000    -5.2489460000    -3.9362240000
   22      O       1.0077140000    -0.8788290000    -2.7628050000
   23      C      -1.5995760000    -5.5637990000     4.3845390000
   24      H      -1.6161210000    -6.6640850000     4.4266360000
   25      H      -2.6114580000    -5.1471010000     4.5504870000
   26      H      -0.9310370000    -5.1487850000     5.1629210000
   27      C       1.6773820000    -2.5874870000    -4.6084540000
   28      H       1.8961680000    -3.4833290000    -5.2126680000
   29      H       2.5835310000    -1.9649720000    -4.4827190000
   30      H       0.9036740000    -1.9629320000    -5.0939880000
   31      H       0.0225860000    -7.8223180000    -0.0673090000
   32      C       0.0000000000     0.0000000000     0.0000000000
   33      S       0.6074750000     0.5099940000     1.5805300000
   34      C       1.8620200000     1.5627170000     0.9049110000
   35      C       0.7643970000     0.6416240000    -0.9854000000
   36      C       1.7756970000     1.4903350000    -0.4935280000
   37      H       0.5838950000     0.4901350000    -2.0599340000
   38      H       2.4504840000     2.0566430000    -1.1525930000
   39      H       2.5366070000     2.1288720000     1.5560250000
 ----------------------------------------------------------------

   11   -1570.6202028511      5.74e-07  Convergence criterion met
 Total energy in the final basis set =    -1570.6202028511
        RIMP2         total energy =     -1575.2564645182 a.u.

                    Orbital Energies (a.u.)
 --------------------------------------------------------------

 Alpha MOs
 -- Occupied --
-91.9911 -20.5574 -20.5550 -20.5521 -20.5517 -15.6302 -15.6298 -11.3983
-11.3980 -11.3895 -11.3891 -11.3202 -11.3073 -11.2996 -11.2969 -11.2892
-11.2879 -11.2872 -11.2842 -11.2785 -11.2756 -11.2739 -11.2698 -11.2650
-11.2636 -11.2593 -11.2495  -8.9916  -6.6723  -6.6716  -6.6711  -1.4287
 -1.4235  -1.4047  -1.4029  -1.2672  -1.2647  -1.2150  -1.1836  -1.1409
 -1.1126  -1.0613  -1.0462  -0.9948  -0.9908  -0.9897  -0.9576  -0.9457
 -0.8960  -0.8773  -0.8739  -0.8604  -0.7948  -0.7776  -0.7742  -0.7660
 -0.7360  -0.7325  -0.7012  -0.6918  -0.6802  -0.6723  -0.6660  -0.6616
 -0.6543  -0.6401  -0.6384  -0.6335  -0.6251  -0.6120  -0.5894  -0.5837
 -0.5770  -0.5751  -0.5666  -0.5631  -0.5583  -0.5554  -0.5540  -0.5457
 -0.5320  -0.5219  -0.5191  -0.5146  -0.4785  -0.4663  -0.4637  -0.4601
 -0.4552  -0.4393  -0.4290  -0.4187  -0.4077  -0.3773  -0.3496  -0.3340
 -0.2969

          Ground-State Mulliken Net Atomic Charges

     Atom                 Charge (a.u.)
  ----------------------------------------
      1 C                    -0.161824
      2 C                    -0.110912
      3 C                    -0.024517
      4 C                    -0.004192
      5 H                     0.186390
      6 C                    -0.019106
      7 C                     0.083513
      8 C                     0.020418
      9 C                    -0.104095
     10 C                    -0.136377
     11 C                     0.070022
     12 H                     0.165495
     13 C                     0.359546
     14 C                     0.364573
     15 N                    -0.101383
     16 C                     0.357142
     17 C                     0.394075
     18 N                    -0.089675
     19 O                    -0.464684
     20 O                    -0.477730
     21 O                    -0.485402
     22 O                    -0.472569
     23 C                    -0.201556
     24 H                     0.140838
     25 H                     0.112142
     26 H                     0.112105
     27 C                    -0.199687
     28 H                     0.134981
     29 H                     0.111777
     30 H                     0.112645
     31 H                     0.210373
     32 C                    -0.088064
     33 S                     0.026770
     34 C                    -0.136134
     35 C                    -0.095024
     36 C                    -0.239272
     37 H                     0.236471
     38 H                     0.193597
     39 H                     0.219332
  ----------------------------------------
  Sum of atomic charges =     0.000000

                    Cartesian Multipole Moments
 -----------------------------------------------------------------
    Charge (ESU x 10^10)
                 0.0000
    Dipole Moment (Debye)
         X       2.6340      Y       3.0099      Z      -0.9543
       Tot       4.1119
    Quadrupole Moments (Debye-Ang)
        XX    -158.6222     XY       6.8079     YY    -181.2304
        XZ       7.6533     YZ      -0.2390     ZZ    -175.7319

 Total job time:  289.63s(wall), 8708.24s(cpu)
        *  Thank you very much for using Q-Chem.  Have a nice day.  *
