 Q-Chem 5.4, Q-Chem, Inc., Pleasanton, CA (2021)
 Q-Chem 5.4.0 for Intel X86 EM64T Linux

User input:
--------------------------------------------------------------
$molecule
0 1
C	0.043160	-6.741404	-0.253280
C	0.269777	-6.155638	-1.539213
C	-0.145543	-5.791452	0.814295
C	0.318377	-4.803786	-1.813519
H	0.422058	-6.821518	-2.403941
C	-0.094194	-4.378638	0.527140
C	0.137191	-3.838032	-0.783072
C	-0.275104	-3.413062	1.556403
C	0.188116	-2.426473	-1.067932
C	-0.226701	-2.059348	1.285420
C	-0.000000	-1.478216	-0.000000
H	-0.378931	-1.394783	2.151147
C	-0.397845	-6.187987	2.234582
C	-0.523637	-3.798164	2.965273
N	-0.567586	-5.170003	3.204744
C	0.567421	-4.424987	-3.226257
C	0.439541	-2.036627	-2.489446
N	0.609650	-3.049156	-3.459801
O	-0.468608	-7.353131	2.619468
O	-0.683034	-2.986854	3.874668
O	0.725131	-5.248946	-4.124806
O	0.512648	-0.878829	-2.895819
C	-0.813908	-5.563799	4.595691
H	-0.822891	-6.664085	4.640022
H	-1.781600	-5.147101	4.934830
H	-0.020360	-5.148785	5.246157
C	0.851649	-2.587487	-4.829716
H	0.962191	-3.483329	-5.462742
H	1.765865	-1.964972	-4.863242
H	0.005383	-1.962932	-5.173521
H	0.010555	-7.822318	-0.070208
C	0.000000	0.000000	0.000000
S	0.335026	0.718942	1.580530
C	1.027130	2.203226	0.904911
C	0.421617	0.904557	-0.985400
C	0.979485	2.101144	-0.493528
H	0.322049	0.690978	-2.059934
H	1.351718	2.899571	-1.152593
H	1.399246	3.001430	1.556025
$end

$rem
JOBTYPE		SP
EXCHANGE	HF
CORRELATION	pRIMP2
BASIS		cc-pvtz
METHOD		rimp2
AUX_BASIS	rimp2-cc-pvtz
SOLVENT_METHOD	PCM
PURECART	11111
SYMMETRY	false
MEM_TOTAL	110000
SCF_CONVERGENCE = 6
THRESH=10
GUI = 2
$end

$solvent
dielectric 4.90
$end
--------------------------------------------------------------

             Standard Nuclear Orientation (Angstroms)
    I     Atom           X                Y                Z
 ----------------------------------------------------------------
    1      C       0.0431600000    -6.7414040000    -0.2532800000
    2      C       0.2697770000    -6.1556380000    -1.5392130000
    3      C      -0.1455430000    -5.7914520000     0.8142950000
    4      C       0.3183770000    -4.8037860000    -1.8135190000
    5      H       0.4220580000    -6.8215180000    -2.4039410000
    6      C      -0.0941940000    -4.3786380000     0.5271400000
    7      C       0.1371910000    -3.8380320000    -0.7830720000
    8      C      -0.2751040000    -3.4130620000     1.5564030000
    9      C       0.1881160000    -2.4264730000    -1.0679320000
   10      C      -0.2267010000    -2.0593480000     1.2854200000
   11      C       0.0000000000    -1.4782160000     0.0000000000
   12      H      -0.3789310000    -1.3947830000     2.1511470000
   13      C      -0.3978450000    -6.1879870000     2.2345820000
   14      C      -0.5236370000    -3.7981640000     2.9652730000
   15      N      -0.5675860000    -5.1700030000     3.2047440000
   16      C       0.5674210000    -4.4249870000    -3.2262570000
   17      C       0.4395410000    -2.0366270000    -2.4894460000
   18      N       0.6096500000    -3.0491560000    -3.4598010000
   19      O      -0.4686080000    -7.3531310000     2.6194680000
   20      O      -0.6830340000    -2.9868540000     3.8746680000
   21      O       0.7251310000    -5.2489460000    -4.1248060000
   22      O       0.5126480000    -0.8788290000    -2.8958190000
   23      C      -0.8139080000    -5.5637990000     4.5956910000
   24      H      -0.8228910000    -6.6640850000     4.6400220000
   25      H      -1.7816000000    -5.1471010000     4.9348300000
   26      H      -0.0203600000    -5.1487850000     5.2461570000
   27      C       0.8516490000    -2.5874870000    -4.8297160000
   28      H       0.9621910000    -3.4833290000    -5.4627420000
   29      H       1.7658650000    -1.9649720000    -4.8632420000
   30      H       0.0053830000    -1.9629320000    -5.1735210000
   31      H       0.0105550000    -7.8223180000    -0.0702080000
   32      C       0.0000000000     0.0000000000     0.0000000000
   33      S       0.3350260000     0.7189420000     1.5805300000
   34      C       1.0271300000     2.2032260000     0.9049110000
   35      C       0.4216170000     0.9045570000    -0.9854000000
   36      C       0.9794850000     2.1011440000    -0.4935280000
   37      H       0.3220490000     0.6909780000    -2.0599340000
   38      H       1.3517180000     2.8995710000    -1.1525930000
   39      H       1.3992460000     3.0014300000     1.5560250000
 ----------------------------------------------------------------

   10   -1570.6709984531      9.18e-07  Convergence criterion met
 Total energy in the final basis set =    -1570.6709984531
        RIMP2         total energy =     -1575.3012408707 a.u.

                    Orbital Energies (a.u.)
 --------------------------------------------------------------

 Alpha MOs
 -- Occupied --
-91.9929 -20.5582 -20.5561 -20.5547 -20.5530 -15.6308 -15.6303 -11.3994
-11.3971 -11.3908 -11.3904 -11.3199 -11.3014 -11.2992 -11.2956 -11.2944
-11.2937 -11.2926 -11.2868 -11.2864 -11.2821 -11.2781 -11.2776 -11.2648
-11.2642 -11.2538 -11.2498  -8.9930  -6.6737  -6.6732  -6.6726  -1.4259
 -1.4245  -1.4041  -1.4039  -1.2673  -1.2652  -1.2163  -1.1787  -1.1433
 -1.1153  -1.0630  -1.0486  -0.9921  -0.9903  -0.9883  -0.9585  -0.9469
 -0.8968  -0.8787  -0.8776  -0.8613  -0.7959  -0.7793  -0.7730  -0.7629
 -0.7352  -0.7265  -0.7029  -0.6934  -0.6818  -0.6736  -0.6663  -0.6621
 -0.6556  -0.6410  -0.6377  -0.6340  -0.6273  -0.6126  -0.5907  -0.5833
 -0.5783  -0.5715  -0.5669  -0.5638  -0.5606  -0.5559  -0.5541  -0.5466
 -0.5337  -0.5247  -0.5234  -0.5162  -0.4808  -0.4674  -0.4644  -0.4629
 -0.4575  -0.4484  -0.4291  -0.4191  -0.4094  -0.3773  -0.3545  -0.3360
 -0.2986

          Ground-State Mulliken Net Atomic Charges

     Atom                 Charge (a.u.)
  ----------------------------------------
      1 C                    -0.148662
      2 C                    -0.111746
      3 C                    -0.029479
      4 C                    -0.002573
      5 H                     0.187461
      6 C                    -0.003945
      7 C                     0.075570
      8 C                     0.040794
      9 C                    -0.077601
     10 C                    -0.160406
     11 C                     0.058703
     12 H                     0.166567
     13 C                     0.359148
     14 C                     0.364159
     15 N                    -0.101396
     16 C                     0.358694
     17 C                     0.384031
     18 N                    -0.091578
     19 O                    -0.464236
     20 O                    -0.476709
     21 O                    -0.483828
     22 O                    -0.477131
     23 C                    -0.201264
     24 H                     0.141086
     25 H                     0.112359
     26 H                     0.112431
     27 C                    -0.198670
     28 H                     0.134629
     29 H                     0.112378
     30 H                     0.112554
     31 H                     0.212112
     32 C                     0.005551
     33 S                     0.021996
     34 C                    -0.189717
     35 C                    -0.164813
     36 C                    -0.218070
     37 H                     0.229921
     38 H                     0.193269
     39 H                     0.218411
  ----------------------------------------
  Sum of atomic charges =     0.000000

                    Cartesian Multipole Moments
 -----------------------------------------------------------------
    Charge (ESU x 10^10)
                -0.0000
    Dipole Moment (Debye)
         X       1.1497      Y       2.4626      Z      -0.8583
       Tot       2.8501
    Quadrupole Moments (Debye-Ang)
        XX    -162.3715     XY       4.7329     YY    -171.5221
        XZ       3.9036     YZ       0.2975     ZZ    -177.5721

 Total job time:  257.93s(wall), 8057.92s(cpu)
        *  Thank you very much for using Q-Chem.  Have a nice day.  *
