 Q-Chem 5.4, Q-Chem, Inc., Pleasanton, CA (2021)
 Q-Chem 5.4.0 for Intel X86 EM64T Linux

User input:
--------------------------------------------------------------
$molecule
0 1
C	-0.373932	-0.753180	1.022665
S	0.008168	0.061020	2.533365
C	0.672968	1.489220	1.750265
C	0.009868	0.069920	-0.042035
C	0.595468	1.329320	0.344365
C	-0.016732	0.009120	-1.463435
C	0.517768	1.155520	-2.084235
S	1.041968	2.287520	-0.943035
C	0.629568	1.384120	-3.537335
O	0.237668	0.536820	-4.327635
O	1.174768	2.545720	-3.981735
F	-0.484032	-1.002280	-2.223635
C	1.335568	2.866520	-5.312335
H	1.803068	3.867720	-5.347635
H	0.363468	2.890220	-5.852935
H	1.985468	2.133220	-5.839235
C	-0.373932	-2.188380	1.022665
H	-1.453832	-2.197380	1.031165
H	-0.374332	-2.872280	0.186765
H	-0.365932	-2.712780	1.966765
H	1.061868	2.323020	2.344165
$end

$rem
JOBTYPE		SP
EXCHANGE	HF
CORRELATION	pRIMP2
BASIS		cc-pvtz
METHOD		rimp2
AUX_BASIS	rimp2-cc-pvtz
SOLVENT_METHOD	PCM
PURECART	11111
SYMMETRY	false
MEM_TOTAL	110000
SCF_CONVERGENCE = 6
THRESH=10
GUI = 2
$end

$solvent
dielectric 4.90
$end
--------------------------------------------------------------

             Standard Nuclear Orientation (Angstroms)
    I     Atom           X                Y                Z
 ----------------------------------------------------------------
    1      C      -0.3739320000    -0.7531800000     1.0226650000
    2      S       0.0081680000     0.0610200000     2.5333650000
    3      C       0.6729680000     1.4892200000     1.7502650000
    4      C       0.0098680000     0.0699200000    -0.0420350000
    5      C       0.5954680000     1.3293200000     0.3443650000
    6      C      -0.0167320000     0.0091200000    -1.4634350000
    7      C       0.5177680000     1.1555200000    -2.0842350000
    8      S       1.0419680000     2.2875200000    -0.9430350000
    9      C       0.6295680000     1.3841200000    -3.5373350000
   10      O       0.2376680000     0.5368200000    -4.3276350000
   11      O       1.1747680000     2.5457200000    -3.9817350000
   12      F      -0.4840320000    -1.0022800000    -2.2236350000
   13      C       1.3355680000     2.8665200000    -5.3123350000
   14      H       1.8030680000     3.8677200000    -5.3476350000
   15      H       0.3634680000     2.8902200000    -5.8529350000
   16      H       1.9854680000     2.1332200000    -5.8392350000
   17      C      -0.3739320000    -2.1883800000     1.0226650000
   18      H      -1.4538320000    -2.1973800000     1.0311650000
   19      H      -0.3743320000    -2.8722800000     0.1867650000
   20      H      -0.3659320000    -2.7127800000     1.9667650000
   21      H       1.0618680000     2.3230200000     2.3441650000
 ----------------------------------------------------------------

   11   -1389.2395880712      4.79e-07  Convergence criterion met
 Total energy in the final basis set =    -1389.2395880712
        RIMP2         total energy =     -1391.7469532547 a.u.

                    Orbital Energies (a.u.)
 --------------------------------------------------------------

 Alpha MOs
 -- Occupied --
-92.0061 -91.9886 -26.3340 -20.6094 -20.5455 -11.4063 -11.3758 -11.3130
-11.2915 -11.2883 -11.2872 -11.2789 -11.2679 -11.2310  -9.0050  -8.9929
 -6.6858  -6.6851  -6.6847  -6.6742  -6.6735  -6.6721  -1.6470  -1.4689
 -1.3637  -1.2265  -1.1468  -1.0665  -1.0273  -1.0056  -0.9676  -0.9109
 -0.8629  -0.7958  -0.7844  -0.7663  -0.7257  -0.7148  -0.6955  -0.6771
 -0.6763  -0.6673  -0.6086  -0.6031  -0.5925  -0.5865  -0.5850  -0.5582
 -0.5332  -0.5231  -0.5196  -0.4950  -0.4791  -0.4601  -0.4570  -0.4555
 -0.3875  -0.3462  -0.2720

          Ground-State Mulliken Net Atomic Charges

     Atom                 Charge (a.u.)
  ----------------------------------------
      1 C                     0.028983
      2 S                     0.090772
      3 C                    -0.267632
      4 C                    -0.094982
      5 C                    -0.008565
      6 C                     0.376458
      7 C                    -0.166917
      8 S                     0.028471
      9 C                     0.457299
     10 O                    -0.457639
     11 O                    -0.298917
     12 F                    -0.212121
     13 C                    -0.054786
     14 H                     0.115997
     15 H                     0.083580
     16 H                     0.083552
     17 C                    -0.377181
     18 H                     0.144096
     19 H                     0.170648
     20 H                     0.148776
     21 H                     0.210105
  ----------------------------------------
  Sum of atomic charges =     0.000000

                    Cartesian Multipole Moments
 -----------------------------------------------------------------
    Charge (ESU x 10^10)
                -0.0000
    Dipole Moment (Debye)
         X       0.2922      Y       0.3349      Z       3.7151
       Tot       3.7416
    Quadrupole Moments (Debye-Ang)
        XX     -94.4822     XY       5.6959     YY     -83.8734
        XZ      -5.2678     YZ     -11.1988     ZZ     -96.4517

 Total job time:  53.68s(wall), 1944.07s(cpu)
        *  Thank you very much for using Q-Chem.  Have a nice day.  *
