 Q-Chem 5.4, Q-Chem, Inc., Pleasanton, CA (2021)
 Q-Chem 5.4.0 for Intel X86 EM64T Linux

User input:
--------------------------------------------------------------
$molecule
0 1
C	-0.445850	-0.717327	1.020802
S	0.005750	0.060473	2.531502
C	0.792550	1.425273	1.748402
C	0.008250	0.069273	-0.043898
C	0.701350	1.272673	0.342502
C	-0.023550	0.010873	-1.465298
C	0.608750	1.106373	-2.086098
S	1.229650	2.188373	-0.944898
C	0.740050	1.324373	-3.539198
O	0.275850	0.514473	-4.329498
O	1.384450	2.434073	-3.983598
F	-0.577150	-0.955927	-2.225498
C	1.572650	2.739673	-5.314198
H	2.125650	3.696273	-5.349498
H	0.606350	2.847873	-5.854798
H	2.156050	1.952473	-5.841098
C	-0.445850	-2.152527	1.020802
H	-0.068550	-2.161527	2.032702
H	-1.231150	-2.836427	1.307002
H	0.438550	-2.676927	0.690402
H	1.252550	2.221973	2.342302
$end

$rem
JOBTYPE		SP
EXCHANGE	HF
CORRELATION	pRIMP2
BASIS		cc-pvtz
METHOD		rimp2
AUX_BASIS	rimp2-cc-pvtz
SOLVENT_METHOD	PCM
PURECART	11111
SYMMETRY	false
MEM_TOTAL	110000
SCF_CONVERGENCE = 6
THRESH=10
GUI = 2
$end

$solvent
dielectric 4.90
$end
--------------------------------------------------------------

             Standard Nuclear Orientation (Angstroms)
    I     Atom           X                Y                Z
 ----------------------------------------------------------------
    1      C      -0.4458500000    -0.7173270000     1.0208020000
    2      S       0.0057500000     0.0604730000     2.5315020000
    3      C       0.7925500000     1.4252730000     1.7484020000
    4      C       0.0082500000     0.0692730000    -0.0438980000
    5      C       0.7013500000     1.2726730000     0.3425020000
    6      C      -0.0235500000     0.0108730000    -1.4652980000
    7      C       0.6087500000     1.1063730000    -2.0860980000
    8      S       1.2296500000     2.1883730000    -0.9448980000
    9      C       0.7400500000     1.3243730000    -3.5391980000
   10      O       0.2758500000     0.5144730000    -4.3294980000
   11      O       1.3844500000     2.4340730000    -3.9835980000
   12      F      -0.5771500000    -0.9559270000    -2.2254980000
   13      C       1.5726500000     2.7396730000    -5.3141980000
   14      H       2.1256500000     3.6962730000    -5.3494980000
   15      H       0.6063500000     2.8478730000    -5.8547980000
   16      H       2.1560500000     1.9524730000    -5.8410980000
   17      C      -0.4458500000    -2.1525270000     1.0208020000
   18      H      -0.0685500000    -2.1615270000     2.0327020000
   19      H      -1.2311500000    -2.8364270000     1.3070020000
   20      H       0.4385500000    -2.6769270000     0.6904020000
   21      H       1.2525500000     2.2219730000     2.3423020000
 ----------------------------------------------------------------

   11   -1389.2329586812      5.39e-07  Convergence criterion met
 Total energy in the final basis set =    -1389.2329586812
        RIMP2         total energy =     -1391.7439660960 a.u.

                    Orbital Energies (a.u.)
 --------------------------------------------------------------

 Alpha MOs
 -- Occupied --
-92.0062 -91.9914 -26.3329 -20.6112 -20.5489 -11.4090 -11.3748 -11.3001
-11.2946 -11.2916 -11.2894 -11.2880 -11.2724 -11.2246  -9.0054  -8.9955
 -6.6862  -6.6855  -6.6850  -6.6768  -6.6761  -6.6748  -1.6459  -1.4709
 -1.3661  -1.2285  -1.1491  -1.0654  -1.0304  -1.0037  -0.9692  -0.9074
 -0.8654  -0.7971  -0.7846  -0.7691  -0.7269  -0.7141  -0.6955  -0.6777
 -0.6756  -0.6689  -0.6087  -0.6051  -0.5987  -0.5885  -0.5701  -0.5681
 -0.5430  -0.5255  -0.5068  -0.4838  -0.4774  -0.4609  -0.4599  -0.4521
 -0.3949  -0.3445  -0.2820

          Ground-State Mulliken Net Atomic Charges

     Atom                 Charge (a.u.)
  ----------------------------------------
      1 C                     0.026240
      2 S                     0.083665
      3 C                    -0.238181
      4 C                    -0.093959
      5 C                    -0.010565
      6 C                     0.372707
      7 C                    -0.159878
      8 S                     0.034108
      9 C                     0.457444
     10 O                    -0.451563
     11 O                    -0.298060
     12 F                    -0.210794
     13 C                    -0.054842
     14 H                     0.116423
     15 H                     0.084271
     16 H                     0.084154
     17 C                    -0.371687
     18 H                     0.124226
     19 H                     0.147362
     20 H                     0.146670
     21 H                     0.212257
  ----------------------------------------
  Sum of atomic charges =     0.000000

                    Cartesian Multipole Moments
 -----------------------------------------------------------------
    Charge (ESU x 10^10)
                -0.0000
    Dipole Moment (Debye)
         X       1.8937      Y       1.1826      Z       3.9641
       Tot       4.5496
    Quadrupole Moments (Debye-Ang)
        XX     -93.9382     XY       3.9315     YY     -85.2512
        XZ      -5.3507     YZ     -11.8006     ZZ     -94.3589

 Total job time:  53.31s(wall), 1945.32s(cpu)
        *  Thank you very much for using Q-Chem.  Have a nice day.  *
