 Q-Chem 5.4, Q-Chem, Inc., Pleasanton, CA (2021)
 Q-Chem 5.4.0 for Intel X86 EM64T Linux

User input:
--------------------------------------------------------------
$molecule
0 1
C	-0.769595	-0.392188	1.025081
S	0.010405	0.055612	2.535781
C	1.374205	0.844212	1.752681
C	0.016905	0.061912	-0.039619
C	1.218905	0.757612	0.346781
C	-0.039695	0.027312	-1.461019
C	1.055605	0.659812	-2.081819
S	2.134305	1.286512	-0.940619
C	1.278305	0.783012	-3.534919
O	0.471405	0.313712	-4.325219
O	2.391205	1.421812	-3.979319
F	-1.002595	-0.533088	-2.221219
C	2.706905	1.592412	-5.309919
H	3.664105	2.144312	-5.345219
H	1.924205	2.169312	-5.850519
H	2.818605	0.618912	-5.836819
C	-0.769595	-1.827388	1.025081
H	-0.236995	-1.836388	0.085581
H	-0.045495	-2.511288	1.442681
H	-1.591195	-2.351788	0.559981
H	2.171005	1.304112	2.346581
$end

$rem
JOBTYPE		SP
EXCHANGE	HF
CORRELATION	pRIMP2
BASIS		cc-pvtz
METHOD		rimp2
AUX_BASIS	rimp2-cc-pvtz
SOLVENT_METHOD	PCM
PURECART	11111
SYMMETRY	false
MEM_TOTAL	110000
SCF_CONVERGENCE = 6
THRESH=10
GUI = 2
$end

$solvent
dielectric 4.90
$end
--------------------------------------------------------------

             Standard Nuclear Orientation (Angstroms)
    I     Atom           X                Y                Z
 ----------------------------------------------------------------
    1      C      -0.7695950000    -0.3921880000     1.0250810000
    2      S       0.0104050000     0.0556120000     2.5357810000
    3      C       1.3742050000     0.8442120000     1.7526810000
    4      C       0.0169050000     0.0619120000    -0.0396190000
    5      C       1.2189050000     0.7576120000     0.3467810000
    6      C      -0.0396950000     0.0273120000    -1.4610190000
    7      C       1.0556050000     0.6598120000    -2.0818190000
    8      S       2.1343050000     1.2865120000    -0.9406190000
    9      C       1.2783050000     0.7830120000    -3.5349190000
   10      O       0.4714050000     0.3137120000    -4.3252190000
   11      O       2.3912050000     1.4218120000    -3.9793190000
   12      F      -1.0025950000    -0.5330880000    -2.2212190000
   13      C       2.7069050000     1.5924120000    -5.3099190000
   14      H       3.6641050000     2.1443120000    -5.3452190000
   15      H       1.9242050000     2.1693120000    -5.8505190000
   16      H       2.8186050000     0.6189120000    -5.8368190000
   17      C      -0.7695950000    -1.8273880000     1.0250810000
   18      H      -0.2369950000    -1.8363880000     0.0855810000
   19      H      -0.0454950000    -2.5112880000     1.4426810000
   20      H      -1.5911950000    -2.3517880000     0.5599810000
   21      H       2.1710050000     1.3041120000     2.3465810000
 ----------------------------------------------------------------

   12   -1389.1684557107      5.82e-07  Convergence criterion met
 Total energy in the final basis set =    -1389.1684557107
        RIMP2         total energy =     -1391.6970150905 a.u.

                    Orbital Energies (a.u.)
 --------------------------------------------------------------

 Alpha MOs
 -- Occupied --
-92.0076 -92.0023 -26.3337 -20.6146 -20.5550 -11.4143 -11.3730 -11.3131
-11.3073 -11.2945 -11.2899 -11.2814 -11.2652 -11.2128  -9.0066  -9.0058
 -6.6872  -6.6869  -6.6864  -6.6863  -6.6862  -6.6851  -1.6469  -1.4748
 -1.3708  -1.2370  -1.1555  -1.0736  -1.0307  -1.0002  -0.9724  -0.9039
 -0.8674  -0.7969  -0.7887  -0.7730  -0.7297  -0.7163  -0.6984  -0.6808
 -0.6771  -0.6737  -0.6098  -0.6072  -0.6028  -0.5885  -0.5849  -0.5627
 -0.5302  -0.5269  -0.5110  -0.4880  -0.4710  -0.4641  -0.4629  -0.4445
 -0.3789  -0.3384  -0.2893

          Ground-State Mulliken Net Atomic Charges

     Atom                 Charge (a.u.)
  ----------------------------------------
      1 C                    -0.139493
      2 S                     0.119278
      3 C                    -0.179726
      4 C                     0.000240
      5 C                    -0.033701
      6 C                     0.340478
      7 C                    -0.133179
      8 S                     0.066279
      9 C                     0.457258
     10 O                    -0.442047
     11 O                    -0.296806
     12 F                    -0.212825
     13 C                    -0.054724
     14 H                     0.117220
     15 H                     0.085414
     16 H                     0.085018
     17 C                    -0.364210
     18 H                     0.113666
     19 H                     0.141765
     20 H                     0.114027
     21 H                     0.216067
  ----------------------------------------
  Sum of atomic charges =     0.000000

                    Cartesian Multipole Moments
 -----------------------------------------------------------------
    Charge (ESU x 10^10)
                -0.0000
    Dipole Moment (Debye)
         X       4.8082      Y       1.2334      Z       2.4185
       Tot       5.5217
    Quadrupole Moments (Debye-Ang)
        XX     -89.4248     XY       4.4110     YY     -91.4462
        XZ      -7.2682     YZ      -5.1353     ZZ     -93.7984

 Total job time:  58.37s(wall), 2084.76s(cpu)
        *  Thank you very much for using Q-Chem.  Have a nice day.  *
