 Q-Chem 5.4, Q-Chem, Inc., Pleasanton, CA (2021)
 Q-Chem 5.4.0 for Intel X86 EM64T Linux

User input:
--------------------------------------------------------------
$molecule
0 1
C	-0.677969	-0.518946	1.023483
S	0.012431	0.057454	2.534183
C	1.218531	1.070954	1.751083
C	0.017731	0.064854	-0.041217
C	1.080631	0.958754	0.345183
C	-0.032069	0.020954	-1.462617
C	0.936831	0.834054	-2.083417
S	1.890331	1.638454	-0.942217
C	1.134731	0.994054	-3.536517
O	0.421531	0.391754	-4.326817
O	2.119831	1.816354	-3.980917
F	-0.882969	-0.698246	-2.222817
C	2.401131	2.039154	-5.311517
H	3.247931	2.748954	-5.346817
H	1.530131	2.471454	-5.852117
H	2.680131	1.099854	-5.838417
C	-0.677969	-1.954146	1.023483
H	-1.695669	-1.963146	0.662083
H	-0.392469	-2.638046	0.237883
H	-0.993369	-2.478546	1.913383
H	1.923331	1.662254	2.344983
$end

$rem
JOBTYPE		SP
EXCHANGE	HF
CORRELATION	pRIMP2
BASIS		cc-pvtz
METHOD		rimp2
AUX_BASIS	rimp2-cc-pvtz
SOLVENT_METHOD	PCM
PURECART	11111
SYMMETRY	false
MEM_TOTAL	110000
SCF_CONVERGENCE = 6
THRESH=10
GUI = 2
$end

$solvent
dielectric 4.90
$end
--------------------------------------------------------------

             Standard Nuclear Orientation (Angstroms)
    I     Atom           X                Y                Z
 ----------------------------------------------------------------
    1      C      -0.6779690000    -0.5189460000     1.0234830000
    2      S       0.0124310000     0.0574540000     2.5341830000
    3      C       1.2185310000     1.0709540000     1.7510830000
    4      C       0.0177310000     0.0648540000    -0.0412170000
    5      C       1.0806310000     0.9587540000     0.3451830000
    6      C      -0.0320690000     0.0209540000    -1.4626170000
    7      C       0.9368310000     0.8340540000    -2.0834170000
    8      S       1.8903310000     1.6384540000    -0.9422170000
    9      C       1.1347310000     0.9940540000    -3.5365170000
   10      O       0.4215310000     0.3917540000    -4.3268170000
   11      O       2.1198310000     1.8163540000    -3.9809170000
   12      F      -0.8829690000    -0.6982460000    -2.2228170000
   13      C       2.4011310000     2.0391540000    -5.3115170000
   14      H       3.2479310000     2.7489540000    -5.3468170000
   15      H       1.5301310000     2.4714540000    -5.8521170000
   16      H       2.6801310000     1.0998540000    -5.8384170000
   17      C      -0.6779690000    -1.9541460000     1.0234830000
   18      H      -1.6956690000    -1.9631460000     0.6620830000
   19      H      -0.3924690000    -2.6380460000     0.2378830000
   20      H      -0.9933690000    -2.4785460000     1.9133830000
   21      H       1.9233310000     1.6622540000     2.3449830000
 ----------------------------------------------------------------

   11   -1389.1971997612      7.33e-07  Convergence criterion met
 Total energy in the final basis set =    -1389.1971997612
        RIMP2         total energy =     -1391.7186566135 a.u.

                    Orbital Energies (a.u.)
 --------------------------------------------------------------

 Alpha MOs
 -- Occupied --
-92.0025 -91.9956 -26.3336 -20.6123 -20.5509 -11.4108 -11.3743 -11.2994
-11.2988 -11.2932 -11.2887 -11.2830 -11.2775 -11.2181  -9.0020  -8.9995
 -6.6826  -6.6817  -6.6815  -6.6807  -6.6801  -6.6788  -1.6467  -1.4722
 -1.3677  -1.2311  -1.1494  -1.0672  -1.0288  -1.0024  -0.9698  -0.9078
 -0.8657  -0.7964  -0.7864  -0.7699  -0.7276  -0.7153  -0.6958  -0.6788
 -0.6758  -0.6707  -0.6067  -0.6066  -0.5971  -0.5915  -0.5707  -0.5595
 -0.5370  -0.5228  -0.5142  -0.4934  -0.4821  -0.4618  -0.4611  -0.4406
 -0.3807  -0.3443  -0.2769

          Ground-State Mulliken Net Atomic Charges

     Atom                 Charge (a.u.)
  ----------------------------------------
      1 C                    -0.054352
      2 S                     0.101841
      3 C                    -0.208382
      4 C                    -0.059940
      5 C                    -0.018985
      6 C                     0.357915
      7 C                    -0.146501
      8 S                     0.047644
      9 C                     0.456318
     10 O                    -0.448859
     11 O                    -0.297721
     12 F                    -0.211098
     13 C                    -0.054616
     14 H                     0.116706
     15 H                     0.084534
     16 H                     0.084380
     17 C                    -0.394649
     18 H                     0.134199
     19 H                     0.159892
     20 H                     0.139993
     21 H                     0.211680
  ----------------------------------------
  Sum of atomic charges =     0.000000

                    Cartesian Multipole Moments
 -----------------------------------------------------------------
    Charge (ESU x 10^10)
                -0.0000
    Dipole Moment (Debye)
         X       2.4785      Y       0.9987      Z       2.9759
       Tot       3.9996
    Quadrupole Moments (Debye-Ang)
        XX     -90.3185     XY       6.7252     YY     -89.0014
        XZ      -8.3036     YZ      -7.2901     ZZ     -94.9318

 Total job time:  58.07s(wall), 1983.19s(cpu)
        *  Thank you very much for using Q-Chem.  Have a nice day.  *
