 Q-Chem 5.4, Q-Chem, Inc., Pleasanton, CA (2021)
 Q-Chem 5.4.0 for Intel X86 EM64T Linux

User input:
--------------------------------------------------------------
$molecule
0 1
C	-0.678628	-0.518946	1.021216
S	0.011772	0.057454	2.531916
C	1.217872	1.070954	1.748816
C	0.017072	0.064854	-0.043484
C	1.079972	0.958754	0.342916
C	-0.032728	0.020954	-1.464884
C	0.936172	0.834054	-2.085684
S	1.889672	1.638454	-0.944484
C	1.134072	0.994054	-3.538784
O	0.420872	0.391754	-4.329084
O	2.119172	1.816354	-3.983184
F	-0.883628	-0.698246	-2.225084
C	2.400472	2.039154	-5.313784
H	3.247272	2.748954	-5.349084
H	1.529472	2.471454	-5.854384
H	2.679472	1.099854	-5.840684
C	-0.678628	-1.954146	1.021216
H	-1.500428	-1.963146	1.721816
H	-1.216228	-2.638046	0.381116
H	-0.065628	-2.478546	1.739316
H	1.922672	1.662254	2.342716
$end

$rem
JOBTYPE		SP
EXCHANGE	HF
CORRELATION	pRIMP2
BASIS		cc-pvtz
METHOD		rimp2
AUX_BASIS	rimp2-cc-pvtz
SOLVENT_METHOD	PCM
PURECART	11111
SYMMETRY	false
MEM_TOTAL	110000
SCF_CONVERGENCE = 6
THRESH=10
GUI = 2
$end

$solvent
dielectric 4.90
$end
--------------------------------------------------------------

             Standard Nuclear Orientation (Angstroms)
    I     Atom           X                Y                Z
 ----------------------------------------------------------------
    1      C      -0.6786280000    -0.5189460000     1.0212160000
    2      S       0.0117720000     0.0574540000     2.5319160000
    3      C       1.2178720000     1.0709540000     1.7488160000
    4      C       0.0170720000     0.0648540000    -0.0434840000
    5      C       1.0799720000     0.9587540000     0.3429160000
    6      C      -0.0327280000     0.0209540000    -1.4648840000
    7      C       0.9361720000     0.8340540000    -2.0856840000
    8      S       1.8896720000     1.6384540000    -0.9444840000
    9      C       1.1340720000     0.9940540000    -3.5387840000
   10      O       0.4208720000     0.3917540000    -4.3290840000
   11      O       2.1191720000     1.8163540000    -3.9831840000
   12      F      -0.8836280000    -0.6982460000    -2.2250840000
   13      C       2.4004720000     2.0391540000    -5.3137840000
   14      H       3.2472720000     2.7489540000    -5.3490840000
   15      H       1.5294720000     2.4714540000    -5.8543840000
   16      H       2.6794720000     1.0998540000    -5.8406840000
   17      C      -0.6786280000    -1.9541460000     1.0212160000
   18      H      -1.5004280000    -1.9631460000     1.7218160000
   19      H      -1.2162280000    -2.6380460000     0.3811160000
   20      H      -0.0656280000    -2.4785460000     1.7393160000
   21      H       1.9226720000     1.6622540000     2.3427160000
 ----------------------------------------------------------------

   11   -1389.1995283177      7.48e-07  Convergence criterion met
 Total energy in the final basis set =    -1389.1995283177
        RIMP2         total energy =     -1391.7197160698 a.u.

                    Orbital Energies (a.u.)
 --------------------------------------------------------------

 Alpha MOs
 -- Occupied --
-92.0065 -91.9954 -26.3324 -20.6125 -20.5514 -11.4111 -11.3733 -11.3033
-11.2999 -11.2928 -11.2887 -11.2800 -11.2757 -11.2180  -9.0057  -8.9994
 -6.6864  -6.6857  -6.6854  -6.6806  -6.6800  -6.6787  -1.6455  -1.4724
 -1.3680  -1.2311  -1.1509  -1.0660  -1.0308  -1.0020  -0.9703  -0.9061
 -0.8668  -0.7973  -0.7859  -0.7709  -0.7279  -0.7141  -0.6954  -0.6789
 -0.6733  -0.6709  -0.6094  -0.6068  -0.5960  -0.5887  -0.5808  -0.5608
 -0.5300  -0.5264  -0.5091  -0.4842  -0.4798  -0.4620  -0.4611  -0.4504
 -0.3826  -0.3449  -0.2815

          Ground-State Mulliken Net Atomic Charges

     Atom                 Charge (a.u.)
  ----------------------------------------
      1 C                    -0.103366
      2 S                     0.097451
      3 C                    -0.197194
      4 C                    -0.007258
      5 C                    -0.023429
      6 C                     0.358147
      7 C                    -0.146259
      8 S                     0.045257
      9 C                     0.457196
     10 O                    -0.447316
     11 O                    -0.297467
     12 F                    -0.211093
     13 C                    -0.054617
     14 H                     0.116725
     15 H                     0.084645
     16 H                     0.084528
     17 C                    -0.382268
     18 H                     0.121480
     19 H                     0.152256
     20 H                     0.137828
     21 H                     0.214753
  ----------------------------------------
  Sum of atomic charges =     0.000000

                    Cartesian Multipole Moments
 -----------------------------------------------------------------
    Charge (ESU x 10^10)
                -0.0000
    Dipole Moment (Debye)
         X       2.8088      Y       1.2178      Z       3.5125
       Tot       4.6594
    Quadrupole Moments (Debye-Ang)
        XX     -90.3124     XY       6.5741     YY     -89.1091
        XZ      -7.6664     YZ      -8.1362     ZZ     -93.5255

 Total job time:  55.33s(wall), 1972.42s(cpu)
        *  Thank you very much for using Q-Chem.  Have a nice day.  *
