 Q-Chem 5.4, Q-Chem, Inc., Pleasanton, CA (2021)
 Q-Chem 5.4.0 for Intel X86 EM64T Linux

User input:
--------------------------------------------------------------
$molecule
0 1
C	-0.157343	-0.823218	1.024624
S	0.001057	0.062182	2.535324
C	0.273557	1.613782	1.752224
C	0.000357	0.071182	-0.040076
C	0.240057	1.439182	0.346324
C	-0.009543	0.005582	-1.461476
C	0.209957	1.251182	-2.082276
S	0.423257	2.480282	-0.941076
C	0.258757	1.500982	-3.535376
O	0.099557	0.581182	-4.325676
O	0.484757	2.764082	-3.979776
F	-0.199143	-1.092318	-2.221676
C	0.557057	3.115582	-5.310376
H	0.749457	4.203682	-5.345676
H	-0.388043	2.886882	-5.850976
H	1.374557	2.575482	-5.837276
C	-0.157343	-2.258418	1.024624
H	0.664457	-2.267418	0.324024
H	0.380257	-2.942318	1.664724
H	-0.770343	-2.782818	0.306524
H	0.433357	2.519782	2.346124
$end

$rem
JOBTYPE		SP
EXCHANGE	HF
CORRELATION	pRIMP2
BASIS		cc-pvtz
METHOD		rimp2
AUX_BASIS	rimp2-cc-pvtz
SOLVENT_METHOD	PCM
PURECART	11111
SYMMETRY	false
MEM_TOTAL	110000
SCF_CONVERGENCE = 6
THRESH=10
GUI = 2
$end

$solvent
dielectric 4.90
$end
--------------------------------------------------------------

             Standard Nuclear Orientation (Angstroms)
    I     Atom           X                Y                Z
 ----------------------------------------------------------------
    1      C      -0.1573430000    -0.8232180000     1.0246240000
    2      S       0.0010570000     0.0621820000     2.5353240000
    3      C       0.2735570000     1.6137820000     1.7522240000
    4      C       0.0003570000     0.0711820000    -0.0400760000
    5      C       0.2400570000     1.4391820000     0.3463240000
    6      C      -0.0095430000     0.0055820000    -1.4614760000
    7      C       0.2099570000     1.2511820000    -2.0822760000
    8      S       0.4232570000     2.4802820000    -0.9410760000
    9      C       0.2587570000     1.5009820000    -3.5353760000
   10      O       0.0995570000     0.5811820000    -4.3256760000
   11      O       0.4847570000     2.7640820000    -3.9797760000
   12      F      -0.1991430000    -1.0923180000    -2.2216760000
   13      C       0.5570570000     3.1155820000    -5.3103760000
   14      H       0.7494570000     4.2036820000    -5.3456760000
   15      H      -0.3880430000     2.8868820000    -5.8509760000
   16      H       1.3745570000     2.5754820000    -5.8372760000
   17      C      -0.1573430000    -2.2584180000     1.0246240000
   18      H       0.6644570000    -2.2674180000     0.3240240000
   19      H       0.3802570000    -2.9423180000     1.6647240000
   20      H      -0.7703430000    -2.7828180000     0.3065240000
   21      H       0.4333570000     2.5197820000     2.3461240000
 ----------------------------------------------------------------

   11   -1389.2537830482      4.53e-07  Convergence criterion met
 Total energy in the final basis set =    -1389.2537830482
        RIMP2         total energy =     -1391.7588325320 a.u.

                    Orbital Energies (a.u.)
 --------------------------------------------------------------

 Alpha MOs
 -- Occupied --
-92.0066 -91.9892 -26.3349 -20.6097 -20.5459 -11.4066 -11.3766 -11.3172
-11.2919 -11.2886 -11.2874 -11.2763 -11.2685 -11.2330  -9.0052  -8.9934
 -6.6860  -6.6854  -6.6850  -6.6747  -6.6740  -6.6727  -1.6480  -1.4692
 -1.3641  -1.2269  -1.1463  -1.0681  -1.0264  -1.0065  -0.9678  -0.9113
 -0.8627  -0.7954  -0.7851  -0.7659  -0.7260  -0.7157  -0.6972  -0.6779
 -0.6766  -0.6678  -0.6102  -0.6033  -0.5942  -0.5904  -0.5854  -0.5632
 -0.5395  -0.5237  -0.5059  -0.4886  -0.4774  -0.4646  -0.4593  -0.4567
 -0.3911  -0.3461  -0.2757

          Ground-State Mulliken Net Atomic Charges

     Atom                 Charge (a.u.)
  ----------------------------------------
      1 C                     0.051631
      2 S                     0.085111
      3 C                    -0.273524
      4 C                    -0.096068
      5 C                    -0.008768
      6 C                     0.381706
      7 C                    -0.165797
      8 S                     0.027382
      9 C                     0.458711
     10 O                    -0.457929
     11 O                    -0.298829
     12 F                    -0.213647
     13 C                    -0.054921
     14 H                     0.116059
     15 H                     0.083698
     16 H                     0.083561
     17 C                    -0.381750
     18 H                     0.137350
     19 H                     0.168741
     20 H                     0.148102
     21 H                     0.209181
  ----------------------------------------
  Sum of atomic charges =     0.000000

                    Cartesian Multipole Moments
 -----------------------------------------------------------------
    Charge (ESU x 10^10)
                -0.0000
    Dipole Moment (Debye)
         X       0.9588      Y       0.4405      Z       3.2280
       Tot       3.3961
    Quadrupole Moments (Debye-Ang)
        XX     -96.1921     XY       0.3184     YY     -82.2113
        XZ      -0.9783     YZ     -11.3468     ZZ     -97.6380

 Total job time:  56.33s(wall), 2086.92s(cpu)
        *  Thank you very much for using Q-Chem.  Have a nice day.  *
