 Q-Chem 5.4, Q-Chem, Inc., Pleasanton, CA (2021)
 Q-Chem 5.4.0 for Intel X86 EM64T Linux

User input:
--------------------------------------------------------------
$molecule
0 1
C	0.000364	-0.836989	1.023873
S	0.002564	0.062411	2.534573
C	0.001564	1.637711	1.751473
C	0.000364	0.071211	-0.040827
C	-0.001136	1.460011	0.345573
C	0.001964	0.004811	-1.462227
C	0.001864	1.269711	-2.083027
S	-0.001436	2.517211	-0.941827
C	0.006564	1.524111	-3.536127
O	0.009564	0.590611	-4.326427
O	0.009764	2.807311	-3.980527
F	0.005864	-1.109289	-2.222427
C	0.019964	3.166011	-5.311127
H	0.020564	4.271011	-5.346427
H	-0.871036	2.776711	-5.851727
H	0.918864	2.776111	-5.838027
C	0.000364	-2.272189	1.023873
H	-0.939136	-2.281189	0.491273
H	0.417964	-2.956089	0.299773
H	-0.464736	-2.796589	1.845473
H	0.001564	2.557811	2.345373
$end

$rem
JOBTYPE		SP
EXCHANGE	HF
CORRELATION	pRIMP2
BASIS		cc-pvtz
METHOD		rimp2
AUX_BASIS	rimp2-cc-pvtz
SOLVENT_METHOD	PCM
PURECART	11111
SYMMETRY	false
MEM_TOTAL	110000
SCF_CONVERGENCE = 6
THRESH=10
GUI = 2
$end

$solvent
dielectric 4.90
$end
--------------------------------------------------------------

             Standard Nuclear Orientation (Angstroms)
    I     Atom           X                Y                Z
 ----------------------------------------------------------------
    1      C       0.0003640000    -0.8369890000     1.0238730000
    2      S       0.0025640000     0.0624110000     2.5345730000
    3      C       0.0015640000     1.6377110000     1.7514730000
    4      C       0.0003640000     0.0712110000    -0.0408270000
    5      C      -0.0011360000     1.4600110000     0.3455730000
    6      C       0.0019640000     0.0048110000    -1.4622270000
    7      C       0.0018640000     1.2697110000    -2.0830270000
    8      S      -0.0014360000     2.5172110000    -0.9418270000
    9      C       0.0065640000     1.5241110000    -3.5361270000
   10      O       0.0095640000     0.5906110000    -4.3264270000
   11      O       0.0097640000     2.8073110000    -3.9805270000
   12      F       0.0058640000    -1.1092890000    -2.2224270000
   13      C       0.0199640000     3.1660110000    -5.3111270000
   14      H       0.0205640000     4.2710110000    -5.3464270000
   15      H      -0.8710360000     2.7767110000    -5.8517270000
   16      H       0.9188640000     2.7761110000    -5.8380270000
   17      C       0.0003640000    -2.2721890000     1.0238730000
   18      H      -0.9391360000    -2.2811890000     0.4912730000
   19      H       0.4179640000    -2.9560890000     0.2997730000
   20      H      -0.4647360000    -2.7965890000     1.8454730000
   21      H       0.0015640000     2.5578110000     2.3453730000
 ----------------------------------------------------------------

   11   -1389.2567095526      4.36e-07  Convergence criterion met
 Total energy in the final basis set =    -1389.2567095526
        RIMP2         total energy =     -1391.7600016395 a.u.

                    Orbital Energies (a.u.)
 --------------------------------------------------------------

 Alpha MOs
 -- Occupied --
-92.0072 -91.9884 -26.3347 -20.6093 -20.5452 -11.4060 -11.3766 -11.3190
-11.2916 -11.2872 -11.2871 -11.2748 -11.2670 -11.2346  -9.0058  -8.9926
 -6.6866  -6.6860  -6.6855  -6.6739  -6.6732  -6.6719  -1.6477  -1.4687
 -1.3635  -1.2262  -1.1462  -1.0677  -1.0266  -1.0067  -0.9675  -0.9116
 -0.8625  -0.7955  -0.7846  -0.7656  -0.7257  -0.7153  -0.6974  -0.6785
 -0.6763  -0.6672  -0.6102  -0.6029  -0.5925  -0.5863  -0.5853  -0.5623
 -0.5403  -0.5233  -0.5101  -0.4922  -0.4785  -0.4632  -0.4589  -0.4564
 -0.3906  -0.3464  -0.2740

          Ground-State Mulliken Net Atomic Charges

     Atom                 Charge (a.u.)
  ----------------------------------------
      1 C                     0.056055
      2 S                     0.085498
      3 C                    -0.278096
      4 C                    -0.106084
      5 C                    -0.006510
      6 C                     0.393509
      7 C                    -0.169820
      8 S                     0.023795
      9 C                     0.460010
     10 O                    -0.459232
     11 O                    -0.299035
     12 F                    -0.214474
     13 C                    -0.055012
     14 H                     0.115981
     15 H                     0.083528
     16 H                     0.083529
     17 C                    -0.379190
     18 H                     0.141288
     19 H                     0.167163
     20 H                     0.147854
     21 H                     0.209244
  ----------------------------------------
  Sum of atomic charges =     0.000000

                    Cartesian Multipole Moments
 -----------------------------------------------------------------
    Charge (ESU x 10^10)
                 0.0000
    Dipole Moment (Debye)
         X      -0.6535      Y       0.2940      Z       3.4126
       Tot       3.4870
    Quadrupole Moments (Debye-Ang)
        XX     -96.4340     XY       1.6524     YY     -81.7975
        XZ      -0.9870     YZ     -11.6045     ZZ     -97.5546

 Total job time:  54.32s(wall), 1931.37s(cpu)
        *  Thank you very much for using Q-Chem.  Have a nice day.  *
