 Q-Chem 5.4, Q-Chem, Inc., Pleasanton, CA (2021)
 Q-Chem 5.4.0 for Intel X86 EM64T Linux

User input:
--------------------------------------------------------------
$molecule
0 1
C	-0.681574	-0.518946	1.024882
S	0.008826	0.057454	2.535582
C	1.214926	1.070954	1.752482
C	0.014126	0.064854	-0.039818
C	1.077026	0.958754	0.346582
C	-0.035674	0.020954	-1.461218
C	0.933226	0.834054	-2.082018
S	1.886726	1.638454	-0.940818
C	1.131126	0.994054	-3.535118
O	0.417926	0.391754	-4.325418
O	2.116226	1.816354	-3.979518
F	-0.886574	-0.698246	-2.221418
C	2.397526	2.039154	-5.310118
H	3.244326	2.748954	-5.345418
H	1.526526	2.471454	-5.850718
H	2.676526	1.099854	-5.837018
C	-0.681574	-1.954146	1.024882
H	0.006126	-1.963146	0.192182
H	-0.041074	-2.638046	1.561882
H	-1.409974	-2.478546	0.424182
H	1.919726	1.662254	2.346382
$end

$rem
JOBTYPE		SP
EXCHANGE	HF
CORRELATION	pRIMP2
BASIS		cc-pvtz
METHOD		rimp2
AUX_BASIS	rimp2-cc-pvtz
SOLVENT_METHOD	PCM
PURECART	11111
SYMMETRY	false
MEM_TOTAL	110000
SCF_CONVERGENCE = 6
THRESH=10
GUI = 2
$end

$solvent
dielectric 4.90
$end
--------------------------------------------------------------

             Standard Nuclear Orientation (Angstroms)
    I     Atom           X                Y                Z
 ----------------------------------------------------------------
    1      C      -0.6815740000    -0.5189460000     1.0248820000
    2      S       0.0088260000     0.0574540000     2.5355820000
    3      C       1.2149260000     1.0709540000     1.7524820000
    4      C       0.0141260000     0.0648540000    -0.0398180000
    5      C       1.0770260000     0.9587540000     0.3465820000
    6      C      -0.0356740000     0.0209540000    -1.4612180000
    7      C       0.9332260000     0.8340540000    -2.0820180000
    8      S       1.8867260000     1.6384540000    -0.9408180000
    9      C       1.1311260000     0.9940540000    -3.5351180000
   10      O       0.4179260000     0.3917540000    -4.3254180000
   11      O       2.1162260000     1.8163540000    -3.9795180000
   12      F      -0.8865740000    -0.6982460000    -2.2214180000
   13      C       2.3975260000     2.0391540000    -5.3101180000
   14      H       3.2443260000     2.7489540000    -5.3454180000
   15      H       1.5265260000     2.4714540000    -5.8507180000
   16      H       2.6765260000     1.0998540000    -5.8370180000
   17      C      -0.6815740000    -1.9541460000     1.0248820000
   18      H       0.0061260000    -1.9631460000     0.1921820000
   19      H      -0.0410740000    -2.6380460000     1.5618820000
   20      H      -1.4099740000    -2.4785460000     0.4241820000
   21      H       1.9197260000     1.6622540000     2.3463820000
 ----------------------------------------------------------------

   11   -1389.1956394138      7.54e-07  Convergence criterion met
 Total energy in the final basis set =    -1389.1956394138
        RIMP2         total energy =     -1391.7190900580 a.u.

                    Orbital Energies (a.u.)
 --------------------------------------------------------------

 Alpha MOs
 -- Occupied --
-92.0086 -91.9975 -26.3339 -20.6128 -20.5515 -11.4114 -11.3741 -11.3002
-11.2993 -11.2940 -11.2890 -11.2852 -11.2749 -11.2190  -9.0073  -9.0013
 -6.6880  -6.6872  -6.6871  -6.6825  -6.6819  -6.6806  -1.6471  -1.4727
 -1.3682  -1.2331  -1.1525  -1.0707  -1.0288  -1.0017  -0.9707  -0.9059
 -0.8658  -0.7960  -0.7871  -0.7704  -0.7280  -0.7159  -0.6971  -0.6792
 -0.6771  -0.6714  -0.6079  -0.6060  -0.5992  -0.5904  -0.5861  -0.5624
 -0.5299  -0.5274  -0.5084  -0.4865  -0.4727  -0.4627  -0.4613  -0.4556
 -0.3824  -0.3425  -0.2825

          Ground-State Mulliken Net Atomic Charges

     Atom                 Charge (a.u.)
  ----------------------------------------
      1 C                    -0.074618
      2 S                     0.113013
      3 C                    -0.217062
      4 C                    -0.034212
      5 C                    -0.018581
      6 C                     0.343668
      7 C                    -0.146492
      8 S                     0.053791
      9 C                     0.457608
     10 O                    -0.448014
     11 O                    -0.297711
     12 F                    -0.211893
     13 C                    -0.054591
     14 H                     0.116758
     15 H                     0.084697
     16 H                     0.084460
     17 C                    -0.371222
     18 H                     0.126068
     19 H                     0.157085
     20 H                     0.124325
     21 H                     0.212924
  ----------------------------------------
  Sum of atomic charges =     0.000000

                    Cartesian Multipole Moments
 -----------------------------------------------------------------
    Charge (ESU x 10^10)
                -0.0000
    Dipole Moment (Debye)
         X       3.5810      Y       1.1379      Z       2.7966
       Tot       4.6839
    Quadrupole Moments (Debye-Ang)
        XX     -91.3462     XY       4.4563     YY     -89.2002
        XZ      -6.6606     YZ      -6.9176     ZZ     -95.0579

 Total job time:  63.86s(wall), 2102.71s(cpu)
        *  Thank you very much for using Q-Chem.  Have a nice day.  *
