 Q-Chem 5.4, Q-Chem, Inc., Pleasanton, CA (2021)
 Q-Chem 5.4.0 for Intel X86 EM64T Linux

User input:
--------------------------------------------------------------
$molecule
0 1
C	-0.569054	-0.628442	1.023873
S	0.010846	0.059158	2.534573
C	1.022546	1.266558	1.751473
C	0.014746	0.067358	-0.040827
C	0.906246	1.132158	0.345573
C	-0.026654	0.015358	-1.462227
C	0.786246	0.984358	-2.083027
S	1.585546	1.942158	-0.941827
C	0.953346	1.176358	-3.536127
O	0.355646	0.459358	-4.326427
O	1.780646	2.157258	-3.980527
F	-0.739854	-0.840542	-2.222427
C	2.019046	2.425458	-5.311127
H	2.729746	3.271558	-5.346427
H	1.086246	2.699958	-5.851727
H	2.456946	1.548958	-5.838027
C	-0.569054	-2.063642	1.023873
H	-1.508554	-2.072642	0.491273
H	-0.151454	-2.747542	0.299773
H	-1.034154	-2.588042	1.845473
H	1.614046	1.971358	2.345373
$end

$rem
JOBTYPE		SP
EXCHANGE	HF
CORRELATION	pRIMP2
BASIS		cc-pvtz
METHOD		rimp2
AUX_BASIS	rimp2-cc-pvtz
SOLVENT_METHOD	PCM
PURECART	11111
SYMMETRY	false
MEM_TOTAL	110000
SCF_CONVERGENCE = 6
THRESH=10
GUI = 2
$end

$solvent
dielectric 4.90
$end
--------------------------------------------------------------

             Standard Nuclear Orientation (Angstroms)
    I     Atom           X                Y                Z
 ----------------------------------------------------------------
    1      C      -0.5690540000    -0.6284420000     1.0238730000
    2      S       0.0108460000     0.0591580000     2.5345730000
    3      C       1.0225460000     1.2665580000     1.7514730000
    4      C       0.0147460000     0.0673580000    -0.0408270000
    5      C       0.9062460000     1.1321580000     0.3455730000
    6      C      -0.0266540000     0.0153580000    -1.4622270000
    7      C       0.7862460000     0.9843580000    -2.0830270000
    8      S       1.5855460000     1.9421580000    -0.9418270000
    9      C       0.9533460000     1.1763580000    -3.5361270000
   10      O       0.3556460000     0.4593580000    -4.3264270000
   11      O       1.7806460000     2.1572580000    -3.9805270000
   12      F      -0.7398540000    -0.8405420000    -2.2224270000
   13      C       2.0190460000     2.4254580000    -5.3111270000
   14      H       2.7297460000     3.2715580000    -5.3464270000
   15      H       1.0862460000     2.6999580000    -5.8517270000
   16      H       2.4569460000     1.5489580000    -5.8380270000
   17      C      -0.5690540000    -2.0636420000     1.0238730000
   18      H      -1.5085540000    -2.0726420000     0.4912730000
   19      H      -0.1514540000    -2.7475420000     0.2997730000
   20      H      -1.0341540000    -2.5880420000     1.8454730000
   21      H       1.6140460000     1.9713580000     2.3453730000
 ----------------------------------------------------------------

   11   -1389.2193308283      6.07e-07  Convergence criterion met
 Total energy in the final basis set =    -1389.2193308283
        RIMP2         total energy =     -1391.7353882056 a.u.

                    Orbital Energies (a.u.)
 --------------------------------------------------------------

 Alpha MOs
 -- Occupied --
-92.0033 -91.9932 -26.3340 -20.6114 -20.5491 -11.4093 -11.3752 -11.2951
-11.2951 -11.2930 -11.2911 -11.2882 -11.2747 -11.2230  -9.0025  -8.9972
 -6.6832  -6.6824  -6.6821  -6.6784  -6.6778  -6.6765  -1.6471  -1.4711
 -1.3664  -1.2294  -1.1476  -1.0669  -1.0278  -1.0040  -0.9690  -0.9096
 -0.8645  -0.7960  -0.7859  -0.7683  -0.7268  -0.7154  -0.6959  -0.6780
 -0.6769  -0.6696  -0.6068  -0.6054  -0.5969  -0.5900  -0.5736  -0.5608
 -0.5398  -0.5239  -0.5115  -0.4910  -0.4813  -0.4612  -0.4598  -0.4457
 -0.3860  -0.3450  -0.2770

          Ground-State Mulliken Net Atomic Charges

     Atom                 Charge (a.u.)
  ----------------------------------------
      1 C                    -0.012178
      2 S                     0.096654
      3 C                    -0.230360
      4 C                    -0.082061
      5 C                    -0.014653
      6 C                     0.362238
      7 C                    -0.153310
      8 S                     0.040317
      9 C                     0.456576
     10 O                    -0.451957
     11 O                    -0.298172
     12 F                    -0.211215
     13 C                    -0.054634
     14 H                     0.116478
     15 H                     0.084258
     16 H                     0.084058
     17 C                    -0.385498
     18 H                     0.134965
     19 H                     0.165340
     20 H                     0.142918
     21 H                     0.210232
  ----------------------------------------
  Sum of atomic charges =     0.000000

                    Cartesian Multipole Moments
 -----------------------------------------------------------------
    Charge (ESU x 10^10)
                -0.0000
    Dipole Moment (Debye)
         X       1.6124      Y       0.9436      Z       3.0271
       Tot       3.5572
    Quadrupole Moments (Debye-Ang)
        XX     -91.9785     XY       6.5558     YY     -86.8150
        XZ      -7.3329     YZ      -8.5429     ZZ     -96.0492

 Total job time:  55.24s(wall), 1869.72s(cpu)
        *  Thank you very much for using Q-Chem.  Have a nice day.  *
