 Q-Chem 5.4, Q-Chem, Inc., Pleasanton, CA (2021)
 Q-Chem 5.4.0 for Intel X86 EM64T Linux

User input:
--------------------------------------------------------------
$molecule
0 1
C	-0.157614	-0.823218	1.024315
S	0.000786	0.062182	2.535015
C	0.273286	1.613782	1.751915
C	0.000086	0.071182	-0.040385
C	0.239786	1.439182	0.346015
C	-0.009814	0.005582	-1.461785
C	0.209686	1.251182	-2.082585
S	0.422986	2.480282	-0.941385
C	0.258486	1.500982	-3.535685
O	0.099286	0.581182	-4.325985
O	0.484486	2.764082	-3.980085
F	-0.199414	-1.092318	-2.221985
C	0.556786	3.115582	-5.310685
H	0.749186	4.203682	-5.345985
H	-0.388314	2.886882	-5.851285
H	1.374286	2.575482	-5.837585
C	-0.157614	-2.258418	1.024315
H	0.773386	-2.267418	0.477015
H	0.260586	-2.942318	1.748015
H	-0.636614	-2.782818	0.210715
H	0.433086	2.519782	2.345815
$end

$rem
JOBTYPE		SP
EXCHANGE	HF
CORRELATION	pRIMP2
BASIS		cc-pvtz
METHOD		rimp2
AUX_BASIS	rimp2-cc-pvtz
SOLVENT_METHOD	PCM
PURECART	11111
SYMMETRY	false
MEM_TOTAL	110000
SCF_CONVERGENCE = 6
THRESH=10
GUI = 2
$end

$solvent
dielectric 4.90
$end
--------------------------------------------------------------

             Standard Nuclear Orientation (Angstroms)
    I     Atom           X                Y                Z
 ----------------------------------------------------------------
    1      C      -0.1576140000    -0.8232180000     1.0243150000
    2      S       0.0007860000     0.0621820000     2.5350150000
    3      C       0.2732860000     1.6137820000     1.7519150000
    4      C       0.0000860000     0.0711820000    -0.0403850000
    5      C       0.2397860000     1.4391820000     0.3460150000
    6      C      -0.0098140000     0.0055820000    -1.4617850000
    7      C       0.2096860000     1.2511820000    -2.0825850000
    8      S       0.4229860000     2.4802820000    -0.9413850000
    9      C       0.2584860000     1.5009820000    -3.5356850000
   10      O       0.0992860000     0.5811820000    -4.3259850000
   11      O       0.4844860000     2.7640820000    -3.9800850000
   12      F      -0.1994140000    -1.0923180000    -2.2219850000
   13      C       0.5567860000     3.1155820000    -5.3106850000
   14      H       0.7491860000     4.2036820000    -5.3459850000
   15      H      -0.3883140000     2.8868820000    -5.8512850000
   16      H       1.3742860000     2.5754820000    -5.8375850000
   17      C      -0.1576140000    -2.2584180000     1.0243150000
   18      H       0.7733860000    -2.2674180000     0.4770150000
   19      H       0.2605860000    -2.9423180000     1.7480150000
   20      H      -0.6366140000    -2.7828180000     0.2107150000
   21      H       0.4330860000     2.5197820000     2.3458150000
 ----------------------------------------------------------------

   11   -1389.2548119033      4.39e-07  Convergence criterion met
 Total energy in the final basis set =    -1389.2548119033
        RIMP2         total energy =     -1391.7587438033 a.u.

                    Orbital Energies (a.u.)
 --------------------------------------------------------------

 Alpha MOs
 -- Occupied --
-92.0068 -91.9886 -26.3349 -20.6093 -20.5452 -11.4060 -11.3767 -11.3197
-11.2919 -11.2873 -11.2872 -11.2745 -11.2673 -11.2348  -9.0054  -8.9929
 -6.6862  -6.6856  -6.6852  -6.6742  -6.6735  -6.6721  -1.6478  -1.4688
 -1.3636  -1.2266  -1.1467  -1.0682  -1.0264  -1.0065  -0.9676  -0.9113
 -0.8625  -0.7955  -0.7848  -0.7656  -0.7259  -0.7155  -0.6971  -0.6778
 -0.6763  -0.6674  -0.6105  -0.6029  -0.5929  -0.5924  -0.5851  -0.5619
 -0.5378  -0.5234  -0.5083  -0.4923  -0.4778  -0.4642  -0.4590  -0.4565
 -0.3903  -0.3464  -0.2739

          Ground-State Mulliken Net Atomic Charges

     Atom                 Charge (a.u.)
  ----------------------------------------
      1 C                     0.054522
      2 S                     0.085554
      3 C                    -0.278686
      4 C                    -0.099055
      5 C                    -0.008011
      6 C                     0.384927
      7 C                    -0.169614
      8 S                     0.025838
      9 C                     0.459126
     10 O                    -0.459015
     11 O                    -0.299029
     12 F                    -0.213658
     13 C                    -0.054926
     14 H                     0.115959
     15 H                     0.083592
     16 H                     0.083442
     17 C                    -0.383078
     18 H                     0.143578
     19 H                     0.170121
     20 H                     0.149473
     21 H                     0.208941
  ----------------------------------------
  Sum of atomic charges =     0.000000

                    Cartesian Multipole Moments
 -----------------------------------------------------------------
    Charge (ESU x 10^10)
                -0.0000
    Dipole Moment (Debye)
         X       1.0234      Y       0.2451      Z       3.3843
       Tot       3.5441
    Quadrupole Moments (Debye-Ang)
        XX     -96.3466     XY       0.1353     YY     -82.1137
        XZ      -0.9482     YZ     -11.6631     ZZ     -97.6078

 Total job time:  58.30s(wall), 2274.80s(cpu)
        *  Thank you very much for using Q-Chem.  Have a nice day.  *
