 Q-Chem 5.4, Q-Chem, Inc., Pleasanton, CA (2021)
 Q-Chem 5.4.0 for Intel X86 EM64T Linux

User input:
--------------------------------------------------------------
$molecule
0 1
C	-0.012706	-0.838148	1.023176
S	-0.010506	0.061252	2.533876
C	-0.011506	1.636552	1.750776
C	-0.012706	0.070052	-0.041524
C	-0.014206	1.458852	0.344876
C	-0.011106	0.003652	-1.462924
C	-0.011206	1.268552	-2.083724
S	-0.014506	2.516052	-0.942524
C	-0.006506	1.522952	-3.536824
O	-0.003506	0.589452	-4.327124
O	-0.003306	2.806152	-3.981224
F	-0.007206	-1.110448	-2.223124
C	0.006894	3.164852	-5.311824
H	0.007494	4.269852	-5.347124
H	-0.884106	2.775552	-5.852424
H	0.905794	2.774952	-5.838724
C	0.236494	-2.251548	1.023176
H	1.301594	-2.072848	1.014676
H	0.355594	-2.924948	1.859076
H	0.319694	-2.769348	0.079076
H	-0.011506	2.556652	2.344676
$end

$rem
JOBTYPE		SP
EXCHANGE	HF
CORRELATION	pRIMP2
BASIS		cc-pvtz
METHOD		rimp2
AUX_BASIS	rimp2-cc-pvtz
SOLVENT_METHOD	PCM
PURECART	11111
SYMMETRY	false
MEM_TOTAL	110000
SCF_CONVERGENCE = 6
THRESH=10
GUI = 2
$end

$solvent
dielectric 4.90
$end
--------------------------------------------------------------

             Standard Nuclear Orientation (Angstroms)
    I     Atom           X                Y                Z
 ----------------------------------------------------------------
    1      C      -0.0127060000    -0.8381480000     1.0231760000
    2      S      -0.0105060000     0.0612520000     2.5338760000
    3      C      -0.0115060000     1.6365520000     1.7507760000
    4      C      -0.0127060000     0.0700520000    -0.0415240000
    5      C      -0.0142060000     1.4588520000     0.3448760000
    6      C      -0.0111060000     0.0036520000    -1.4629240000
    7      C      -0.0112060000     1.2685520000    -2.0837240000
    8      S      -0.0145060000     2.5160520000    -0.9425240000
    9      C      -0.0065060000     1.5229520000    -3.5368240000
   10      O      -0.0035060000     0.5894520000    -4.3271240000
   11      O      -0.0033060000     2.8061520000    -3.9812240000
   12      F      -0.0072060000    -1.1104480000    -2.2231240000
   13      C       0.0068940000     3.1648520000    -5.3118240000
   14      H       0.0074940000     4.2698520000    -5.3471240000
   15      H      -0.8841060000     2.7755520000    -5.8524240000
   16      H       0.9057940000     2.7749520000    -5.8387240000
   17      C       0.2364940000    -2.2515480000     1.0231760000
   18      H       1.3015940000    -2.0728480000     1.0146760000
   19      H       0.3555940000    -2.9249480000     1.8590760000
   20      H       0.3196940000    -2.7693480000     0.0790760000
   21      H      -0.0115060000     2.5566520000     2.3446760000
 ----------------------------------------------------------------

   11   -1389.2568396572      4.14e-07  Convergence criterion met
 Total energy in the final basis set =    -1389.2568396572
        RIMP2         total energy =     -1391.7584313335 a.u.

                    Orbital Energies (a.u.)
 --------------------------------------------------------------

 Alpha MOs
 -- Occupied --
-92.0057 -91.9874 -26.3346 -20.6088 -20.5443 -11.4053 -11.3770 -11.3228
-11.2915 -11.2869 -11.2858 -11.2731 -11.2663 -11.2377  -9.0045  -8.9917
 -6.6854  -6.6848  -6.6843  -6.6730  -6.6723  -6.6709  -1.6475  -1.4682
 -1.3629  -1.2261  -1.1473  -1.0679  -1.0268  -1.0064  -0.9672  -0.9112
 -0.8622  -0.7958  -0.7843  -0.7656  -0.7259  -0.7151  -0.6965  -0.6773
 -0.6759  -0.6668  -0.6106  -0.6024  -0.5971  -0.5880  -0.5848  -0.5592
 -0.5312  -0.5258  -0.5191  -0.4950  -0.4778  -0.4626  -0.4584  -0.4559
 -0.3903  -0.3470  -0.2714

          Ground-State Mulliken Net Atomic Charges

     Atom                 Charge (a.u.)
  ----------------------------------------
      1 C                     0.056036
      2 S                     0.081996
      3 C                    -0.281096
      4 C                    -0.105101
      5 C                    -0.011519
      6 C                     0.390541
      7 C                    -0.171427
      8 S                     0.022303
      9 C                     0.460150
     10 O                    -0.460187
     11 O                    -0.299315
     12 F                    -0.213669
     13 C                    -0.054945
     14 H                     0.115873
     15 H                     0.083505
     16 H                     0.083291
     17 C                    -0.382114
     18 H                     0.155597
     19 H                     0.170681
     20 H                     0.150189
     21 H                     0.209213
  ----------------------------------------
  Sum of atomic charges =     0.000000

                    Cartesian Multipole Moments
 -----------------------------------------------------------------
    Charge (ESU x 10^10)
                -0.0000
    Dipole Moment (Debye)
         X       1.1181      Y       0.1712      Z       3.7964
       Tot       3.9613
    Quadrupole Moments (Debye-Ang)
        XX     -96.1087     XY      -2.5890     YY     -82.3938
        XZ       1.1002     YZ     -12.6329     ZZ     -97.1329

 Total job time:  93.22s(wall), 2076.73s(cpu)
        *  Thank you very much for using Q-Chem.  Have a nice day.  *
