 Q-Chem 5.4, Q-Chem, Inc., Pleasanton, CA (2021)
 Q-Chem 5.4.0 for Intel X86 EM64T Linux

User input:
--------------------------------------------------------------
$molecule
0 1
C	-0.444963	-0.717327	1.025276
S	0.006637	0.060473	2.535976
C	0.793437	1.425273	1.752876
C	0.009137	0.069273	-0.039424
C	0.702237	1.272673	0.346976
C	-0.022663	0.010873	-1.460824
C	0.609637	1.106373	-2.081624
S	1.230537	2.188373	-0.940424
C	0.740937	1.324373	-3.534724
O	0.276737	0.514473	-4.325024
O	1.385337	2.434073	-3.979124
F	-0.576263	-0.955927	-2.221024
C	1.573537	2.739673	-5.309724
H	2.126537	3.696273	-5.345024
H	0.607237	2.847873	-5.850324
H	2.156937	1.952473	-5.836624
C	-0.444963	-2.152527	1.025276
H	-0.265763	-2.161527	-0.039724
H	0.378237	-2.836427	1.170076
H	-1.376163	-2.676927	0.869176
H	1.253437	2.221973	2.346776
$end

$rem
JOBTYPE		SP
EXCHANGE	HF
CORRELATION	pRIMP2
BASIS		cc-pvtz
METHOD		rimp2
AUX_BASIS	rimp2-cc-pvtz
SOLVENT_METHOD	PCM
PURECART	11111
SYMMETRY	false
MEM_TOTAL	110000
SCF_CONVERGENCE = 6
THRESH=10
GUI = 2
$end

$solvent
dielectric 4.90
$end
--------------------------------------------------------------

             Standard Nuclear Orientation (Angstroms)
    I     Atom           X                Y                Z
 ----------------------------------------------------------------
    1      C      -0.4449630000    -0.7173270000     1.0252760000
    2      S       0.0066370000     0.0604730000     2.5359760000
    3      C       0.7934370000     1.4252730000     1.7528760000
    4      C       0.0091370000     0.0692730000    -0.0394240000
    5      C       0.7022370000     1.2726730000     0.3469760000
    6      C      -0.0226630000     0.0108730000    -1.4608240000
    7      C       0.6096370000     1.1063730000    -2.0816240000
    8      S       1.2305370000     2.1883730000    -0.9404240000
    9      C       0.7409370000     1.3243730000    -3.5347240000
   10      O       0.2767370000     0.5144730000    -4.3250240000
   11      O       1.3853370000     2.4340730000    -3.9791240000
   12      F      -0.5762630000    -0.9559270000    -2.2210240000
   13      C       1.5735370000     2.7396730000    -5.3097240000
   14      H       2.1265370000     3.6962730000    -5.3450240000
   15      H       0.6072370000     2.8478730000    -5.8503240000
   16      H       2.1569370000     1.9524730000    -5.8366240000
   17      C      -0.4449630000    -2.1525270000     1.0252760000
   18      H      -0.2657630000    -2.1615270000    -0.0397240000
   19      H       0.3782370000    -2.8364270000     1.1700760000
   20      H      -1.3761630000    -2.6769270000     0.8691760000
   21      H       1.2534370000     2.2219730000     2.3467760000
 ----------------------------------------------------------------

   11   -1389.2348711532      5.75e-07  Convergence criterion met
 Total energy in the final basis set =    -1389.2348711532
        RIMP2         total energy =     -1391.7481217773 a.u.

                    Orbital Energies (a.u.)
 --------------------------------------------------------------

 Alpha MOs
 -- Occupied --
-92.0041 -91.9933 -26.3354 -20.6119 -20.5499 -11.4101 -11.3758 -11.2981
-11.2965 -11.2923 -11.2905 -11.2885 -11.2757 -11.2236  -9.0031  -8.9973
 -6.6838  -6.6831  -6.6828  -6.6786  -6.6780  -6.6766  -1.6486  -1.4717
 -1.3671  -1.2297  -1.1469  -1.0685  -1.0276  -1.0045  -0.9694  -0.9099
 -0.8647  -0.7961  -0.7871  -0.7685  -0.7273  -0.7168  -0.6971  -0.6785
 -0.6777  -0.6704  -0.6068  -0.6054  -0.5988  -0.5898  -0.5825  -0.5651
 -0.5403  -0.5258  -0.5062  -0.4827  -0.4686  -0.4629  -0.4610  -0.4512
 -0.3951  -0.3442  -0.2847

          Ground-State Mulliken Net Atomic Charges

     Atom                 Charge (a.u.)
  ----------------------------------------
      1 C                    -0.003234
      2 S                     0.091432
      3 C                    -0.234578
      4 C                    -0.080568
      5 C                    -0.011835
      6 C                     0.347575
      7 C                    -0.139054
      8 S                     0.040460
      9 C                     0.456287
     10 O                    -0.450898
     11 O                    -0.297857
     12 F                    -0.211604
     13 C                    -0.054826
     14 H                     0.116680
     15 H                     0.084385
     16 H                     0.084252
     17 C                    -0.356051
     18 H                     0.117307
     19 H                     0.160931
     20 H                     0.130211
     21 H                     0.210984
  ----------------------------------------
  Sum of atomic charges =     0.000000

                    Cartesian Multipole Moments
 -----------------------------------------------------------------
    Charge (ESU x 10^10)
                -0.0000
    Dipole Moment (Debye)
         X       1.8241      Y       1.3393      Z       2.6588
       Tot       3.4914
    Quadrupole Moments (Debye-Ang)
        XX     -93.6694     XY       4.1384     YY     -85.0796
        XZ      -4.7089     YZ      -8.9770     ZZ     -96.8309

 Total job time:  53.55s(wall), 1961.21s(cpu)
        *  Thank you very much for using Q-Chem.  Have a nice day.  *
