 Q-Chem 5.4, Q-Chem, Inc., Pleasanton, CA (2021)
 Q-Chem 5.4.0 for Intel X86 EM64T Linux

User input:
--------------------------------------------------------------
$molecule
0 1
C	-0.231734	-0.806326	1.025213
S	0.003166	0.061874	2.535913
C	0.409866	1.583774	1.752813
C	0.003266	0.070974	-0.039487
C	0.361266	1.412774	0.346913
C	-0.012234	0.006374	-1.460887
C	0.314966	1.228174	-2.081687
S	0.634566	2.434074	-0.940487
C	0.385366	1.472774	-3.534787
O	0.146566	0.570274	-4.325087
O	0.720566	2.711374	-3.979187
F	-0.296834	-1.070726	-2.221087
C	0.823266	3.055274	-5.309787
H	1.109766	4.122374	-5.345087
H	-0.138134	2.909774	-5.850387
H	1.590566	2.445874	-5.836687
C	-0.231734	-2.241526	1.025213
H	0.129666	-2.250526	0.007513
H	0.553866	-2.925426	1.310713
H	-1.121634	-2.765926	0.709813
H	0.648066	2.472474	2.346713
$end

$rem
JOBTYPE		SP
EXCHANGE	HF
CORRELATION	pRIMP2
BASIS		cc-pvtz
METHOD		rimp2
AUX_BASIS	rimp2-cc-pvtz
SOLVENT_METHOD	PCM
PURECART	11111
SYMMETRY	false
MEM_TOTAL	110000
SCF_CONVERGENCE = 6
THRESH=10
GUI = 2
$end

$solvent
dielectric 4.90
$end
--------------------------------------------------------------

             Standard Nuclear Orientation (Angstroms)
    I     Atom           X                Y                Z
 ----------------------------------------------------------------
    1      C      -0.2317340000    -0.8063260000     1.0252130000
    2      S       0.0031660000     0.0618740000     2.5359130000
    3      C       0.4098660000     1.5837740000     1.7528130000
    4      C       0.0032660000     0.0709740000    -0.0394870000
    5      C       0.3612660000     1.4127740000     0.3469130000
    6      C      -0.0122340000     0.0063740000    -1.4608870000
    7      C       0.3149660000     1.2281740000    -2.0816870000
    8      S       0.6345660000     2.4340740000    -0.9404870000
    9      C       0.3853660000     1.4727740000    -3.5347870000
   10      O       0.1465660000     0.5702740000    -4.3250870000
   11      O       0.7205660000     2.7113740000    -3.9791870000
   12      F      -0.2968340000    -1.0707260000    -2.2210870000
   13      C       0.8232660000     3.0552740000    -5.3097870000
   14      H       1.1097660000     4.1223740000    -5.3450870000
   15      H      -0.1381340000     2.9097740000    -5.8503870000
   16      H       1.5905660000     2.4458740000    -5.8366870000
   17      C      -0.2317340000    -2.2415260000     1.0252130000
   18      H       0.1296660000    -2.2505260000     0.0075130000
   19      H       0.5538660000    -2.9254260000     1.3107130000
   20      H      -1.1216340000    -2.7659260000     0.7098130000
   21      H       0.6480660000     2.4724740000     2.3467130000
 ----------------------------------------------------------------

   11   -1389.2492245842      5.06e-07  Convergence criterion met
 Total energy in the final basis set =    -1389.2492245842
        RIMP2         total energy =     -1391.7576550063 a.u.

                    Orbital Energies (a.u.)
 --------------------------------------------------------------

 Alpha MOs
 -- Occupied --
-92.0047 -91.9911 -26.3355 -20.6110 -20.5482 -11.4086 -11.3764 -11.3081
-11.2931 -11.2918 -11.2880 -11.2836 -11.2732 -11.2276  -9.0036  -8.9953
 -6.6843  -6.6837  -6.6833  -6.6765  -6.6759  -6.6745  -1.6487  -1.4706
 -1.3657  -1.2282  -1.1457  -1.0681  -1.0270  -1.0059  -0.9687  -0.9111
 -0.8638  -0.7959  -0.7864  -0.7672  -0.7268  -0.7166  -0.6973  -0.6782
 -0.6776  -0.6693  -0.6084  -0.6047  -0.5975  -0.5885  -0.5833  -0.5665
 -0.5423  -0.5249  -0.5049  -0.4821  -0.4698  -0.4649  -0.4604  -0.4554
 -0.3953  -0.3451  -0.2818

          Ground-State Mulliken Net Atomic Charges

     Atom                 Charge (a.u.)
  ----------------------------------------
      1 C                     0.035431
      2 S                     0.085523
      3 C                    -0.252444
      4 C                    -0.092396
      5 C                    -0.012188
      6 C                     0.365140
      7 C                    -0.147014
      8 S                     0.032507
      9 C                     0.457243
     10 O                    -0.454001
     11 O                    -0.298166
     12 F                    -0.213118
     13 C                    -0.054893
     14 H                     0.116456
     15 H                     0.084114
     16 H                     0.083917
     17 C                    -0.369485
     18 H                     0.122535
     19 H                     0.161970
     20 H                     0.138728
     21 H                     0.210140
  ----------------------------------------
  Sum of atomic charges =     0.000000

                    Cartesian Multipole Moments
 -----------------------------------------------------------------
    Charge (ESU x 10^10)
                -0.0000
    Dipole Moment (Debye)
         X       0.9683      Y       1.0649      Z       2.8241
       Tot       3.1697
    Quadrupole Moments (Debye-Ang)
        XX     -95.4176     XY       1.9012     YY     -82.8566
        XZ      -2.2085     YZ     -10.3535     ZZ     -97.4607

 Total job time:  55.16s(wall), 1985.71s(cpu)
        *  Thank you very much for using Q-Chem.  Have a nice day.  *
