 Q-Chem 5.4, Q-Chem, Inc., Pleasanton, CA (2021)
 Q-Chem 5.4.0 for Intel X86 EM64T Linux

User input:
--------------------------------------------------------------
$molecule
0 1
C	-0.302777	-0.782911	1.021878
S	0.006923	0.061489	2.532578
C	0.544723	1.542189	1.749478
C	0.007823	0.070589	-0.042822
C	0.481423	1.376089	0.343578
C	-0.013277	0.007589	-1.464222
C	0.419123	1.196189	-2.085022
S	0.842723	2.369589	-0.943822
C	0.510623	1.433689	-3.538122
O	0.194123	0.555489	-4.328422
O	0.952523	2.638389	-3.982522
F	-0.390677	-1.040711	-2.224422
C	1.084723	2.971989	-5.313122
H	1.463223	4.010189	-5.348422
H	0.114323	2.910889	-5.853722
H	1.796023	2.298089	-5.840022
C	-0.302777	-2.218111	1.021878
H	-1.314677	-2.227111	1.399178
H	-0.588977	-2.902011	0.236578
H	0.027623	-2.742511	1.906278
H	0.859423	2.406689	2.343378
$end

$rem
JOBTYPE		SP
EXCHANGE	HF
CORRELATION	pRIMP2
BASIS		cc-pvtz
METHOD		rimp2
AUX_BASIS	rimp2-cc-pvtz
SOLVENT_METHOD	PCM
PURECART	11111
SYMMETRY	false
MEM_TOTAL	110000
SCF_CONVERGENCE = 6
THRESH=10
GUI = 2
$end

$solvent
dielectric 4.90
$end
--------------------------------------------------------------

             Standard Nuclear Orientation (Angstroms)
    I     Atom           X                Y                Z
 ----------------------------------------------------------------
    1      C      -0.3027770000    -0.7829110000     1.0218780000
    2      S       0.0069230000     0.0614890000     2.5325780000
    3      C       0.5447230000     1.5421890000     1.7494780000
    4      C       0.0078230000     0.0705890000    -0.0428220000
    5      C       0.4814230000     1.3760890000     0.3435780000
    6      C      -0.0132770000     0.0075890000    -1.4642220000
    7      C       0.4191230000     1.1961890000    -2.0850220000
    8      S       0.8427230000     2.3695890000    -0.9438220000
    9      C       0.5106230000     1.4336890000    -3.5381220000
   10      O       0.1941230000     0.5554890000    -4.3284220000
   11      O       0.9525230000     2.6383890000    -3.9825220000
   12      F      -0.3906770000    -1.0407110000    -2.2244220000
   13      C       1.0847230000     2.9719890000    -5.3131220000
   14      H       1.4632230000     4.0101890000    -5.3484220000
   15      H       0.1143230000     2.9108890000    -5.8537220000
   16      H       1.7960230000     2.2980890000    -5.8400220000
   17      C      -0.3027770000    -2.2181110000     1.0218780000
   18      H      -1.3146770000    -2.2271110000     1.3991780000
   19      H      -0.5889770000    -2.9020110000     0.2365780000
   20      H       0.0276230000    -2.7425110000     1.9062780000
   21      H       0.8594230000     2.4066890000     2.3433780000
 ----------------------------------------------------------------

   11   -1389.2450921277      4.61e-07  Convergence criterion met
 Total energy in the final basis set =    -1389.2450921277
        RIMP2         total energy =     -1391.7505667886 a.u.

                    Orbital Energies (a.u.)
 --------------------------------------------------------------

 Alpha MOs
 -- Occupied --
-92.0067 -91.9881 -26.3336 -20.6093 -20.5454 -11.4062 -11.3758 -11.3144
-11.2911 -11.2880 -11.2871 -11.2787 -11.2672 -11.2317  -9.0056  -8.9923
 -6.6864  -6.6858  -6.6853  -6.6737  -6.6730  -6.6716  -1.6465  -1.4688
 -1.3636  -1.2261  -1.1468  -1.0661  -1.0279  -1.0057  -0.9675  -0.9109
 -0.8629  -0.7959  -0.7841  -0.7663  -0.7257  -0.7143  -0.6953  -0.6768
 -0.6762  -0.6671  -0.6094  -0.6030  -0.5922  -0.5864  -0.5858  -0.5589
 -0.5320  -0.5267  -0.5162  -0.4932  -0.4789  -0.4606  -0.4575  -0.4567
 -0.3891  -0.3465  -0.2729

          Ground-State Mulliken Net Atomic Charges

     Atom                 Charge (a.u.)
  ----------------------------------------
      1 C                     0.014013
      2 S                     0.081952
      3 C                    -0.262542
      4 C                    -0.070156
      5 C                    -0.016111
      6 C                     0.382595
      7 C                    -0.168900
      8 S                     0.024820
      9 C                     0.457895
     10 O                    -0.457657
     11 O                    -0.298874
     12 F                    -0.212331
     13 C                    -0.054817
     14 H                     0.115919
     15 H                     0.083635
     16 H                     0.083523
     17 C                    -0.376875
     18 H                     0.141656
     19 H                     0.169524
     20 H                     0.151785
     21 H                     0.210946
  ----------------------------------------
  Sum of atomic charges =     0.000000

                    Cartesian Multipole Moments
 -----------------------------------------------------------------
    Charge (ESU x 10^10)
                -0.0000
    Dipole Moment (Debye)
         X       0.1322      Y       0.3736      Z       3.9638
       Tot       3.9836
    Quadrupole Moments (Debye-Ang)
        XX     -95.0766     XY       4.9941     YY     -83.1990
        XZ      -4.1961     YZ     -12.1277     ZZ     -96.0460

 Total job time:  55.40s(wall), 1980.86s(cpu)
        *  Thank you very much for using Q-Chem.  Have a nice day.  *
