 Q-Chem 5.4, Q-Chem, Inc., Pleasanton, CA (2021)
 Q-Chem 5.4.0 for Intel X86 EM64T Linux

User input:
--------------------------------------------------------------
$molecule
0 1
C	-0.681656	-0.518946	1.021016
S	0.008744	0.057454	2.531716
C	1.214844	1.070954	1.748616
C	0.014044	0.064854	-0.043684
C	1.076944	0.958754	0.342716
C	-0.035756	0.020954	-1.465084
C	0.933144	0.834054	-2.085884
S	1.886644	1.638454	-0.944684
C	1.131044	0.994054	-3.538984
O	0.417844	0.391754	-4.329284
O	2.116144	1.816354	-3.983384
F	-0.886656	-0.698246	-2.225284
C	2.397444	2.039154	-5.313984
H	3.244244	2.748954	-5.349284
H	1.526444	2.471454	-5.854584
H	2.676444	1.099854	-5.840884
C	-0.681656	-1.954146	1.021016
H	-0.134356	-1.963146	1.952016
H	-1.405356	-2.638046	1.439216
H	0.131944	-2.478546	0.542016
H	1.919644	1.662254	2.342516
$end

$rem
JOBTYPE		SP
EXCHANGE	HF
CORRELATION	pRIMP2
BASIS		cc-pvtz
METHOD		rimp2
AUX_BASIS	rimp2-cc-pvtz
SOLVENT_METHOD	PCM
PURECART	11111
SYMMETRY	false
MEM_TOTAL	110000
SCF_CONVERGENCE = 6
THRESH=10
GUI = 2
$end

$solvent
dielectric 4.90
$end
--------------------------------------------------------------

             Standard Nuclear Orientation (Angstroms)
    I     Atom           X                Y                Z
 ----------------------------------------------------------------
    1      C      -0.6816560000    -0.5189460000     1.0210160000
    2      S       0.0087440000     0.0574540000     2.5317160000
    3      C       1.2148440000     1.0709540000     1.7486160000
    4      C       0.0140440000     0.0648540000    -0.0436840000
    5      C       1.0769440000     0.9587540000     0.3427160000
    6      C      -0.0357560000     0.0209540000    -1.4650840000
    7      C       0.9331440000     0.8340540000    -2.0858840000
    8      S       1.8866440000     1.6384540000    -0.9446840000
    9      C       1.1310440000     0.9940540000    -3.5389840000
   10      O       0.4178440000     0.3917540000    -4.3292840000
   11      O       2.1161440000     1.8163540000    -3.9833840000
   12      F      -0.8866560000    -0.6982460000    -2.2252840000
   13      C       2.3974440000     2.0391540000    -5.3139840000
   14      H       3.2442440000     2.7489540000    -5.3492840000
   15      H       1.5264440000     2.4714540000    -5.8545840000
   16      H       2.6764440000     1.0998540000    -5.8408840000
   17      C      -0.6816560000    -1.9541460000     1.0210160000
   18      H      -0.1343560000    -1.9631460000     1.9520160000
   19      H      -1.4053560000    -2.6380460000     1.4392160000
   20      H       0.1319440000    -2.4785460000     0.5420160000
   21      H       1.9196440000     1.6622540000     2.3425160000
 ----------------------------------------------------------------

   11   -1389.1940287807      6.92e-07  Convergence criterion met
 Total energy in the final basis set =    -1389.1940287807
        RIMP2         total energy =     -1391.7138491218 a.u.

                    Orbital Energies (a.u.)
 --------------------------------------------------------------

 Alpha MOs
 -- Occupied --
-92.0011 -91.9953 -26.3330 -20.6132 -20.5524 -11.4120 -11.3743 -11.3034
-11.3018 -11.2921 -11.2890 -11.2835 -11.2795 -11.2167  -9.0014  -8.9993
 -6.6820  -6.6811  -6.6809  -6.6806  -6.6799  -6.6786  -1.6459  -1.4731
 -1.3688  -1.2328  -1.1543  -1.0672  -1.0325  -1.0013  -0.9711  -0.9027
 -0.8681  -0.7985  -0.7862  -0.7724  -0.7288  -0.7146  -0.6964  -0.6794
 -0.6748  -0.6713  -0.6089  -0.6070  -0.6018  -0.5907  -0.5681  -0.5631
 -0.5394  -0.5273  -0.5116  -0.4877  -0.4803  -0.4625  -0.4623  -0.4382
 -0.3920  -0.3407  -0.2826

          Ground-State Mulliken Net Atomic Charges

     Atom                 Charge (a.u.)
  ----------------------------------------
      1 C                    -0.046017
      2 S                     0.086458
      3 C                    -0.197319
      4 C                    -0.059968
      5 C                    -0.025813
      6 C                     0.373039
      7 C                    -0.147035
      8 S                     0.043086
      9 C                     0.457534
     10 O                    -0.445632
     11 O                    -0.297115
     12 F                    -0.209950
     13 C                    -0.054592
     14 H                     0.116869
     15 H                     0.084897
     16 H                     0.084676
     17 C                    -0.386014
     18 H                     0.132697
     19 H                     0.138449
     20 H                     0.137801
     21 H                     0.213952
  ----------------------------------------
  Sum of atomic charges =     0.000000

                    Cartesian Multipole Moments
 -----------------------------------------------------------------
    Charge (ESU x 10^10)
                -0.0000
    Dipole Moment (Debye)
         X       3.6053      Y       1.1945      Z       3.5412
       Tot       5.1928
    Quadrupole Moments (Debye-Ang)
        XX     -91.2098     XY       4.6845     YY     -89.4027
        XZ      -7.7023     YZ      -9.0141     ZZ     -93.0283

 Total job time:  56.13s(wall), 2000.00s(cpu)
        *  Thank you very much for using Q-Chem.  Have a nice day.  *
