 Q-Chem 5.4, Q-Chem, Inc., Pleasanton, CA (2021)
 Q-Chem 5.4.0 for Intel X86 EM64T Linux

User input:
--------------------------------------------------------------
$molecule
0 1
C	-0.442451	-0.717327	1.023076
S	0.009149	0.060473	2.533776
C	0.795949	1.425273	1.750676
C	0.011649	0.069273	-0.041624
C	0.704749	1.272673	0.344776
C	-0.020151	0.010873	-1.463024
C	0.612149	1.106373	-2.083824
S	1.233049	2.188373	-0.942624
C	0.743449	1.324373	-3.536924
O	0.279249	0.514473	-4.327224
O	1.387849	2.434073	-3.981324
F	-0.573751	-0.955927	-2.223224
C	1.576049	2.739673	-5.311924
H	2.129049	3.696273	-5.347224
H	0.609749	2.847873	-5.852524
H	2.159449	1.952473	-5.838824
C	-0.442451	-2.152527	1.023076
H	-1.507451	-2.161527	0.843876
H	-0.297651	-2.836427	0.199876
H	-0.598551	-2.676927	1.954276
H	1.255949	2.221973	2.344576
$end

$rem
JOBTYPE		SP
EXCHANGE	HF
CORRELATION	pRIMP2
BASIS		cc-pvtz
METHOD		rimp2
AUX_BASIS	rimp2-cc-pvtz
SOLVENT_METHOD	PCM
PURECART	11111
SYMMETRY	false
MEM_TOTAL	110000
SCF_CONVERGENCE = 6
THRESH=10
GUI = 2
$end

$solvent
dielectric 4.90
$end
--------------------------------------------------------------

             Standard Nuclear Orientation (Angstroms)
    I     Atom           X                Y                Z
 ----------------------------------------------------------------
    1      C      -0.4424510000    -0.7173270000     1.0230760000
    2      S       0.0091490000     0.0604730000     2.5337760000
    3      C       0.7959490000     1.4252730000     1.7506760000
    4      C       0.0116490000     0.0692730000    -0.0416240000
    5      C       0.7047490000     1.2726730000     0.3447760000
    6      C      -0.0201510000     0.0108730000    -1.4630240000
    7      C       0.6121490000     1.1063730000    -2.0838240000
    8      S       1.2330490000     2.1883730000    -0.9426240000
    9      C       0.7434490000     1.3243730000    -3.5369240000
   10      O       0.2792490000     0.5144730000    -4.3272240000
   11      O       1.3878490000     2.4340730000    -3.9813240000
   12      F      -0.5737510000    -0.9559270000    -2.2232240000
   13      C       1.5760490000     2.7396730000    -5.3119240000
   14      H       2.1290490000     3.6962730000    -5.3472240000
   15      H       0.6097490000     2.8478730000    -5.8525240000
   16      H       2.1594490000     1.9524730000    -5.8388240000
   17      C      -0.4424510000    -2.1525270000     1.0230760000
   18      H      -1.5074510000    -2.1615270000     0.8438760000
   19      H      -0.2976510000    -2.8364270000     0.1998760000
   20      H      -0.5985510000    -2.6769270000     1.9542760000
   21      H       1.2559490000     2.2219730000     2.3445760000
 ----------------------------------------------------------------

   11   -1389.2332012121      5.11e-07  Convergence criterion met
 Total energy in the final basis set =    -1389.2332012121
        RIMP2         total energy =     -1391.7432389609 a.u.

                    Orbital Energies (a.u.)
 --------------------------------------------------------------

 Alpha MOs
 -- Occupied --
-92.0054 -91.9897 -26.3341 -20.6099 -20.5464 -11.4070 -11.3757 -11.3087
-11.2918 -11.2898 -11.2874 -11.2816 -11.2695 -11.2288  -9.0043  -8.9939
 -6.6851  -6.6844  -6.6840  -6.6752  -6.6745  -6.6732  -1.6471  -1.4694
 -1.3644  -1.2271  -1.1469  -1.0665  -1.0273  -1.0052  -0.9679  -0.9106
 -0.8632  -0.7958  -0.7848  -0.7667  -0.7259  -0.7150  -0.6955  -0.6772
 -0.6767  -0.6679  -0.6079  -0.6036  -0.5941  -0.5873  -0.5816  -0.5586
 -0.5360  -0.5223  -0.5171  -0.4948  -0.4796  -0.4602  -0.4577  -0.4531
 -0.3867  -0.3458  -0.2727

          Ground-State Mulliken Net Atomic Charges

     Atom                 Charge (a.u.)
  ----------------------------------------
      1 C                     0.023510
      2 S                     0.094230
      3 C                    -0.260769
      4 C                    -0.098568
      5 C                    -0.006929
      6 C                     0.370223
      7 C                    -0.163415
      8 S                     0.032114
      9 C                     0.456955
     10 O                    -0.456354
     11 O                    -0.298803
     12 F                    -0.211655
     13 C                    -0.054861
     14 H                     0.116152
     15 H                     0.083730
     16 H                     0.083717
     17 C                    -0.377942
     18 H                     0.142512
     19 H                     0.170074
     20 H                     0.146258
     21 H                     0.209822
  ----------------------------------------
  Sum of atomic charges =     0.000000

                    Cartesian Multipole Moments
 -----------------------------------------------------------------
    Charge (ESU x 10^10)
                -0.0000
    Dipole Moment (Debye)
         X       0.6200      Y       0.4792      Z       3.5131
       Tot       3.5994
    Quadrupole Moments (Debye-Ang)
        XX     -93.7322     XY       6.1400     YY     -84.7527
        XZ      -6.0933     YZ     -10.3750     ZZ     -96.4389

 Total job time:  53.29s(wall), 1907.38s(cpu)
        *  Thank you very much for using Q-Chem.  Have a nice day.  *
