 Q-Chem 5.4, Q-Chem, Inc., Pleasanton, CA (2021)
 Q-Chem 5.4.0 for Intel X86 EM64T Linux

User input:
--------------------------------------------------------------
$molecule
0 1
C	-0.447100	-0.717327	1.022358
S	0.004500	0.060473	2.533058
C	0.791300	1.425273	1.749958
C	0.007000	0.069273	-0.042342
C	0.700100	1.272673	0.344058
C	-0.024800	0.010873	-1.463742
C	0.607500	1.106373	-2.084542
S	1.228400	2.188373	-0.943342
C	0.738800	1.324373	-3.537642
O	0.274600	0.514473	-4.327942
O	1.383200	2.434073	-3.982042
F	-0.578400	-0.955927	-2.223942
C	1.571400	2.739673	-5.312642
H	2.124400	3.696273	-5.347942
H	0.605100	2.847873	-5.853242
H	2.154800	1.952473	-5.839542
C	-0.447100	-2.152527	1.022358
H	0.570600	-2.161527	1.383758
H	-0.732600	-2.836427	1.807958
H	-0.131700	-2.676927	0.132458
H	1.251300	2.221973	2.343858
$end

$rem
JOBTYPE		SP
EXCHANGE	HF
CORRELATION	pRIMP2
BASIS		cc-pvtz
METHOD		rimp2
AUX_BASIS	rimp2-cc-pvtz
SOLVENT_METHOD	PCM
PURECART	11111
SYMMETRY	false
MEM_TOTAL	110000
SCF_CONVERGENCE = 6
THRESH=10
GUI = 2
$end

$solvent
dielectric 4.90
$end
--------------------------------------------------------------

             Standard Nuclear Orientation (Angstroms)
    I     Atom           X                Y                Z
 ----------------------------------------------------------------
    1      C      -0.4471000000    -0.7173270000     1.0223580000
    2      S       0.0045000000     0.0604730000     2.5330580000
    3      C       0.7913000000     1.4252730000     1.7499580000
    4      C       0.0070000000     0.0692730000    -0.0423420000
    5      C       0.7001000000     1.2726730000     0.3440580000
    6      C      -0.0248000000     0.0108730000    -1.4637420000
    7      C       0.6075000000     1.1063730000    -2.0845420000
    8      S       1.2284000000     2.1883730000    -0.9433420000
    9      C       0.7388000000     1.3243730000    -3.5376420000
   10      O       0.2746000000     0.5144730000    -4.3279420000
   11      O       1.3832000000     2.4340730000    -3.9820420000
   12      F      -0.5784000000    -0.9559270000    -2.2239420000
   13      C       1.5714000000     2.7396730000    -5.3126420000
   14      H       2.1244000000     3.6962730000    -5.3479420000
   15      H       0.6051000000     2.8478730000    -5.8532420000
   16      H       2.1548000000     1.9524730000    -5.8395420000
   17      C      -0.4471000000    -2.1525270000     1.0223580000
   18      H       0.5706000000    -2.1615270000     1.3837580000
   19      H      -0.7326000000    -2.8364270000     1.8079580000
   20      H      -0.1317000000    -2.6769270000     0.1324580000
   21      H       1.2513000000     2.2219730000     2.3438580000
 ----------------------------------------------------------------

   11   -1389.2402908689      4.74e-07  Convergence criterion met
 Total energy in the final basis set =    -1389.2402908689
        RIMP2         total energy =     -1391.7469994745 a.u.

                    Orbital Energies (a.u.)
 --------------------------------------------------------------

 Alpha MOs
 -- Occupied --
-92.0028 -91.9890 -26.3340 -20.6099 -20.5464 -11.4070 -11.3766 -11.3144
-11.2918 -11.2897 -11.2875 -11.2813 -11.2697 -11.2337  -9.0022  -8.9933
 -6.6831  -6.6824  -6.6819  -6.6746  -6.6739  -6.6726  -1.6470  -1.4695
 -1.3644  -1.2283  -1.1499  -1.0674  -1.0282  -1.0046  -0.9682  -0.9087
 -0.8636  -0.7965  -0.7847  -0.7674  -0.7266  -0.7148  -0.6959  -0.6769
 -0.6767  -0.6679  -0.6097  -0.6038  -0.6012  -0.5871  -0.5778  -0.5601
 -0.5360  -0.5266  -0.5172  -0.4933  -0.4790  -0.4605  -0.4579  -0.4547
 -0.3912  -0.3468  -0.2730

          Ground-State Mulliken Net Atomic Charges

     Atom                 Charge (a.u.)
  ----------------------------------------
      1 C                     0.067956
      2 S                     0.077648
      3 C                    -0.260720
      4 C                    -0.128863
      5 C                    -0.008736
      6 C                     0.371045
      7 C                    -0.164018
      8 S                     0.029125
      9 C                     0.458183
     10 O                    -0.456253
     11 O                    -0.298851
     12 F                    -0.210534
     13 C                    -0.054840
     14 H                     0.116148
     15 H                     0.083870
     16 H                     0.083663
     17 C                    -0.373010
     18 H                     0.150271
     19 H                     0.162793
     20 H                     0.145014
     21 H                     0.210112
  ----------------------------------------
  Sum of atomic charges =     0.000000

                    Cartesian Multipole Moments
 -----------------------------------------------------------------
    Charge (ESU x 10^10)
                -0.0000
    Dipole Moment (Debye)
         X       1.9719      Y       0.2903      Z       3.7864
       Tot       4.2790
    Quadrupole Moments (Debye-Ang)
        XX     -94.9132     XY       2.9769     YY     -84.5862
        XZ      -4.8556     YZ     -11.5597     ZZ     -96.0591

 Total job time:  55.14s(wall), 1953.09s(cpu)
        *  Thank you very much for using Q-Chem.  Have a nice day.  *
