 Q-Chem 5.4, Q-Chem, Inc., Pleasanton, CA (2021)
 Q-Chem 5.4.0 for Intel X86 EM64T Linux

User input:
--------------------------------------------------------------
$molecule
0 1
C	-0.154315	-0.823218	1.024825
S	0.004085	0.062182	2.535525
C	0.276585	1.613782	1.752425
C	0.003385	0.071182	-0.039875
C	0.243085	1.439182	0.346525
C	-0.006515	0.005582	-1.461275
C	0.212985	1.251182	-2.082075
S	0.426285	2.480282	-0.940875
C	0.261785	1.500982	-3.535175
O	0.102585	0.581182	-4.325475
O	0.487785	2.764082	-3.979575
F	-0.196115	-1.092318	-2.221475
C	0.560085	3.115582	-5.310175
H	0.752485	4.203682	-5.345475
H	-0.385015	2.886882	-5.850775
H	1.377585	2.575482	-5.837075
C	-0.154315	-2.258418	1.024825
H	-0.701615	-2.267418	0.093825
H	0.569385	-2.942318	0.606625
H	-0.967915	-2.782818	1.503825
H	0.436385	2.519782	2.346325
$end

$rem
JOBTYPE		SP
EXCHANGE	HF
CORRELATION	pRIMP2
BASIS		cc-pvtz
METHOD		rimp2
AUX_BASIS	rimp2-cc-pvtz
SOLVENT_METHOD	PCM
PURECART	11111
SYMMETRY	false
MEM_TOTAL	110000
SCF_CONVERGENCE = 6
THRESH=10
GUI = 2
$end

$solvent
dielectric 4.90
$end
--------------------------------------------------------------

             Standard Nuclear Orientation (Angstroms)
    I     Atom           X                Y                Z
 ----------------------------------------------------------------
    1      C      -0.1543150000    -0.8232180000     1.0248250000
    2      S       0.0040850000     0.0621820000     2.5355250000
    3      C       0.2765850000     1.6137820000     1.7524250000
    4      C       0.0033850000     0.0711820000    -0.0398750000
    5      C       0.2430850000     1.4391820000     0.3465250000
    6      C      -0.0065150000     0.0055820000    -1.4612750000
    7      C       0.2129850000     1.2511820000    -2.0820750000
    8      S       0.4262850000     2.4802820000    -0.9408750000
    9      C       0.2617850000     1.5009820000    -3.5351750000
   10      O       0.1025850000     0.5811820000    -4.3254750000
   11      O       0.4877850000     2.7640820000    -3.9795750000
   12      F      -0.1961150000    -1.0923180000    -2.2214750000
   13      C       0.5600850000     3.1155820000    -5.3101750000
   14      H       0.7524850000     4.2036820000    -5.3454750000
   15      H      -0.3850150000     2.8868820000    -5.8507750000
   16      H       1.3775850000     2.5754820000    -5.8370750000
   17      C      -0.1543150000    -2.2584180000     1.0248250000
   18      H      -0.7016150000    -2.2674180000     0.0938250000
   19      H       0.5693850000    -2.9423180000     0.6066250000
   20      H      -0.9679150000    -2.7828180000     1.5038250000
   21      H       0.4363850000     2.5197820000     2.3463250000
 ----------------------------------------------------------------

   11   -1389.2531610125      4.92e-07  Convergence criterion met
 Total energy in the final basis set =    -1389.2531610125
        RIMP2         total energy =     -1391.7601483878 a.u.

                    Orbital Energies (a.u.)
 --------------------------------------------------------------

 Alpha MOs
 -- Occupied --
-92.0046 -91.9905 -26.3351 -20.6106 -20.5476 -11.4081 -11.3765 -11.3099
-11.2919 -11.2917 -11.2878 -11.2823 -11.2724 -11.2288  -9.0034  -8.9946
 -6.6842  -6.6836  -6.6832  -6.6759  -6.6752  -6.6739  -1.6483  -1.4703
 -1.3653  -1.2276  -1.1453  -1.0676  -1.0270  -1.0064  -0.9684  -0.9116
 -0.8635  -0.7957  -0.7859  -0.7668  -0.7264  -0.7161  -0.6973  -0.6785
 -0.6774  -0.6688  -0.6089  -0.6044  -0.5963  -0.5879  -0.5784  -0.5681
 -0.5441  -0.5244  -0.5055  -0.4820  -0.4775  -0.4619  -0.4600  -0.4545
 -0.3947  -0.3455  -0.2802

          Ground-State Mulliken Net Atomic Charges

     Atom                 Charge (a.u.)
  ----------------------------------------
      1 C                     0.042240
      2 S                     0.082927
      3 C                    -0.256604
      4 C                    -0.102739
      5 C                    -0.010955
      6 C                     0.384496
      7 C                    -0.157231
      8 S                     0.029603
      9 C                     0.458766
     10 O                    -0.455066
     11 O                    -0.298283
     12 F                    -0.214217
     13 C                    -0.054933
     14 H                     0.116312
     15 H                     0.083938
     16 H                     0.083923
     17 C                    -0.367619
     18 H                     0.121679
     19 H                     0.155455
     20 H                     0.148087
     21 H                     0.210221
  ----------------------------------------
  Sum of atomic charges =     0.000000

                    Cartesian Multipole Moments
 -----------------------------------------------------------------
    Charge (ESU x 10^10)
                -0.0000
    Dipole Moment (Debye)
         X       0.1239      Y       0.9588      Z       2.9163
       Tot       3.0724
    Quadrupole Moments (Debye-Ang)
        XX     -95.6344     XY       2.6466     YY     -82.3643
        XZ      -2.4723     YZ     -10.6060     ZZ     -97.5408

 Total job time:  54.16s(wall), 1932.00s(cpu)
        *  Thank you very much for using Q-Chem.  Have a nice day.  *
