 Q-Chem 5.4, Q-Chem, Inc., Pleasanton, CA (2021)
 Q-Chem 5.4.0 for Intel X86 EM64T Linux

User input:
--------------------------------------------------------------
$molecule
0 1
C	-0.770936	-0.392188	1.022358
S	0.009064	0.055612	2.533058
C	1.372864	0.844212	1.749958
C	0.015564	0.061912	-0.042342
C	1.217564	0.757612	0.344058
C	-0.041036	0.027312	-1.463742
C	1.054264	0.659812	-2.084542
S	2.132964	1.286512	-0.943342
C	1.276964	0.783012	-3.537642
O	0.470064	0.313712	-4.327942
O	2.389864	1.421812	-3.982042
F	-1.003936	-0.533088	-2.223942
C	2.705564	1.592412	-5.312642
H	3.662764	2.144312	-5.347942
H	1.922864	2.169312	-5.853242
H	2.817264	0.618912	-5.839542
C	-0.770936	-1.827388	1.022358
H	0.246764	-1.836388	1.383758
H	-1.056436	-2.511288	1.807958
H	-0.455536	-2.351788	0.132458
H	2.169664	1.304112	2.343858
$end

$rem
JOBTYPE		SP
EXCHANGE	HF
CORRELATION	pRIMP2
BASIS		cc-pvtz
METHOD		rimp2
AUX_BASIS	rimp2-cc-pvtz
SOLVENT_METHOD	PCM
PURECART	11111
SYMMETRY	false
MEM_TOTAL	110000
SCF_CONVERGENCE = 6
THRESH=10
GUI = 2
$end

$solvent
dielectric 4.90
$end
--------------------------------------------------------------

             Standard Nuclear Orientation (Angstroms)
    I     Atom           X                Y                Z
 ----------------------------------------------------------------
    1      C      -0.7709360000    -0.3921880000     1.0223580000
    2      S       0.0090640000     0.0556120000     2.5330580000
    3      C       1.3728640000     0.8442120000     1.7499580000
    4      C       0.0155640000     0.0619120000    -0.0423420000
    5      C       1.2175640000     0.7576120000     0.3440580000
    6      C      -0.0410360000     0.0273120000    -1.4637420000
    7      C       1.0542640000     0.6598120000    -2.0845420000
    8      S       2.1329640000     1.2865120000    -0.9433420000
    9      C       1.2769640000     0.7830120000    -3.5376420000
   10      O       0.4700640000     0.3137120000    -4.3279420000
   11      O       2.3898640000     1.4218120000    -3.9820420000
   12      F      -1.0039360000    -0.5330880000    -2.2239420000
   13      C       2.7055640000     1.5924120000    -5.3126420000
   14      H       3.6627640000     2.1443120000    -5.3479420000
   15      H       1.9228640000     2.1693120000    -5.8532420000
   16      H       2.8172640000     0.6189120000    -5.8395420000
   17      C      -0.7709360000    -1.8273880000     1.0223580000
   18      H       0.2467640000    -1.8363880000     1.3837580000
   19      H      -1.0564360000    -2.5112880000     1.8079580000
   20      H      -0.4555360000    -2.3517880000     0.1324580000
   21      H       2.1696640000     1.3041120000     2.3438580000
 ----------------------------------------------------------------

   11   -1389.1795585395      7.34e-07  Convergence criterion met
 Total energy in the final basis set =    -1389.1795585395
        RIMP2         total energy =     -1391.7033456721 a.u.

                    Orbital Energies (a.u.)
 --------------------------------------------------------------

 Alpha MOs
 -- Occupied --
-91.9997 -91.9979 -26.3338 -20.6136 -20.5529 -11.4126 -11.3756 -11.3103
-11.3028 -11.2959 -11.2893 -11.2825 -11.2809 -11.2236  -9.0018  -9.0002
 -6.6830  -6.6824  -6.6810  -6.6808  -6.6800  -6.6798  -1.6468  -1.4735
 -1.3692  -1.2372  -1.1594  -1.0713  -1.0323  -1.0011  -0.9720  -0.9025
 -0.8682  -0.7992  -0.7877  -0.7737  -0.7301  -0.7156  -0.6977  -0.6798
 -0.6766  -0.6729  -0.6107  -0.6087  -0.6063  -0.5929  -0.5661  -0.5615
 -0.5342  -0.5284  -0.5199  -0.4948  -0.4832  -0.4629  -0.4626  -0.4368
 -0.3857  -0.3458  -0.2791

          Ground-State Mulliken Net Atomic Charges

     Atom                 Charge (a.u.)
  ----------------------------------------
      1 C                    -0.072599
      2 S                     0.089459
      3 C                    -0.187774
      4 C                    -0.042007
      5 C                    -0.030151
      6 C                     0.361888
      7 C                    -0.141665
      8 S                     0.051470
      9 C                     0.457141
     10 O                    -0.445298
     11 O                    -0.297347
     12 F                    -0.209922
     13 C                    -0.054735
     14 H                     0.116959
     15 H                     0.085140
     16 H                     0.084698
     17 C                    -0.366283
     18 H                     0.108605
     19 H                     0.147374
     20 H                     0.129740
     21 H                     0.215308
  ----------------------------------------
  Sum of atomic charges =     0.000000

                    Cartesian Multipole Moments
 -----------------------------------------------------------------
    Charge (ESU x 10^10)
                -0.0000
    Dipole Moment (Debye)
         X       4.4388      Y       0.6728      Z       3.0594
       Tot       5.4328
    Quadrupole Moments (Debye-Ang)
        XX     -90.2932     XY       4.5145     YY     -90.9399
        XZ      -7.9988     YZ      -6.7834     ZZ     -93.6134

 Total job time:  55.23s(wall), 1971.36s(cpu)
        *  Thank you very much for using Q-Chem.  Have a nice day.  *
