 Q-Chem 5.4, Q-Chem, Inc., Pleasanton, CA (2021)
 Q-Chem 5.4.0 for Intel X86 EM64T Linux

User input:
--------------------------------------------------------------
$molecule
0 1
C	-0.002359	-0.836989	1.025213
S	-0.000159	0.062411	2.535913
C	-0.001159	1.637711	1.752813
C	-0.002359	0.071211	-0.039487
C	-0.003859	1.460011	0.346913
C	-0.000759	0.004811	-1.460887
C	-0.000859	1.269711	-2.081687
S	-0.004159	2.517211	-0.940487
C	0.003841	1.524111	-3.534787
O	0.006841	0.590611	-4.325087
O	0.007041	2.807311	-3.979187
F	0.003141	-1.109289	-2.221087
C	0.017241	3.166011	-5.309787
H	0.017841	4.271011	-5.345087
H	-0.873759	2.776711	-5.850387
H	0.916141	2.776111	-5.836687
C	-0.002359	-2.272189	1.025213
H	0.359041	-2.281189	0.007513
H	0.783241	-2.956089	1.310713
H	-0.892259	-2.796589	0.709813
H	-0.001159	2.557811	2.346713
$end

$rem
JOBTYPE		SP
EXCHANGE	HF
CORRELATION	pRIMP2
BASIS		cc-pvtz
METHOD		rimp2
AUX_BASIS	rimp2-cc-pvtz
SOLVENT_METHOD	PCM
PURECART	11111
SYMMETRY	false
MEM_TOTAL	110000
SCF_CONVERGENCE = 6
THRESH=10
GUI = 2
$end

$solvent
dielectric 4.90
$end
--------------------------------------------------------------

             Standard Nuclear Orientation (Angstroms)
    I     Atom           X                Y                Z
 ----------------------------------------------------------------
    1      C      -0.0023590000    -0.8369890000     1.0252130000
    2      S      -0.0001590000     0.0624110000     2.5359130000
    3      C      -0.0011590000     1.6377110000     1.7528130000
    4      C      -0.0023590000     0.0712110000    -0.0394870000
    5      C      -0.0038590000     1.4600110000     0.3469130000
    6      C      -0.0007590000     0.0048110000    -1.4608870000
    7      C      -0.0008590000     1.2697110000    -2.0816870000
    8      S      -0.0041590000     2.5172110000    -0.9404870000
    9      C       0.0038410000     1.5241110000    -3.5347870000
   10      O       0.0068410000     0.5906110000    -4.3250870000
   11      O       0.0070410000     2.8073110000    -3.9791870000
   12      F       0.0031410000    -1.1092890000    -2.2210870000
   13      C       0.0172410000     3.1660110000    -5.3097870000
   14      H       0.0178410000     4.2710110000    -5.3450870000
   15      H      -0.8737590000     2.7767110000    -5.8503870000
   16      H       0.9161410000     2.7761110000    -5.8366870000
   17      C      -0.0023590000    -2.2721890000     1.0252130000
   18      H       0.3590410000    -2.2811890000     0.0075130000
   19      H       0.7832410000    -2.9560890000     1.3107130000
   20      H      -0.8922590000    -2.7965890000     0.7098130000
   21      H      -0.0011590000     2.5578110000     2.3467130000
 ----------------------------------------------------------------

   11   -1389.2547207598      4.90e-07  Convergence criterion met
 Total energy in the final basis set =    -1389.2547207598
        RIMP2         total energy =     -1391.7614892340 a.u.

                    Orbital Energies (a.u.)
 --------------------------------------------------------------

 Alpha MOs
 -- Occupied --
-92.0042 -91.9905 -26.3356 -20.6108 -20.5478 -11.4083 -11.3767 -11.3105
-11.2922 -11.2916 -11.2879 -11.2821 -11.2731 -11.2288  -9.0031  -8.9947
 -6.6838  -6.6832  -6.6828  -6.6760  -6.6753  -6.6740  -1.6488  -1.4704
 -1.3655  -1.2278  -1.1452  -1.0680  -1.0269  -1.0065  -0.9685  -0.9117
 -0.8636  -0.7959  -0.7864  -0.7669  -0.7267  -0.7166  -0.6975  -0.6783
 -0.6775  -0.6691  -0.6093  -0.6046  -0.5976  -0.5877  -0.5808  -0.5685
 -0.5441  -0.5246  -0.5046  -0.4817  -0.4729  -0.4633  -0.4603  -0.4545
 -0.3963  -0.3454  -0.2813

          Ground-State Mulliken Net Atomic Charges

     Atom                 Charge (a.u.)
  ----------------------------------------
      1 C                     0.049044
      2 S                     0.081577
      3 C                    -0.256280
      4 C                    -0.101088
      5 C                    -0.011941
      6 C                     0.383383
      7 C                    -0.151492
      8 S                     0.029315
      9 C                     0.458292
     10 O                    -0.454910
     11 O                    -0.298281
     12 F                    -0.214414
     13 C                    -0.055007
     14 H                     0.116400
     15 H                     0.084028
     16 H                     0.083918
     17 C                    -0.372983
     18 H                     0.119522
     19 H                     0.161841
     20 H                     0.138913
     21 H                     0.210165
  ----------------------------------------
  Sum of atomic charges =     0.000000

                    Cartesian Multipole Moments
 -----------------------------------------------------------------
    Charge (ESU x 10^10)
                -0.0000
    Dipole Moment (Debye)
         X       0.2180      Y       1.0039      Z       2.8387
       Tot       3.0189
    Quadrupole Moments (Debye-Ang)
        XX     -95.9363     XY      -0.6413     YY     -82.0094
        XZ       0.4058     YZ     -10.7639     ZZ     -97.7037

 Total job time:  55.25s(wall), 1980.43s(cpu)
        *  Thank you very much for using Q-Chem.  Have a nice day.  *
