 Q-Chem 5.4, Q-Chem, Inc., Pleasanton, CA (2021)
 Q-Chem 5.4.0 for Intel X86 EM64T Linux

User input:
--------------------------------------------------------------
$molecule
0 1
C	-0.677994	-0.518946	1.022261
S	0.012406	0.057454	2.532961
C	1.218506	1.070954	1.749861
C	0.017706	0.064854	-0.042439
C	1.080606	0.958754	0.343961
C	-0.032094	0.020954	-1.463839
C	0.936806	0.834054	-2.084639
S	1.890306	1.638454	-0.943439
C	1.134706	0.994054	-3.537739
O	0.421506	0.391754	-4.328039
O	2.119806	1.816354	-3.982139
F	-0.882994	-0.698246	-2.224039
C	2.401106	2.039154	-5.312739
H	3.247906	2.748954	-5.348039
H	1.530106	2.471454	-5.853339
H	2.680106	1.099854	-5.839639
C	-0.677994	-1.954146	1.022261
H	-1.740094	-1.963146	1.218161
H	-0.823494	-2.638046	0.199161
H	-0.506194	-2.478546	1.950661
H	1.923306	1.662254	2.343761
$end

$rem
JOBTYPE		SP
EXCHANGE	HF
CORRELATION	pRIMP2
BASIS		cc-pvtz
METHOD		rimp2
AUX_BASIS	rimp2-cc-pvtz
SOLVENT_METHOD	PCM
PURECART	11111
SYMMETRY	false
MEM_TOTAL	110000
SCF_CONVERGENCE = 6
THRESH=10
GUI = 2
$end

$solvent
dielectric 4.90
$end
--------------------------------------------------------------

             Standard Nuclear Orientation (Angstroms)
    I     Atom           X                Y                Z
 ----------------------------------------------------------------
    1      C      -0.6779940000    -0.5189460000     1.0222610000
    2      S       0.0124060000     0.0574540000     2.5329610000
    3      C       1.2185060000     1.0709540000     1.7498610000
    4      C       0.0177060000     0.0648540000    -0.0424390000
    5      C       1.0806060000     0.9587540000     0.3439610000
    6      C      -0.0320940000     0.0209540000    -1.4638390000
    7      C       0.9368060000     0.8340540000    -2.0846390000
    8      S       1.8903060000     1.6384540000    -0.9434390000
    9      C       1.1347060000     0.9940540000    -3.5377390000
   10      O       0.4215060000     0.3917540000    -4.3280390000
   11      O       2.1198060000     1.8163540000    -3.9821390000
   12      F      -0.8829940000    -0.6982460000    -2.2240390000
   13      C       2.4011060000     2.0391540000    -5.3127390000
   14      H       3.2479060000     2.7489540000    -5.3480390000
   15      H       1.5301060000     2.4714540000    -5.8533390000
   16      H       2.6801060000     1.0998540000    -5.8396390000
   17      C      -0.6779940000    -1.9541460000     1.0222610000
   18      H      -1.7400940000    -1.9631460000     1.2181610000
   19      H      -0.8234940000    -2.6380460000     0.1991610000
   20      H      -0.5061940000    -2.4785460000     1.9506610000
   21      H       1.9233060000     1.6622540000     2.3437610000
 ----------------------------------------------------------------

   11   -1389.1940607356      7.38e-07  Convergence criterion met
 Total energy in the final basis set =    -1389.1940607356
        RIMP2         total energy =     -1391.7152332274 a.u.

                    Orbital Energies (a.u.)
 --------------------------------------------------------------

 Alpha MOs
 -- Occupied --
-92.0043 -91.9944 -26.3331 -20.6120 -20.5504 -11.4103 -11.3737 -11.2988
-11.2978 -11.2925 -11.2885 -11.2843 -11.2755 -11.2178  -9.0037  -8.9984
 -6.6844  -6.6836  -6.6833  -6.6796  -6.6790  -6.6777  -1.6461  -1.4718
 -1.3673  -1.2304  -1.1499  -1.0662  -1.0294  -1.0022  -0.9697  -0.9072
 -0.8658  -0.7966  -0.7859  -0.7700  -0.7275  -0.7147  -0.6951  -0.6785
 -0.6744  -0.6703  -0.6078  -0.6062  -0.5943  -0.5908  -0.5769  -0.5593
 -0.5313  -0.5211  -0.5152  -0.4942  -0.4816  -0.4616  -0.4606  -0.4449
 -0.3794  -0.3445  -0.2752

          Ground-State Mulliken Net Atomic Charges

     Atom                 Charge (a.u.)
  ----------------------------------------
      1 C                    -0.079082
      2 S                     0.097630
      3 C                    -0.209309
      4 C                    -0.031513
      5 C                    -0.020521
      6 C                     0.361967
      7 C                    -0.149390
      8 S                     0.043660
      9 C                     0.456623
     10 O                    -0.449429
     11 O                    -0.297740
     12 F                    -0.211605
     13 C                    -0.054634
     14 H                     0.116599
     15 H                     0.084446
     16 H                     0.084315
     17 C                    -0.390728
     18 H                     0.134587
     19 H                     0.159710
     20 H                     0.141022
     21 H                     0.213392
  ----------------------------------------
  Sum of atomic charges =     0.000000

                    Cartesian Multipole Moments
 -----------------------------------------------------------------
    Charge (ESU x 10^10)
                -0.0000
    Dipole Moment (Debye)
         X       2.3917      Y       0.9152      Z       3.3641
       Tot       4.2279
    Quadrupole Moments (Debye-Ang)
        XX     -90.4447     XY       6.7536     YY     -89.0320
        XZ      -8.0569     YZ      -7.8569     ZZ     -94.2518

 Total job time:  61.30s(wall), 2011.89s(cpu)
        *  Thank you very much for using Q-Chem.  Have a nice day.  *
