 Q-Chem 5.4, Q-Chem, Inc., Pleasanton, CA (2021)
 Q-Chem 5.4.0 for Intel X86 EM64T Linux

User input:
--------------------------------------------------------------
$molecule
0 1
C	0.000496	-0.836989	1.023483
S	0.002696	0.062411	2.534183
C	0.001696	1.637711	1.751083
C	0.000496	0.071211	-0.041217
C	-0.001004	1.460011	0.345183
C	0.002096	0.004811	-1.462617
C	0.001996	1.269711	-2.083417
S	-0.001304	2.517211	-0.942217
C	0.006696	1.524111	-3.536517
O	0.009696	0.590611	-4.326817
O	0.009896	2.807311	-3.980917
F	0.005996	-1.109289	-2.222817
C	0.020096	3.166011	-5.311517
H	0.020696	4.271011	-5.346817
H	-0.870904	2.776711	-5.852117
H	0.918996	2.776111	-5.838417
C	0.000496	-2.272189	1.023483
H	-1.017204	-2.281189	0.662083
H	0.285996	-2.956089	0.237883
H	-0.314904	-2.796589	1.913383
H	0.001696	2.557811	2.344983
$end

$rem
JOBTYPE		SP
EXCHANGE	HF
CORRELATION	pRIMP2
BASIS		cc-pvtz
METHOD		rimp2
AUX_BASIS	rimp2-cc-pvtz
SOLVENT_METHOD	PCM
PURECART	11111
SYMMETRY	false
MEM_TOTAL	110000
SCF_CONVERGENCE = 6
THRESH=10
GUI = 2
$end

$solvent
dielectric 4.90
$end
--------------------------------------------------------------

             Standard Nuclear Orientation (Angstroms)
    I     Atom           X                Y                Z
 ----------------------------------------------------------------
    1      C       0.0004960000    -0.8369890000     1.0234830000
    2      S       0.0026960000     0.0624110000     2.5341830000
    3      C       0.0016960000     1.6377110000     1.7510830000
    4      C       0.0004960000     0.0712110000    -0.0412170000
    5      C      -0.0010040000     1.4600110000     0.3451830000
    6      C       0.0020960000     0.0048110000    -1.4626170000
    7      C       0.0019960000     1.2697110000    -2.0834170000
    8      S      -0.0013040000     2.5172110000    -0.9422170000
    9      C       0.0066960000     1.5241110000    -3.5365170000
   10      O       0.0096960000     0.5906110000    -4.3268170000
   11      O       0.0098960000     2.8073110000    -3.9809170000
   12      F       0.0059960000    -1.1092890000    -2.2228170000
   13      C       0.0200960000     3.1660110000    -5.3115170000
   14      H       0.0206960000     4.2710110000    -5.3468170000
   15      H      -0.8709040000     2.7767110000    -5.8521170000
   16      H       0.9189960000     2.7761110000    -5.8384170000
   17      C       0.0004960000    -2.2721890000     1.0234830000
   18      H      -1.0172040000    -2.2811890000     0.6620830000
   19      H       0.2859960000    -2.9560890000     0.2378830000
   20      H      -0.3149040000    -2.7965890000     1.9133830000
   21      H       0.0016960000     2.5578110000     2.3449830000
 ----------------------------------------------------------------

   11   -1389.2571909637      4.24e-07  Convergence criterion met
 Total energy in the final basis set =    -1389.2571909637
        RIMP2         total energy =     -1391.7595022766 a.u.

                    Orbital Energies (a.u.)
 --------------------------------------------------------------

 Alpha MOs
 -- Occupied --
-92.0074 -91.9878 -26.3346 -20.6090 -20.5446 -11.4055 -11.3766 -11.3209
-11.2915 -11.2870 -11.2862 -11.2735 -11.2660 -11.2360  -9.0060  -8.9921
 -6.6868  -6.6862  -6.6857  -6.6734  -6.6727  -6.6713  -1.6475  -1.4684
 -1.3631  -1.2259  -1.1465  -1.0677  -1.0267  -1.0067  -0.9673  -0.9116
 -0.8623  -0.7956  -0.7843  -0.7654  -0.7256  -0.7151  -0.6973  -0.6783
 -0.6760  -0.6669  -0.6102  -0.6026  -0.5921  -0.5874  -0.5850  -0.5606
 -0.5384  -0.5231  -0.5144  -0.4942  -0.4783  -0.4630  -0.4586  -0.4562
 -0.3900  -0.3467  -0.2726

          Ground-State Mulliken Net Atomic Charges

     Atom                 Charge (a.u.)
  ----------------------------------------
      1 C                     0.053037
      2 S                     0.087113
      3 C                    -0.282378
      4 C                    -0.105914
      5 C                    -0.005413
      6 C                     0.396161
      7 C                    -0.173203
      8 S                     0.022539
      9 C                     0.460623
     10 O                    -0.460071
     11 O                    -0.299192
     12 F                    -0.214505
     13 C                    -0.055022
     14 H                     0.115902
     15 H                     0.083431
     16 H                     0.083444
     17 C                    -0.380946
     18 H                     0.147249
     19 H                     0.170566
     20 H                     0.147387
     21 H                     0.209191
  ----------------------------------------
  Sum of atomic charges =     0.000000

                    Cartesian Multipole Moments
 -----------------------------------------------------------------
    Charge (ESU x 10^10)
                -0.0000
    Dipole Moment (Debye)
         X      -0.7213      Y       0.1356      Z       3.5750
       Tot       3.6496
    Quadrupole Moments (Debye-Ang)
        XX     -96.5364     XY       1.8147     YY     -81.7151
        XZ      -0.9801     YZ     -11.9163     ZZ     -97.4558

 Total job time:  65.26s(wall), 2607.30s(cpu)
        *  Thank you very much for using Q-Chem.  Have a nice day.  *
