 Q-Chem 5.4, Q-Chem, Inc., Pleasanton, CA (2021)
 Q-Chem 5.4.0 for Intel X86 EM64T Linux

User input:
--------------------------------------------------------------
$molecule
0 1
C	-0.228879	-0.806326	1.023483
S	0.006021	0.061874	2.534183
C	0.412721	1.583774	1.751083
C	0.006121	0.070974	-0.041217
C	0.364121	1.412774	0.345183
C	-0.009379	0.006374	-1.462617
C	0.317821	1.228174	-2.083417
S	0.637421	2.434074	-0.942217
C	0.388221	1.472774	-3.536517
O	0.149421	0.570274	-4.326817
O	0.723421	2.711374	-3.980917
F	-0.293979	-1.070726	-2.222817
C	0.826121	3.055274	-5.311517
H	1.112621	4.122374	-5.346817
H	-0.135279	2.909774	-5.852117
H	1.593421	2.445874	-5.838417
C	-0.228879	-2.241526	1.023483
H	-1.246579	-2.250526	0.662083
H	0.056621	-2.925426	0.237883
H	-0.544279	-2.765926	1.913383
H	0.650921	2.472474	2.344983
$end

$rem
JOBTYPE		SP
EXCHANGE	HF
CORRELATION	pRIMP2
BASIS		cc-pvtz
METHOD		rimp2
AUX_BASIS	rimp2-cc-pvtz
SOLVENT_METHOD	PCM
PURECART	11111
SYMMETRY	false
MEM_TOTAL	110000
SCF_CONVERGENCE = 6
THRESH=10
GUI = 2
$end

$solvent
dielectric 4.90
$end
--------------------------------------------------------------

             Standard Nuclear Orientation (Angstroms)
    I     Atom           X                Y                Z
 ----------------------------------------------------------------
    1      C      -0.2288790000    -0.8063260000     1.0234830000
    2      S       0.0060210000     0.0618740000     2.5341830000
    3      C       0.4127210000     1.5837740000     1.7510830000
    4      C       0.0061210000     0.0709740000    -0.0412170000
    5      C       0.3641210000     1.4127740000     0.3451830000
    6      C      -0.0093790000     0.0063740000    -1.4626170000
    7      C       0.3178210000     1.2281740000    -2.0834170000
    8      S       0.6374210000     2.4340740000    -0.9422170000
    9      C       0.3882210000     1.4727740000    -3.5365170000
   10      O       0.1494210000     0.5702740000    -4.3268170000
   11      O       0.7234210000     2.7113740000    -3.9809170000
   12      F      -0.2939790000    -1.0707260000    -2.2228170000
   13      C       0.8261210000     3.0552740000    -5.3115170000
   14      H       1.1126210000     4.1223740000    -5.3468170000
   15      H      -0.1352790000     2.9097740000    -5.8521170000
   16      H       1.5934210000     2.4458740000    -5.8384170000
   17      C      -0.2288790000    -2.2415260000     1.0234830000
   18      H      -1.2465790000    -2.2505260000     0.6620830000
   19      H       0.0566210000    -2.9254260000     0.2378830000
   20      H      -0.5442790000    -2.7659260000     1.9133830000
   21      H       0.6509210000     2.4724740000     2.3449830000
 ----------------------------------------------------------------

   11   -1389.2504863217      4.51e-07  Convergence criterion met
 Total energy in the final basis set =    -1389.2504863217
        RIMP2         total energy =     -1391.7552488452 a.u.

                    Orbital Energies (a.u.)
 --------------------------------------------------------------

 Alpha MOs
 -- Occupied --
-92.0064 -91.9884 -26.3345 -20.6093 -20.5452 -11.4060 -11.3764 -11.3168
-11.2916 -11.2874 -11.2871 -11.2761 -11.2675 -11.2333  -9.0052  -8.9926
 -6.6860  -6.6853  -6.6849  -6.6739  -6.6732  -6.6719  -1.6475  -1.4687
 -1.3635  -1.2262  -1.1462  -1.0672  -1.0268  -1.0064  -0.9675  -0.9116
 -0.8625  -0.7956  -0.7845  -0.7658  -0.7257  -0.7152  -0.6966  -0.6780
 -0.6762  -0.6672  -0.6092  -0.6029  -0.5931  -0.5859  -0.5846  -0.5601
 -0.5391  -0.5229  -0.5141  -0.4939  -0.4788  -0.4607  -0.4579  -0.4562
 -0.3894  -0.3463  -0.2730

          Ground-State Mulliken Net Atomic Charges

     Atom                 Charge (a.u.)
  ----------------------------------------
      1 C                     0.048487
      2 S                     0.090796
      3 C                    -0.275785
      4 C                    -0.109925
      5 C                    -0.005391
      6 C                     0.382604
      7 C                    -0.168633
      8 S                     0.025916
      9 C                     0.459011
     10 O                    -0.458702
     11 O                    -0.299003
     12 F                    -0.213192
     13 C                    -0.054902
     14 H                     0.116004
     15 H                     0.083543
     16 H                     0.083488
     17 C                    -0.375668
     18 H                     0.144690
     19 H                     0.171586
     20 H                     0.146097
     21 H                     0.208981
  ----------------------------------------
  Sum of atomic charges =     0.000000

                    Cartesian Multipole Moments
 -----------------------------------------------------------------
    Charge (ESU x 10^10)
                -0.0000
    Dipole Moment (Debye)
         X      -0.1196      Y       0.2933      Z       3.5033
       Tot       3.5175
    Quadrupole Moments (Debye-Ang)
        XX     -95.5979     XY       4.2840     YY     -82.5569
        XZ      -3.7116     YZ     -11.4232     ZZ     -97.2289

 Total job time:  59.49s(wall), 2345.63s(cpu)
        *  Thank you very much for using Q-Chem.  Have a nice day.  *
