 Q-Chem 5.4, Q-Chem, Inc., Pleasanton, CA (2021)
 Q-Chem 5.4.0 for Intel X86 EM64T Linux

User input:
--------------------------------------------------------------
$molecule
0 1
C	-0.766939	-0.392188	1.024554
S	0.013061	0.055612	2.535254
C	1.376861	0.844212	1.752154
C	0.019561	0.061912	-0.040146
C	1.221561	0.757612	0.346254
C	-0.037039	0.027312	-1.461546
C	1.058261	0.659812	-2.082346
S	2.136961	1.286512	-0.941146
C	1.280961	0.783012	-3.535446
O	0.474061	0.313712	-4.325746
O	2.393861	1.421812	-3.979846
F	-0.999939	-0.533088	-2.221746
C	2.709561	1.592412	-5.310446
H	3.666761	2.144312	-5.345746
H	1.926861	2.169312	-5.851046
H	2.821261	0.618912	-5.837346
C	-0.766939	-1.827388	1.024554
H	-1.467539	-1.836388	0.202754
H	-0.126839	-2.511288	0.486954
H	-1.485039	-2.351788	1.637554
H	2.173661	1.304112	2.346054
$end

$rem
JOBTYPE		SP
EXCHANGE	HF
CORRELATION	pRIMP2
BASIS		cc-pvtz
METHOD		rimp2
AUX_BASIS	rimp2-cc-pvtz
SOLVENT_METHOD	PCM
PURECART	11111
SYMMETRY	false
MEM_TOTAL	110000
SCF_CONVERGENCE = 6
THRESH=10
GUI = 2
$end

$solvent
dielectric 4.90
$end
--------------------------------------------------------------

             Standard Nuclear Orientation (Angstroms)
    I     Atom           X                Y                Z
 ----------------------------------------------------------------
    1      C      -0.7669390000    -0.3921880000     1.0245540000
    2      S       0.0130610000     0.0556120000     2.5352540000
    3      C       1.3768610000     0.8442120000     1.7521540000
    4      C       0.0195610000     0.0619120000    -0.0401460000
    5      C       1.2215610000     0.7576120000     0.3462540000
    6      C      -0.0370390000     0.0273120000    -1.4615460000
    7      C       1.0582610000     0.6598120000    -2.0823460000
    8      S       2.1369610000     1.2865120000    -0.9411460000
    9      C       1.2809610000     0.7830120000    -3.5354460000
   10      O       0.4740610000     0.3137120000    -4.3257460000
   11      O       2.3938610000     1.4218120000    -3.9798460000
   12      F      -0.9999390000    -0.5330880000    -2.2217460000
   13      C       2.7095610000     1.5924120000    -5.3104460000
   14      H       3.6667610000     2.1443120000    -5.3457460000
   15      H       1.9268610000     2.1693120000    -5.8510460000
   16      H       2.8212610000     0.6189120000    -5.8373460000
   17      C      -0.7669390000    -1.8273880000     1.0245540000
   18      H      -1.4675390000    -1.8363880000     0.2027540000
   19      H      -0.1268390000    -2.5112880000     0.4869540000
   20      H      -1.4850390000    -2.3517880000     1.6375540000
   21      H       2.1736610000     1.3041120000     2.3460540000
 ----------------------------------------------------------------

   11   -1389.1829506614      8.69e-07  Convergence criterion met
 Total energy in the final basis set =    -1389.1829506614
        RIMP2         total energy =     -1391.7074110914 a.u.

                    Orbital Energies (a.u.)
 --------------------------------------------------------------

 Alpha MOs
 -- Occupied --
-92.0017 -92.0008 -26.3336 -20.6146 -20.5549 -11.4143 -11.3742 -11.3153
-11.3069 -11.2954 -11.2899 -11.2851 -11.2620 -11.2141  -9.0053  -9.0007
 -6.6865  -6.6859  -6.6846  -6.6813  -6.6803  -6.6802  -1.6468  -1.4747
 -1.3707  -1.2356  -1.1527  -1.0706  -1.0305  -1.0011  -0.9719  -0.9061
 -0.8677  -0.7971  -0.7885  -0.7727  -0.7296  -0.7159  -0.6980  -0.6807
 -0.6761  -0.6738  -0.6097  -0.6068  -0.6027  -0.5922  -0.5671  -0.5629
 -0.5373  -0.5254  -0.5131  -0.4860  -0.4819  -0.4643  -0.4634  -0.4279
 -0.3822  -0.3430  -0.2887

          Ground-State Mulliken Net Atomic Charges

     Atom                 Charge (a.u.)
  ----------------------------------------
      1 C                    -0.131264
      2 S                     0.107198
      3 C                    -0.163319
      4 C                    -0.024606
      5 C                    -0.036471
      6 C                     0.367390
      7 C                    -0.131880
      8 S                     0.062202
      9 C                     0.456853
     10 O                    -0.442127
     11 O                    -0.296821
     12 F                    -0.211572
     13 C                    -0.054741
     14 H                     0.117247
     15 H                     0.085401
     16 H                     0.085041
     17 C                    -0.392431
     18 H                     0.112630
     19 H                     0.143037
     20 H                     0.133352
     21 H                     0.214881
  ----------------------------------------
  Sum of atomic charges =     0.000000

                    Cartesian Multipole Moments
 -----------------------------------------------------------------
    Charge (ESU x 10^10)
                -0.0000
    Dipole Moment (Debye)
         X       4.1647      Y       1.2827      Z       2.3299
       Tot       4.9415
    Quadrupole Moments (Debye-Ang)
        XX     -88.3738     XY       6.0210     YY     -91.2209
        XZ      -8.5125     YZ      -5.0625     ZZ     -94.1516

 Total job time:  53.98s(wall), 1958.31s(cpu)
        *  Thank you very much for using Q-Chem.  Have a nice day.  *
