 Q-Chem 5.4, Q-Chem, Inc., Pleasanton, CA (2021)
 Q-Chem 5.4.0 for Intel X86 EM64T Linux

User input:
--------------------------------------------------------------
$molecule
0 1
C	-0.766287	-0.392188	1.023076
S	0.013713	0.055612	2.533776
C	1.377513	0.844212	1.750676
C	0.020213	0.061912	-0.041624
C	1.222213	0.757612	0.344776
C	-0.036387	0.027312	-1.463024
C	1.058913	0.659812	-2.083824
S	2.137613	1.286512	-0.942624
C	1.281613	0.783012	-3.536924
O	0.474713	0.313712	-4.327224
O	2.394513	1.421812	-3.981324
F	-0.999287	-0.533088	-2.223224
C	2.710213	1.592412	-5.311924
H	3.667413	2.144312	-5.347224
H	1.927513	2.169312	-5.852524
H	2.821913	0.618912	-5.838824
C	-0.766287	-1.827388	1.023076
H	-1.831287	-1.836388	0.843876
H	-0.621487	-2.511288	0.199876
H	-0.922387	-2.351788	1.954276
H	2.174313	1.304112	2.344576
$end

$rem
JOBTYPE		SP
EXCHANGE	HF
CORRELATION	pRIMP2
BASIS		cc-pvtz
METHOD		rimp2
AUX_BASIS	rimp2-cc-pvtz
SOLVENT_METHOD	PCM
PURECART	11111
SYMMETRY	false
MEM_TOTAL	110000
SCF_CONVERGENCE = 6
THRESH=10
GUI = 2
$end

$solvent
dielectric 4.90
$end
--------------------------------------------------------------

             Standard Nuclear Orientation (Angstroms)
    I     Atom           X                Y                Z
 ----------------------------------------------------------------
    1      C      -0.7662870000    -0.3921880000     1.0230760000
    2      S       0.0137130000     0.0556120000     2.5337760000
    3      C       1.3775130000     0.8442120000     1.7506760000
    4      C       0.0202130000     0.0619120000    -0.0416240000
    5      C       1.2222130000     0.7576120000     0.3447760000
    6      C      -0.0363870000     0.0273120000    -1.4630240000
    7      C       1.0589130000     0.6598120000    -2.0838240000
    8      S       2.1376130000     1.2865120000    -0.9426240000
    9      C       1.2816130000     0.7830120000    -3.5369240000
   10      O       0.4747130000     0.3137120000    -4.3272240000
   11      O       2.3945130000     1.4218120000    -3.9813240000
   12      F      -0.9992870000    -0.5330880000    -2.2232240000
   13      C       2.7102130000     1.5924120000    -5.3119240000
   14      H       3.6674130000     2.1443120000    -5.3472240000
   15      H       1.9275130000     2.1693120000    -5.8525240000
   16      H       2.8219130000     0.6189120000    -5.8388240000
   17      C      -0.7662870000    -1.8273880000     1.0230760000
   18      H      -1.8312870000    -1.8363880000     0.8438760000
   19      H      -0.6214870000    -2.5112880000     0.1998760000
   20      H      -0.9223870000    -2.3517880000     1.9542760000
   21      H       2.1743130000     1.3041120000     2.3445760000
 ----------------------------------------------------------------

   11   -1389.1701041320      9.67e-07  Convergence criterion met
 Total energy in the final basis set =    -1389.1701041320
        RIMP2         total energy =     -1391.6964499309 a.u.

                    Orbital Energies (a.u.)
 --------------------------------------------------------------

 Alpha MOs
 -- Occupied --
-92.0019 -91.9993 -26.3330 -20.6137 -20.5535 -11.4130 -11.3730 -11.3110
-11.3043 -11.2938 -11.2894 -11.2822 -11.2652 -11.2121  -9.0030  -9.0017
 -6.6842  -6.6836  -6.6823  -6.6823  -6.6812  -6.6812  -1.6462  -1.4738
 -1.3696  -1.2338  -1.1522  -1.0682  -1.0304  -1.0008  -0.9711  -0.9053
 -0.8674  -0.7972  -0.7873  -0.7723  -0.7289  -0.7152  -0.6966  -0.6799
 -0.6747  -0.6724  -0.6085  -0.6078  -0.5971  -0.5931  -0.5673  -0.5597
 -0.5354  -0.5206  -0.5154  -0.4951  -0.4833  -0.4631  -0.4628  -0.4351
 -0.3733  -0.3431  -0.2781

          Ground-State Mulliken Net Atomic Charges

     Atom                 Charge (a.u.)
  ----------------------------------------
      1 C                    -0.121762
      2 S                     0.108130
      3 C                    -0.175793
      4 C                    -0.020972
      5 C                    -0.031325
      6 C                     0.354164
      7 C                    -0.135607
      8 S                     0.057514
      9 C                     0.456285
     10 O                    -0.444133
     11 O                    -0.297022
     12 F                    -0.211541
     13 C                    -0.054757
     14 H                     0.117040
     15 H                     0.085130
     16 H                     0.084790
     17 C                    -0.404233
     18 H                     0.133816
     19 H                     0.152656
     20 H                     0.133360
     21 H                     0.214260
  ----------------------------------------
  Sum of atomic charges =     0.000000

                    Cartesian Multipole Moments
 -----------------------------------------------------------------
    Charge (ESU x 10^10)
                -0.0000
    Dipole Moment (Debye)
         X       3.6657      Y       0.9820      Z       2.8329
       Tot       4.7357
    Quadrupole Moments (Debye-Ang)
        XX     -88.6913     XY       6.3120     YY     -91.2136
        XZ      -8.7871     YZ      -5.8225     ZZ     -93.4033

 Total job time:  54.33s(wall), 1972.81s(cpu)
        *  Thank you very much for using Q-Chem.  Have a nice day.  *
