 Q-Chem 5.4, Q-Chem, Inc., Pleasanton, CA (2021)
 Q-Chem 5.4.0 for Intel X86 EM64T Linux

User input:
--------------------------------------------------------------
$molecule
0 1
C	-0.570555	-0.628442	1.025187
S	0.009345	0.059158	2.535887
C	1.021045	1.266558	1.752787
C	0.013245	0.067358	-0.039513
C	0.904745	1.132158	0.346887
C	-0.028155	0.015358	-1.460913
C	0.784745	0.984358	-2.081713
S	1.584045	1.942158	-0.940513
C	0.951845	1.176358	-3.534813
O	0.354145	0.459358	-4.325113
O	1.779145	2.157258	-3.979213
F	-0.741355	-0.840542	-2.221113
C	2.017545	2.425458	-5.309813
H	2.728245	3.271558	-5.345113
H	1.084745	2.699958	-5.850413
H	2.455445	1.548958	-5.836713
C	-0.570555	-2.063642	1.025187
H	-0.766455	-2.072642	-0.036913
H	0.252545	-2.747542	0.879687
H	-1.498955	-2.588042	1.196987
H	1.612545	1.971358	2.346687
$end

$rem
JOBTYPE		SP
EXCHANGE	HF
CORRELATION	pRIMP2
BASIS		cc-pvtz
METHOD		rimp2
AUX_BASIS	rimp2-cc-pvtz
SOLVENT_METHOD	PCM
PURECART	11111
SYMMETRY	false
MEM_TOTAL	110000
SCF_CONVERGENCE = 6
THRESH=10
GUI = 2
$end

$solvent
dielectric 4.90
$end
--------------------------------------------------------------

             Standard Nuclear Orientation (Angstroms)
    I     Atom           X                Y                Z
 ----------------------------------------------------------------
    1      C      -0.5705550000    -0.6284420000     1.0251870000
    2      S       0.0093450000     0.0591580000     2.5358870000
    3      C       1.0210450000     1.2665580000     1.7527870000
    4      C       0.0132450000     0.0673580000    -0.0395130000
    5      C       0.9047450000     1.1321580000     0.3468870000
    6      C      -0.0281550000     0.0153580000    -1.4609130000
    7      C       0.7847450000     0.9843580000    -2.0817130000
    8      S       1.5840450000     1.9421580000    -0.9405130000
    9      C       0.9518450000     1.1763580000    -3.5348130000
   10      O       0.3541450000     0.4593580000    -4.3251130000
   11      O       1.7791450000     2.1572580000    -3.9792130000
   12      F      -0.7413550000    -0.8405420000    -2.2211130000
   13      C       2.0175450000     2.4254580000    -5.3098130000
   14      H       2.7282450000     3.2715580000    -5.3451130000
   15      H       1.0847450000     2.6999580000    -5.8504130000
   16      H       2.4554450000     1.5489580000    -5.8367130000
   17      C      -0.5705550000    -2.0636420000     1.0251870000
   18      H      -0.7664550000    -2.0726420000    -0.0369130000
   19      H       0.2525450000    -2.7475420000     0.8796870000
   20      H      -1.4989550000    -2.5880420000     1.1969870000
   21      H       1.6125450000     1.9713580000     2.3466870000
 ----------------------------------------------------------------

   11   -1389.2228197965      6.45e-07  Convergence criterion met
 Total energy in the final basis set =    -1389.2228197965
        RIMP2         total energy =     -1391.7397352984 a.u.

                    Orbital Energies (a.u.)
 --------------------------------------------------------------

 Alpha MOs
 -- Occupied --
-92.0024 -91.9956 -26.3351 -20.6128 -20.5516 -11.4114 -11.3755 -11.2998
-11.2985 -11.2929 -11.2889 -11.2875 -11.2789 -11.2205  -9.0018  -8.9995
 -6.6824  -6.6817  -6.6815  -6.6808  -6.6801  -6.6788  -1.6484  -1.4727
 -1.3683  -1.2313  -1.1480  -1.0688  -1.0283  -1.0034  -0.9702  -0.9091
 -0.8656  -0.7964  -0.7878  -0.7697  -0.7280  -0.7168  -0.6972  -0.6792
 -0.6772  -0.6716  -0.6072  -0.6050  -0.6007  -0.5910  -0.5778  -0.5647
 -0.5396  -0.5264  -0.5081  -0.4835  -0.4723  -0.4626  -0.4616  -0.4407
 -0.3953  -0.3439  -0.2872

          Ground-State Mulliken Net Atomic Charges

     Atom                 Charge (a.u.)
  ----------------------------------------
      1 C                    -0.041323
      2 S                     0.094105
      3 C                    -0.212611
      4 C                    -0.065776
      5 C                    -0.017917
      6 C                     0.353227
      7 C                    -0.138864
      8 S                     0.046306
      9 C                     0.456496
     10 O                    -0.448081
     11 O                    -0.297452
     12 F                    -0.211408
     13 C                    -0.054594
     14 H                     0.116812
     15 H                     0.084706
     16 H                     0.084447
     17 C                    -0.351663
     18 H                     0.107696
     19 H                     0.155036
     20 H                     0.128671
     21 H                     0.212188
  ----------------------------------------
  Sum of atomic charges =     0.000000

                    Cartesian Multipole Moments
 -----------------------------------------------------------------
    Charge (ESU x 10^10)
                -0.0000
    Dipole Moment (Debye)
         X       2.4434      Y       1.5097      Z       2.5031
       Tot       3.8098
    Quadrupole Moments (Debye-Ang)
        XX     -91.9032     XY       5.4787     YY     -87.0050
        XZ      -6.3536     YZ      -7.6857     ZZ     -96.2165

 Total job time:  54.27s(wall), 1928.18s(cpu)
        *  Thank you very much for using Q-Chem.  Have a nice day.  *
