 Q-Chem 5.4, Q-Chem, Inc., Pleasanton, CA (2021)
 Q-Chem 5.4.0 for Intel X86 EM64T Linux

User input:
--------------------------------------------------------------
$molecule
0 1
C	-0.303191	-0.782911	1.024554
S	0.006509	0.061489	2.535254
C	0.544309	1.542189	1.752154
C	0.007409	0.070589	-0.040146
C	0.481009	1.376089	0.346254
C	-0.013691	0.007589	-1.461546
C	0.418709	1.196189	-2.082346
S	0.842309	2.369589	-0.941146
C	0.510209	1.433689	-3.535446
O	0.193709	0.555489	-4.325746
O	0.952109	2.638389	-3.979846
F	-0.391091	-1.040711	-2.221746
C	1.084309	2.971989	-5.310446
H	1.462809	4.010189	-5.345746
H	0.113909	2.910889	-5.851046
H	1.795609	2.298089	-5.837346
C	-0.303191	-2.218111	1.024554
H	-1.003791	-2.227111	0.202754
H	0.336909	-2.902011	0.486954
H	-1.021291	-2.742511	1.637554
H	0.859009	2.406689	2.346054
$end

$rem
JOBTYPE		SP
EXCHANGE	HF
CORRELATION	pRIMP2
BASIS		cc-pvtz
METHOD		rimp2
AUX_BASIS	rimp2-cc-pvtz
SOLVENT_METHOD	PCM
PURECART	11111
SYMMETRY	false
MEM_TOTAL	110000
SCF_CONVERGENCE = 6
THRESH=10
GUI = 2
$end

$solvent
dielectric 4.90
$end
--------------------------------------------------------------

             Standard Nuclear Orientation (Angstroms)
    I     Atom           X                Y                Z
 ----------------------------------------------------------------
    1      C      -0.3031910000    -0.7829110000     1.0245540000
    2      S       0.0065090000     0.0614890000     2.5352540000
    3      C       0.5443090000     1.5421890000     1.7521540000
    4      C       0.0074090000     0.0705890000    -0.0401460000
    5      C       0.4810090000     1.3760890000     0.3462540000
    6      C      -0.0136910000     0.0075890000    -1.4615460000
    7      C       0.4187090000     1.1961890000    -2.0823460000
    8      S       0.8423090000     2.3695890000    -0.9411460000
    9      C       0.5102090000     1.4336890000    -3.5354460000
   10      O       0.1937090000     0.5554890000    -4.3257460000
   11      O       0.9521090000     2.6383890000    -3.9798460000
   12      F      -0.3910910000    -1.0407110000    -2.2217460000
   13      C       1.0843090000     2.9719890000    -5.3104460000
   14      H       1.4628090000     4.0101890000    -5.3457460000
   15      H       0.1139090000     2.9108890000    -5.8510460000
   16      H       1.7956090000     2.2980890000    -5.8373460000
   17      C      -0.3031910000    -2.2181110000     1.0245540000
   18      H      -1.0037910000    -2.2271110000     0.2027540000
   19      H       0.3369090000    -2.9020110000     0.4869540000
   20      H      -1.0212910000    -2.7425110000     1.6375540000
   21      H       0.8590090000     2.4066890000     2.3460540000
 ----------------------------------------------------------------

   11   -1389.2470107910      5.07e-07  Convergence criterion met
 Total energy in the final basis set =    -1389.2470107910
        RIMP2         total energy =     -1391.7555880308 a.u.

                    Orbital Energies (a.u.)
 --------------------------------------------------------------

 Alpha MOs
 -- Occupied --
-92.0044 -91.9908 -26.3347 -20.6106 -20.5476 -11.4081 -11.3763 -11.3077
-11.2921 -11.2920 -11.2878 -11.2834 -11.2724 -11.2282  -9.0034  -8.9949
 -6.6841  -6.6834  -6.6831  -6.6762  -6.6756  -6.6742  -1.6478  -1.4702
 -1.3653  -1.2278  -1.1456  -1.0673  -1.0271  -1.0059  -0.9684  -0.9113
 -0.8636  -0.7957  -0.7857  -0.7669  -0.7263  -0.7158  -0.6969  -0.6782
 -0.6774  -0.6687  -0.6083  -0.6044  -0.5963  -0.5882  -0.5775  -0.5658
 -0.5433  -0.5243  -0.5069  -0.4846  -0.4798  -0.4610  -0.4594  -0.4531
 -0.3926  -0.3455  -0.2789

          Ground-State Mulliken Net Atomic Charges

     Atom                 Charge (a.u.)
  ----------------------------------------
      1 C                     0.030021
      2 S                     0.087446
      3 C                    -0.252457
      4 C                    -0.101675
      5 C                    -0.012630
      6 C                     0.376483
      7 C                    -0.158816
      8 S                     0.031332
      9 C                     0.458142
     10 O                    -0.454721
     11 O                    -0.298362
     12 F                    -0.213183
     13 C                    -0.054784
     14 H                     0.116273
     15 H                     0.084004
     16 H                     0.083844
     17 C                    -0.367235
     18 H                     0.127320
     19 H                     0.162634
     20 H                     0.146477
     21 H                     0.209888
  ----------------------------------------
  Sum of atomic charges =     0.000000

                    Cartesian Multipole Moments
 -----------------------------------------------------------------
    Charge (ESU x 10^10)
                -0.0000
    Dipole Moment (Debye)
         X       0.5181      Y       0.9105      Z       2.9750
       Tot       3.1540
    Quadrupole Moments (Debye-Ang)
        XX     -94.7975     XY       4.4182     YY     -83.3337
        XZ      -4.3130     YZ     -10.2238     ZZ     -97.2840

 Total job time:  54.66s(wall), 1989.73s(cpu)
        *  Thank you very much for using Q-Chem.  Have a nice day.  *
