 Q-Chem 5.4, Q-Chem, Inc., Pleasanton, CA (2021)
 Q-Chem 5.4.0 for Intel X86 EM64T Linux

User input:
--------------------------------------------------------------
$molecule
0 1
C	-0.447074	-0.717327	1.023580
S	0.004526	0.060473	2.534280
C	0.791326	1.425273	1.751180
C	0.007026	0.069273	-0.041120
C	0.700126	1.272673	0.345280
C	-0.024774	0.010873	-1.462520
C	0.607526	1.106373	-2.083320
S	1.228426	2.188373	-0.942120
C	0.738826	1.324373	-3.536420
O	0.274626	0.514473	-4.326720
O	1.383226	2.434073	-3.980820
F	-0.578374	-0.955927	-2.222720
C	1.571426	2.739673	-5.311420
H	2.124426	3.696273	-5.346720
H	0.605126	2.847873	-5.852020
H	2.154826	1.952473	-5.838320
C	-0.447074	-2.152527	1.023580
H	0.615026	-2.161527	0.827680
H	-0.301574	-2.836427	1.846680
H	-0.618874	-2.676927	0.095180
H	1.251326	2.221973	2.345080
$end

$rem
JOBTYPE		SP
EXCHANGE	HF
CORRELATION	pRIMP2
BASIS		cc-pvtz
METHOD		rimp2
AUX_BASIS	rimp2-cc-pvtz
SOLVENT_METHOD	PCM
PURECART	11111
SYMMETRY	false
MEM_TOTAL	110000
SCF_CONVERGENCE = 6
THRESH=10
GUI = 2
$end

$solvent
dielectric 4.90
$end
--------------------------------------------------------------

             Standard Nuclear Orientation (Angstroms)
    I     Atom           X                Y                Z
 ----------------------------------------------------------------
    1      C      -0.4470740000    -0.7173270000     1.0235800000
    2      S       0.0045260000     0.0604730000     2.5342800000
    3      C       0.7913260000     1.4252730000     1.7511800000
    4      C       0.0070260000     0.0692730000    -0.0411200000
    5      C       0.7001260000     1.2726730000     0.3452800000
    6      C      -0.0247740000     0.0108730000    -1.4625200000
    7      C       0.6075260000     1.1063730000    -2.0833200000
    8      S       1.2284260000     2.1883730000    -0.9421200000
    9      C       0.7388260000     1.3243730000    -3.5364200000
   10      O       0.2746260000     0.5144730000    -4.3267200000
   11      O       1.3832260000     2.4340730000    -3.9808200000
   12      F      -0.5783740000    -0.9559270000    -2.2227200000
   13      C       1.5714260000     2.7396730000    -5.3114200000
   14      H       2.1244260000     3.6962730000    -5.3467200000
   15      H       0.6051260000     2.8478730000    -5.8520200000
   16      H       2.1548260000     1.9524730000    -5.8383200000
   17      C      -0.4470740000    -2.1525270000     1.0235800000
   18      H       0.6150260000    -2.1615270000     0.8276800000
   19      H      -0.3015740000    -2.8364270000     1.8466800000
   20      H      -0.6188740000    -2.6769270000     0.0951800000
   21      H       1.2513260000     2.2219730000     2.3450800000
 ----------------------------------------------------------------

   11   -1389.2410197841      4.77e-07  Convergence criterion met
 Total energy in the final basis set =    -1389.2410197841
        RIMP2         total energy =     -1391.7485168890 a.u.

                    Orbital Energies (a.u.)
 --------------------------------------------------------------

 Alpha MOs
 -- Occupied --
-92.0063 -91.9895 -26.3344 -20.6095 -20.5456 -11.4064 -11.3765 -11.3163
-11.2927 -11.2884 -11.2873 -11.2786 -11.2673 -11.2351  -9.0052  -8.9937
 -6.6860  -6.6854  -6.6850  -6.6750  -6.6743  -6.6730  -1.6474  -1.4690
 -1.3639  -1.2281  -1.1496  -1.0682  -1.0269  -1.0050  -0.9680  -0.9093
 -0.8630  -0.7959  -0.7849  -0.7667  -0.7263  -0.7152  -0.6964  -0.6773
 -0.6765  -0.6677  -0.6095  -0.6032  -0.6000  -0.5873  -0.5845  -0.5601
 -0.5306  -0.5241  -0.5163  -0.4957  -0.4790  -0.4617  -0.4585  -0.4569
 -0.3883  -0.3470  -0.2725

          Ground-State Mulliken Net Atomic Charges

     Atom                 Charge (a.u.)
  ----------------------------------------
      1 C                     0.044779
      2 S                     0.090617
      3 C                    -0.270469
      4 C                    -0.105674
      5 C                    -0.006677
      6 C                     0.371818
      7 C                    -0.168643
      8 S                     0.031556
      9 C                     0.457950
     10 O                    -0.457816
     11 O                    -0.299175
     12 F                    -0.211620
     13 C                    -0.054858
     14 H                     0.116028
     15 H                     0.083728
     16 H                     0.083503
     17 C                    -0.377863
     18 H                     0.152401
     19 H                     0.168254
     20 H                     0.142609
     21 H                     0.209551
  ----------------------------------------
  Sum of atomic charges =     0.000000

                    Cartesian Multipole Moments
 -----------------------------------------------------------------
    Charge (ESU x 10^10)
                -0.0000
    Dipole Moment (Debye)
         X       1.9269      Y       0.1897      Z       3.5825
       Tot       4.0722
    Quadrupole Moments (Debye-Ang)
        XX     -95.0082     XY       2.8725     YY     -84.5335
        XZ      -4.4889     YZ     -10.7672     ZZ     -96.8257

 Total job time:  54.44s(wall), 1933.66s(cpu)
        *  Thank you very much for using Q-Chem.  Have a nice day.  *
