 Q-Chem 5.4, Q-Chem, Inc., Pleasanton, CA (2021)
 Q-Chem 5.4.0 for Intel X86 EM64T Linux

User input:
--------------------------------------------------------------
$molecule
0 1
C	-0.156272	-0.823218	1.025213
S	0.002128	0.062182	2.535913
C	0.274628	1.613782	1.752813
C	0.001428	0.071182	-0.039487
C	0.241128	1.439182	0.346913
C	-0.008472	0.005582	-1.460887
C	0.211028	1.251182	-2.081687
S	0.424328	2.480282	-0.940487
C	0.259828	1.500982	-3.534787
O	0.100628	0.581182	-4.325087
O	0.485828	2.764082	-3.979187
F	-0.198072	-1.092318	-2.221087
C	0.558128	3.115582	-5.309787
H	0.750528	4.203682	-5.345087
H	-0.386972	2.886882	-5.850387
H	1.375628	2.575482	-5.836687
C	-0.156272	-2.258418	1.025213
H	0.205128	-2.267418	0.007513
H	0.629328	-2.942318	1.310713
H	-1.046172	-2.782818	0.709813
H	0.434428	2.519782	2.346713
$end

$rem
JOBTYPE		SP
EXCHANGE	HF
CORRELATION	pRIMP2
BASIS		cc-pvtz
METHOD		rimp2
AUX_BASIS	rimp2-cc-pvtz
SOLVENT_METHOD	PCM
PURECART	11111
SYMMETRY	false
MEM_TOTAL	110000
SCF_CONVERGENCE = 6
THRESH=10
GUI = 2
$end

$solvent
dielectric 4.90
$end
--------------------------------------------------------------

             Standard Nuclear Orientation (Angstroms)
    I     Atom           X                Y                Z
 ----------------------------------------------------------------
    1      C      -0.1562720000    -0.8232180000     1.0252130000
    2      S       0.0021280000     0.0621820000     2.5359130000
    3      C       0.2746280000     1.6137820000     1.7528130000
    4      C       0.0014280000     0.0711820000    -0.0394870000
    5      C       0.2411280000     1.4391820000     0.3469130000
    6      C      -0.0084720000     0.0055820000    -1.4608870000
    7      C       0.2110280000     1.2511820000    -2.0816870000
    8      S       0.4243280000     2.4802820000    -0.9404870000
    9      C       0.2598280000     1.5009820000    -3.5347870000
   10      O       0.1006280000     0.5811820000    -4.3250870000
   11      O       0.4858280000     2.7640820000    -3.9791870000
   12      F      -0.1980720000    -1.0923180000    -2.2210870000
   13      C       0.5581280000     3.1155820000    -5.3097870000
   14      H       0.7505280000     4.2036820000    -5.3450870000
   15      H      -0.3869720000     2.8868820000    -5.8503870000
   16      H       1.3756280000     2.5754820000    -5.8366870000
   17      C      -0.1562720000    -2.2584180000     1.0252130000
   18      H       0.2051280000    -2.2674180000     0.0075130000
   19      H       0.6293280000    -2.9423180000     1.3107130000
   20      H      -1.0461720000    -2.7828180000     0.7098130000
   21      H       0.4344280000     2.5197820000     2.3467130000
 ----------------------------------------------------------------

   11   -1389.2520883640      4.97e-07  Convergence criterion met
 Total energy in the final basis set =    -1389.2520883640
        RIMP2         total energy =     -1391.7596191151 a.u.

                    Orbital Energies (a.u.)
 --------------------------------------------------------------

 Alpha MOs
 -- Occupied --
-92.0046 -91.9908 -26.3356 -20.6109 -20.5480 -11.4084 -11.3766 -11.3095
-11.2926 -11.2917 -11.2879 -11.2827 -11.2730 -11.2283  -9.0034  -8.9950
 -6.6842  -6.6835  -6.6832  -6.6762  -6.6756  -6.6742  -1.6488  -1.4705
 -1.3656  -1.2280  -1.1455  -1.0681  -1.0269  -1.0062  -0.9686  -0.9114
 -0.8637  -0.7958  -0.7864  -0.7670  -0.7267  -0.7166  -0.6974  -0.6783
 -0.6776  -0.6692  -0.6088  -0.6046  -0.5975  -0.5881  -0.5826  -0.5672
 -0.5431  -0.5248  -0.5047  -0.4819  -0.4710  -0.4645  -0.4604  -0.4552
 -0.3957  -0.3453  -0.2815

          Ground-State Mulliken Net Atomic Charges

     Atom                 Charge (a.u.)
  ----------------------------------------
      1 C                     0.042726
      2 S                     0.083553
      3 C                    -0.254608
      4 C                    -0.095447
      5 C                    -0.012472
      6 C                     0.372151
      7 C                    -0.148446
      8 S                     0.030893
      9 C                     0.457631
     10 O                    -0.454413
     11 O                    -0.298202
     12 F                    -0.213712
     13 C                    -0.054935
     14 H                     0.116402
     15 H                     0.084033
     16 H                     0.083937
     17 C                    -0.371509
     18 H                     0.121574
     19 H                     0.161124
     20 H                     0.139533
     21 H                     0.210187
  ----------------------------------------
  Sum of atomic charges =     0.000000

                    Cartesian Multipole Moments
 -----------------------------------------------------------------
    Charge (ESU x 10^10)
                -0.0000
    Dipole Moment (Debye)
         X       0.7093      Y       1.0319      Z       2.8355
       Tot       3.0997
    Quadrupole Moments (Debye-Ang)
        XX     -95.7190     XY       1.0958     YY     -82.4052
        XZ      -1.3557     YZ     -10.5824     ZZ     -97.5796

 Total job time:  53.53s(wall), 1921.56s(cpu)
        *  Thank you very much for using Q-Chem.  Have a nice day.  *
