 Q-Chem 5.4, Q-Chem, Inc., Pleasanton, CA (2021)
 Q-Chem 5.4.0 for Intel X86 EM64T Linux

User input:
--------------------------------------------------------------
$molecule
0 1
C	-0.770803	-0.392188	1.021968
S	0.009197	0.055612	2.532668
C	1.372997	0.844212	1.749568
C	0.015697	0.061912	-0.042732
C	1.217697	0.757612	0.343668
C	-0.040903	0.027312	-1.464132
C	1.054397	0.659812	-2.084932
S	2.133097	1.286512	-0.943732
C	1.277097	0.783012	-3.538032
O	0.470197	0.313712	-4.328332
O	2.389997	1.421812	-3.982432
F	-1.003803	-0.533088	-2.224332
C	2.705697	1.592412	-5.313032
H	3.662897	2.144312	-5.348332
H	1.922997	2.169312	-5.853632
H	2.817397	0.618912	-5.839932
C	-0.770803	-1.827388	1.021968
H	0.168697	-1.836388	1.554568
H	-1.188403	-2.511288	1.746068
H	-0.305703	-2.351788	0.200368
H	2.169797	1.304112	2.343468
$end

$rem
JOBTYPE		SP
EXCHANGE	HF
CORRELATION	pRIMP2
BASIS		cc-pvtz
METHOD		rimp2
AUX_BASIS	rimp2-cc-pvtz
SOLVENT_METHOD	PCM
PURECART	11111
SYMMETRY	false
MEM_TOTAL	110000
SCF_CONVERGENCE = 6
THRESH=10
GUI = 2
$end

$solvent
dielectric 4.90
$end
--------------------------------------------------------------

             Standard Nuclear Orientation (Angstroms)
    I     Atom           X                Y                Z
 ----------------------------------------------------------------
    1      C      -0.7708030000    -0.3921880000     1.0219680000
    2      S       0.0091970000     0.0556120000     2.5326680000
    3      C       1.3729970000     0.8442120000     1.7495680000
    4      C       0.0156970000     0.0619120000    -0.0427320000
    5      C       1.2176970000     0.7576120000     0.3436680000
    6      C      -0.0409030000     0.0273120000    -1.4641320000
    7      C       1.0543970000     0.6598120000    -2.0849320000
    8      S       2.1330970000     1.2865120000    -0.9437320000
    9      C       1.2770970000     0.7830120000    -3.5380320000
   10      O       0.4701970000     0.3137120000    -4.3283320000
   11      O       2.3899970000     1.4218120000    -3.9824320000
   12      F      -1.0038030000    -0.5330880000    -2.2243320000
   13      C       2.7056970000     1.5924120000    -5.3130320000
   14      H       3.6628970000     2.1443120000    -5.3483320000
   15      H       1.9229970000     2.1693120000    -5.8536320000
   16      H       2.8173970000     0.6189120000    -5.8399320000
   17      C      -0.7708030000    -1.8273880000     1.0219680000
   18      H       0.1686970000    -1.8363880000     1.5545680000
   19      H      -1.1884030000    -2.5112880000     1.7460680000
   20      H      -0.3057030000    -2.3517880000     0.2003680000
   21      H       2.1697970000     1.3041120000     2.3434680000
 ----------------------------------------------------------------

   11   -1389.1748058826      7.80e-07  Convergence criterion met
 Total energy in the final basis set =    -1389.1748058826
        RIMP2         total energy =     -1391.6986783724 a.u.

                    Orbital Energies (a.u.)
 --------------------------------------------------------------

 Alpha MOs
 -- Occupied --
-91.9980 -91.9980 -26.3337 -20.6140 -20.5537 -11.4132 -11.3754 -11.3115
-11.3044 -11.2951 -11.2895 -11.2831 -11.2793 -11.2202  -9.0019  -8.9989
 -6.6831  -6.6825  -6.6812  -6.6794  -6.6786  -6.6784  -1.6467  -1.4740
 -1.3698  -1.2372  -1.1594  -1.0709  -1.0331  -1.0009  -0.9723  -0.9016
 -0.8688  -0.7995  -0.7878  -0.7742  -0.7303  -0.7156  -0.6978  -0.6801
 -0.6762  -0.6731  -0.6108  -0.6084  -0.6064  -0.5928  -0.5653  -0.5602
 -0.5376  -0.5288  -0.5191  -0.4934  -0.4832  -0.4634  -0.4630  -0.4335
 -0.3872  -0.3440  -0.2794

          Ground-State Mulliken Net Atomic Charges

     Atom                 Charge (a.u.)
  ----------------------------------------
      1 C                    -0.068302
      2 S                     0.084409
      3 C                    -0.181810
      4 C                    -0.046063
      5 C                    -0.031703
      6 C                     0.361854
      7 C                    -0.138597
      8 S                     0.050571
      9 C                     0.457089
     10 O                    -0.443758
     11 O                    -0.297007
     12 F                    -0.209586
     13 C                    -0.054722
     14 H                     0.117078
     15 H                     0.085278
     16 H                     0.084851
     17 C                    -0.373228
     18 H                     0.115174
     19 H                     0.143097
     20 H                     0.129714
     21 H                     0.215660
  ----------------------------------------
  Sum of atomic charges =     0.000000

                    Cartesian Multipole Moments
 -----------------------------------------------------------------
    Charge (ESU x 10^10)
                -0.0000
    Dipole Moment (Debye)
         X       4.5481      Y       0.7587      Z       3.0409
       Tot       5.5234
    Quadrupole Moments (Debye-Ang)
        XX     -90.1582     XY       4.4319     YY     -91.1337
        XZ      -8.1040     YZ      -7.0162     ZZ     -93.2218

 Total job time:  54.58s(wall), 1961.69s(cpu)
        *  Thank you very much for using Q-Chem.  Have a nice day.  *
