 Q-Chem 5.4, Q-Chem, Inc., Pleasanton, CA (2021)
 Q-Chem 5.4.0 for Intel X86 EM64T Linux

User input:
--------------------------------------------------------------
$molecule
0 1
C	-0.155147	-0.823218	1.020627
S	0.003253	0.062182	2.531327
C	0.275753	1.613782	1.748227
C	0.002553	0.071182	-0.044073
C	0.242253	1.439182	0.342327
C	-0.007347	0.005582	-1.465473
C	0.212153	1.251182	-2.086273
S	0.425453	2.480282	-0.945073
C	0.260953	1.500982	-3.539373
O	0.101753	0.581182	-4.329673
O	0.486953	2.764082	-3.983773
F	-0.196947	-1.092318	-2.225673
C	0.559253	3.115582	-5.314373
H	0.751653	4.203682	-5.349673
H	-0.385847	2.886882	-5.854973
H	1.376753	2.575482	-5.841273
C	-0.155147	-2.258418	1.020627
H	-0.516547	-2.267418	2.038327
H	-0.940747	-2.942318	0.735127
H	0.734753	-2.782818	1.336027
H	0.435553	2.519782	2.342127
$end

$rem
JOBTYPE		SP
EXCHANGE	HF
CORRELATION	pRIMP2
BASIS		cc-pvtz
METHOD		rimp2
AUX_BASIS	rimp2-cc-pvtz
SOLVENT_METHOD	PCM
PURECART	11111
SYMMETRY	false
MEM_TOTAL	110000
SCF_CONVERGENCE = 6
THRESH=10
GUI = 2
$end

$solvent
dielectric 4.90
$end
--------------------------------------------------------------

             Standard Nuclear Orientation (Angstroms)
    I     Atom           X                Y                Z
 ----------------------------------------------------------------
    1      C      -0.1551470000    -0.8232180000     1.0206270000
    2      S       0.0032530000     0.0621820000     2.5313270000
    3      C       0.2757530000     1.6137820000     1.7482270000
    4      C       0.0025530000     0.0711820000    -0.0440730000
    5      C       0.2422530000     1.4391820000     0.3423270000
    6      C      -0.0073470000     0.0055820000    -1.4654730000
    7      C       0.2121530000     1.2511820000    -2.0862730000
    8      S       0.4254530000     2.4802820000    -0.9450730000
    9      C       0.2609530000     1.5009820000    -3.5393730000
   10      O       0.1017530000     0.5811820000    -4.3296730000
   11      O       0.4869530000     2.7640820000    -3.9837730000
   12      F      -0.1969470000    -1.0923180000    -2.2256730000
   13      C       0.5592530000     3.1155820000    -5.3143730000
   14      H       0.7516530000     4.2036820000    -5.3496730000
   15      H      -0.3858470000     2.8868820000    -5.8549730000
   16      H       1.3767530000     2.5754820000    -5.8412730000
   17      C      -0.1551470000    -2.2584180000     1.0206270000
   18      H      -0.5165470000    -2.2674180000     2.0383270000
   19      H      -0.9407470000    -2.9423180000     0.7351270000
   20      H       0.7347530000    -2.7828180000     1.3360270000
   21      H       0.4355530000     2.5197820000     2.3421270000
 ----------------------------------------------------------------

   11   -1389.2510253951      4.83e-07  Convergence criterion met
 Total energy in the final basis set =    -1389.2510253951
        RIMP2         total energy =     -1391.7573021979 a.u.

                    Orbital Energies (a.u.)
 --------------------------------------------------------------

 Alpha MOs
 -- Occupied --
-92.0097 -91.9897 -26.3329 -20.6102 -20.5472 -11.4076 -11.3750 -11.3077
-11.2914 -11.2913 -11.2875 -11.2838 -11.2687 -11.2287  -9.0083  -8.9939
 -6.6890  -6.6885  -6.6880  -6.6752  -6.6745  -6.6732  -1.6458  -1.4698
 -1.3649  -1.2267  -1.1468  -1.0651  -1.0296  -1.0054  -0.9684  -0.9100
 -0.8642  -0.7966  -0.7840  -0.7676  -0.7262  -0.7138  -0.6955  -0.6770
 -0.6762  -0.6678  -0.6094  -0.6041  -0.5965  -0.5872  -0.5759  -0.5673
 -0.5433  -0.5248  -0.5054  -0.4807  -0.4759  -0.4638  -0.4597  -0.4578
 -0.3950  -0.3464  -0.2813

          Ground-State Mulliken Net Atomic Charges

     Atom                 Charge (a.u.)
  ----------------------------------------
      1 C                     0.033257
      2 S                     0.085004
      3 C                    -0.255962
      4 C                    -0.084862
      5 C                    -0.009193
      6 C                     0.381221
      7 C                    -0.161511
      8 S                     0.028744
      9 C                     0.458414
     10 O                    -0.454603
     11 O                    -0.298379
     12 F                    -0.213106
     13 C                    -0.054948
     14 H                     0.116163
     15 H                     0.083926
     16 H                     0.083911
     17 C                    -0.363519
     18 H                     0.113900
     19 H                     0.162146
     20 H                     0.137295
     21 H                     0.212102
  ----------------------------------------
  Sum of atomic charges =     0.000000

                    Cartesian Multipole Moments
 -----------------------------------------------------------------
    Charge (ESU x 10^10)
                -0.0000
    Dipole Moment (Debye)
         X       0.2928      Y       1.0938      Z       4.1502
       Tot       4.3019
    Quadrupole Moments (Debye-Ang)
        XX     -95.5966     XY       2.4301     YY     -82.5859
        XZ      -1.9171     YZ     -13.2001     ZZ     -95.0030

 Total job time:  53.31s(wall), 1919.85s(cpu)
        *  Thank you very much for using Q-Chem.  Have a nice day.  *
