 Q-Chem 5.4, Q-Chem, Inc., Pleasanton, CA (2021)
 Q-Chem 5.4.0 for Intel X86 EM64T Linux

User input:
--------------------------------------------------------------
$molecule
0 1
C	-0.077735	-0.833466	1.020958
S	0.002865	0.062334	2.531658
C	0.139065	1.631734	1.748558
C	0.001365	0.071334	-0.043742
C	0.120965	1.454934	0.342658
C	-0.002735	0.005034	-1.465142
C	0.107365	1.265034	-2.085942
S	0.212765	2.508134	-0.944742
C	0.134165	1.518134	-3.539042
O	0.055765	0.587934	-4.329342
O	0.249265	2.796134	-3.983442
F	-0.095935	-1.105166	-2.225342
C	0.290665	3.152634	-5.314042
H	0.387565	4.253334	-5.349342
H	-0.630835	2.842434	-5.854642
H	1.152165	2.685834	-5.840942
C	-0.077735	-2.268666	1.020958
H	-0.765435	-2.277666	1.853658
H	-0.718235	-2.952566	0.483958
H	0.650665	-2.793066	1.621658
H	0.219365	2.548234	2.342458
$end

$rem
JOBTYPE		SP
EXCHANGE	HF
CORRELATION	pRIMP2
BASIS		cc-pvtz
METHOD		rimp2
AUX_BASIS	rimp2-cc-pvtz
SOLVENT_METHOD	PCM
PURECART	11111
SYMMETRY	false
MEM_TOTAL	110000
SCF_CONVERGENCE = 6
THRESH=10
GUI = 2
$end

$solvent
dielectric 4.90
$end
--------------------------------------------------------------

             Standard Nuclear Orientation (Angstroms)
    I     Atom           X                Y                Z
 ----------------------------------------------------------------
    1      C      -0.0777350000    -0.8334660000     1.0209580000
    2      S       0.0028650000     0.0623340000     2.5316580000
    3      C       0.1390650000     1.6317340000     1.7485580000
    4      C       0.0013650000     0.0713340000    -0.0437420000
    5      C       0.1209650000     1.4549340000     0.3426580000
    6      C      -0.0027350000     0.0050340000    -1.4651420000
    7      C       0.1073650000     1.2650340000    -2.0859420000
    8      S       0.2127650000     2.5081340000    -0.9447420000
    9      C       0.1341650000     1.5181340000    -3.5390420000
   10      O       0.0557650000     0.5879340000    -4.3293420000
   11      O       0.2492650000     2.7961340000    -3.9834420000
   12      F      -0.0959350000    -1.1051660000    -2.2253420000
   13      C       0.2906650000     3.1526340000    -5.3140420000
   14      H       0.3875650000     4.2533340000    -5.3493420000
   15      H      -0.6308350000     2.8424340000    -5.8546420000
   16      H       1.1521650000     2.6858340000    -5.8409420000
   17      C      -0.0777350000    -2.2686660000     1.0209580000
   18      H      -0.7654350000    -2.2776660000     1.8536580000
   19      H      -0.7182350000    -2.9525660000     0.4839580000
   20      H       0.6506650000    -2.7930660000     1.6216580000
   21      H       0.2193650000     2.5482340000     2.3424580000
 ----------------------------------------------------------------

   11   -1389.2532920881      4.52e-07  Convergence criterion met
 Total energy in the final basis set =    -1389.2532920881
        RIMP2         total energy =     -1391.7574686129 a.u.

                    Orbital Energies (a.u.)
 --------------------------------------------------------------

 Alpha MOs
 -- Occupied --
-92.0080 -91.9885 -26.3332 -20.6098 -20.5462 -11.4068 -11.3756 -11.3128
-11.2910 -11.2894 -11.2873 -11.2805 -11.2678 -11.2309  -9.0067  -8.9927
 -6.6875  -6.6870  -6.6865  -6.6740  -6.6734  -6.6720  -1.6461  -1.4693
 -1.3642  -1.2262  -1.1467  -1.0656  -1.0290  -1.0057  -0.9679  -0.9106
 -0.8635  -0.7963  -0.7839  -0.7668  -0.7259  -0.7139  -0.6956  -0.6767
 -0.6766  -0.6673  -0.6098  -0.6035  -0.5960  -0.5866  -0.5784  -0.5642
 -0.5418  -0.5248  -0.5082  -0.4855  -0.4793  -0.4622  -0.4590  -0.4571
 -0.3934  -0.3466  -0.2775

          Ground-State Mulliken Net Atomic Charges

     Atom                 Charge (a.u.)
  ----------------------------------------
      1 C                     0.029099
      2 S                     0.080653
      3 C                    -0.260556
      4 C                    -0.077903
      5 C                    -0.014421
      6 C                     0.390718
      7 C                    -0.165601
      8 S                     0.024331
      9 C                     0.459473
     10 O                    -0.456516
     11 O                    -0.298606
     12 F                    -0.213436
     13 C                    -0.055081
     14 H                     0.116085
     15 H                     0.083805
     16 H                     0.083761
     17 C                    -0.372051
     18 H                     0.125610
     19 H                     0.166452
     20 H                     0.142745
     21 H                     0.211439
  ----------------------------------------
  Sum of atomic charges =     0.000000

                    Cartesian Multipole Moments
 -----------------------------------------------------------------
    Charge (ESU x 10^10)
                -0.0000
    Dipole Moment (Debye)
         X      -0.2121      Y       0.7390      Z       4.1547
       Tot       4.2253
    Quadrupole Moments (Debye-Ang)
        XX     -96.0340     XY       2.1366     YY     -82.1538
        XZ      -1.1015     YZ     -13.3399     ZZ     -95.4345

 Total job time:  53.47s(wall), 1906.69s(cpu)
        *  Thank you very much for using Q-Chem.  Have a nice day.  *
