 Q-Chem 5.4, Q-Chem, Inc., Pleasanton, CA (2021)
 Q-Chem 5.4.0 for Intel X86 EM64T Linux

User input:
--------------------------------------------------------------
$molecule
0 1
C	-0.770999	-0.392188	1.022765
S	0.009001	0.055612	2.533465
C	1.372801	0.844212	1.750365
C	0.015501	0.061912	-0.041935
C	1.217501	0.757612	0.344465
C	-0.041099	0.027312	-1.463335
C	1.054201	0.659812	-2.084135
S	2.132901	1.286512	-0.942935
C	1.276901	0.783012	-3.537235
O	0.470001	0.313712	-4.327535
O	2.389801	1.421812	-3.981635
F	-1.003999	-0.533088	-2.223535
C	2.705501	1.592412	-5.312235
H	3.662701	2.144312	-5.347535
H	1.922801	2.169312	-5.852835
H	2.817201	0.618912	-5.839135
C	-0.770999	-1.827388	1.022765
H	0.294001	-1.836388	1.201965
H	-0.915799	-2.511288	1.845965
H	-0.614899	-2.351788	0.091565
H	2.169601	1.304112	2.344265
$end

$rem
JOBTYPE		SP
EXCHANGE	HF
CORRELATION	pRIMP2
BASIS		cc-pvtz
METHOD		rimp2
AUX_BASIS	rimp2-cc-pvtz
SOLVENT_METHOD	PCM
PURECART	11111
SYMMETRY	false
MEM_TOTAL	110000
SCF_CONVERGENCE = 6
THRESH=10
GUI = 2
$end

$solvent
dielectric 4.90
$end
--------------------------------------------------------------

             Standard Nuclear Orientation (Angstroms)
    I     Atom           X                Y                Z
 ----------------------------------------------------------------
    1      C      -0.7709990000    -0.3921880000     1.0227650000
    2      S       0.0090010000     0.0556120000     2.5334650000
    3      C       1.3728010000     0.8442120000     1.7503650000
    4      C       0.0155010000     0.0619120000    -0.0419350000
    5      C       1.2175010000     0.7576120000     0.3444650000
    6      C      -0.0410990000     0.0273120000    -1.4633350000
    7      C       1.0542010000     0.6598120000    -2.0841350000
    8      S       2.1329010000     1.2865120000    -0.9429350000
    9      C       1.2769010000     0.7830120000    -3.5372350000
   10      O       0.4700010000     0.3137120000    -4.3275350000
   11      O       2.3898010000     1.4218120000    -3.9816350000
   12      F      -1.0039990000    -0.5330880000    -2.2235350000
   13      C       2.7055010000     1.5924120000    -5.3122350000
   14      H       3.6627010000     2.1443120000    -5.3475350000
   15      H       1.9228010000     2.1693120000    -5.8528350000
   16      H       2.8172010000     0.6189120000    -5.8391350000
   17      C      -0.7709990000    -1.8273880000     1.0227650000
   18      H       0.2940010000    -1.8363880000     1.2019650000
   19      H      -0.9157990000    -2.5112880000     1.8459650000
   20      H      -0.6148990000    -2.3517880000     0.0915650000
   21      H       2.1696010000     1.3041120000     2.3442650000
 ----------------------------------------------------------------

   11   -1389.1825979083      7.09e-07  Convergence criterion met
 Total energy in the final basis set =    -1389.1825979083
        RIMP2         total energy =     -1391.7067477257 a.u.

                    Orbital Energies (a.u.)
 --------------------------------------------------------------

 Alpha MOs
 -- Occupied --
-92.0021 -91.9980 -26.3338 -20.6132 -20.5521 -11.4119 -11.3755 -11.3092
-11.3014 -11.2966 -11.2891 -11.2841 -11.2793 -11.2257  -9.0023  -9.0018
 -6.6830  -6.6829  -6.6824  -6.6821  -6.6819  -6.6811  -1.6468  -1.4731
 -1.3687  -1.2371  -1.1592  -1.0717  -1.0315  -1.0013  -0.9717  -0.9033
 -0.8676  -0.7987  -0.7876  -0.7733  -0.7298  -0.7156  -0.6976  -0.6795
 -0.6769  -0.6727  -0.6102  -0.6091  -0.6060  -0.5930  -0.5686  -0.5620
 -0.5309  -0.5263  -0.5202  -0.4962  -0.4833  -0.4625  -0.4623  -0.4404
 -0.3839  -0.3469  -0.2791

          Ground-State Mulliken Net Atomic Charges

     Atom                 Charge (a.u.)
  ----------------------------------------
      1 C                    -0.084273
      2 S                     0.098153
      3 C                    -0.192982
      4 C                    -0.034759
      5 C                    -0.029727
      6 C                     0.364140
      7 C                    -0.144694
      8 S                     0.052973
      9 C                     0.457355
     10 O                    -0.446647
     11 O                    -0.297659
     12 F                    -0.210309
     13 C                    -0.054747
     14 H                     0.116842
     15 H                     0.085014
     16 H                     0.084558
     17 C                    -0.362149
     18 H                     0.103885
     19 H                     0.151096
     20 H                     0.128857
     21 H                     0.215073
  ----------------------------------------
  Sum of atomic charges =     0.000000

                    Cartesian Multipole Moments
 -----------------------------------------------------------------
    Charge (ESU x 10^10)
                -0.0000
    Dipole Moment (Debye)
         X       4.3561      Y       0.6326      Z       3.1087
       Tot       5.3888
    Quadrupole Moments (Debye-Ang)
        XX     -90.3945     XY       4.5619     YY     -90.8280
        XZ      -7.8759     YZ      -6.5271     ZZ     -93.8443

 Total job time:  55.23s(wall), 1995.62s(cpu)
        *  Thank you very much for using Q-Chem.  Have a nice day.  *
