 Q-Chem 5.4, Q-Chem, Inc., Pleasanton, CA (2021)
 Q-Chem 5.4.0 for Intel X86 EM64T Linux

User input:
--------------------------------------------------------------
$molecule
0 1
C	-0.446120	-0.717327	1.024882
S	0.005480	0.060473	2.535582
C	0.792280	1.425273	1.752482
C	0.007980	0.069273	-0.039818
C	0.701080	1.272673	0.346582
C	-0.023820	0.010873	-1.461218
C	0.608480	1.106373	-2.082018
S	1.229380	2.188373	-0.940818
C	0.739780	1.324373	-3.535118
O	0.275580	0.514473	-4.325418
O	1.384180	2.434073	-3.979518
F	-0.577420	-0.955927	-2.221418
C	1.572380	2.739673	-5.310118
H	2.125380	3.696273	-5.345418
H	0.606080	2.847873	-5.850718
H	2.155780	1.952473	-5.837018
C	-0.446120	-2.152527	1.024882
H	0.241580	-2.161527	0.192182
H	0.194380	-2.836427	1.561882
H	-1.174520	-2.676927	0.424182
H	1.252280	2.221973	2.346382
$end

$rem
JOBTYPE		SP
EXCHANGE	HF
CORRELATION	pRIMP2
BASIS		cc-pvtz
METHOD		rimp2
AUX_BASIS	rimp2-cc-pvtz
SOLVENT_METHOD	PCM
PURECART	11111
SYMMETRY	false
MEM_TOTAL	110000
SCF_CONVERGENCE = 6
THRESH=10
GUI = 2
$end

$solvent
dielectric 4.90
$end
--------------------------------------------------------------

             Standard Nuclear Orientation (Angstroms)
    I     Atom           X                Y                Z
 ----------------------------------------------------------------
    1      C      -0.4461200000    -0.7173270000     1.0248820000
    2      S       0.0054800000     0.0604730000     2.5355820000
    3      C       0.7922800000     1.4252730000     1.7524820000
    4      C       0.0079800000     0.0692730000    -0.0398180000
    5      C       0.7010800000     1.2726730000     0.3465820000
    6      C      -0.0238200000     0.0108730000    -1.4612180000
    7      C       0.6084800000     1.1063730000    -2.0820180000
    8      S       1.2293800000     2.1883730000    -0.9408180000
    9      C       0.7397800000     1.3243730000    -3.5351180000
   10      O       0.2755800000     0.5144730000    -4.3254180000
   11      O       1.3841800000     2.4340730000    -3.9795180000
   12      F      -0.5774200000    -0.9559270000    -2.2214180000
   13      C       1.5723800000     2.7396730000    -5.3101180000
   14      H       2.1253800000     3.6962730000    -5.3454180000
   15      H       0.6060800000     2.8478730000    -5.8507180000
   16      H       2.1557800000     1.9524730000    -5.8370180000
   17      C      -0.4461200000    -2.1525270000     1.0248820000
   18      H       0.2415800000    -2.1615270000     0.1921820000
   19      H       0.1943800000    -2.8364270000     1.5618820000
   20      H      -1.1745200000    -2.6769270000     0.4241820000
   21      H       1.2522800000     2.2219730000     2.3463820000
 ----------------------------------------------------------------

   11   -1389.2344373247      5.37e-07  Convergence criterion met
 Total energy in the final basis set =    -1389.2344373247
        RIMP2         total energy =     -1391.7464937609 a.u.

                    Orbital Energies (a.u.)
 --------------------------------------------------------------

 Alpha MOs
 -- Occupied --
-92.0072 -91.9920 -26.3347 -20.6109 -20.5480 -11.4085 -11.3757 -11.3061
-11.2930 -11.2926 -11.2880 -11.2841 -11.2708 -11.2273  -9.0059  -8.9961
 -6.6866  -6.6859  -6.6856  -6.6774  -6.6767  -6.6754  -1.6478  -1.4705
 -1.3657  -1.2289  -1.1480  -1.0685  -1.0270  -1.0046  -0.9688  -0.9094
 -0.8639  -0.7955  -0.7859  -0.7674  -0.7266  -0.7159  -0.6969  -0.6778
 -0.6775  -0.6691  -0.6082  -0.6045  -0.5953  -0.5915  -0.5862  -0.5630
 -0.5365  -0.5251  -0.5057  -0.4845  -0.4735  -0.4652  -0.4602  -0.4582
 -0.3893  -0.3450  -0.2789

          Ground-State Mulliken Net Atomic Charges

     Atom                 Charge (a.u.)
  ----------------------------------------
      1 C                     0.010179
      2 S                     0.095651
      3 C                    -0.254255
      4 C                    -0.077797
      5 C                    -0.007926
      6 C                     0.354731
      7 C                    -0.156606
      8 S                     0.037875
      9 C                     0.457487
     10 O                    -0.454033
     11 O                    -0.298455
     12 F                    -0.211966
     13 C                    -0.054829
     14 H                     0.116380
     15 H                     0.084088
     16 H                     0.083922
     17 C                    -0.377238
     18 H                     0.135171
     19 H                     0.168501
     20 H                     0.139113
     21 H                     0.210008
  ----------------------------------------
  Sum of atomic charges =     0.000000

                    Cartesian Multipole Moments
 -----------------------------------------------------------------
    Charge (ESU x 10^10)
                -0.0000
    Dipole Moment (Debye)
         X       1.9265      Y       0.8520      Z       3.0121
       Tot       3.6756
    Quadrupole Moments (Debye-Ang)
        XX     -94.3006     XY       3.3350     YY     -84.9723
        XZ      -4.3607     YZ      -9.6017     ZZ     -96.8581

 Total job time:  55.33s(wall), 1990.19s(cpu)
        *  Thank you very much for using Q-Chem.  Have a nice day.  *
