 Q-Chem 5.4, Q-Chem, Inc., Pleasanton, CA (2021)
 Q-Chem 5.4.0 for Intel X86 EM64T Linux

User input:
--------------------------------------------------------------
$molecule
0 1
C	-0.442902	-0.717327	1.021526
S	0.008698	0.060473	2.532226
C	0.795498	1.425273	1.749126
C	0.011198	0.069273	-0.043174
C	0.704298	1.272673	0.343226
C	-0.020602	0.010873	-1.464574
C	0.611698	1.106373	-2.085374
S	1.232598	2.188373	-0.944174
C	0.742998	1.324373	-3.538474
O	0.278798	0.514473	-4.328774
O	1.387398	2.434073	-3.982874
F	-0.574202	-0.955927	-2.224774
C	1.575598	2.739673	-5.313474
H	2.128598	3.696273	-5.348774
H	0.609298	2.847873	-5.854074
H	2.158998	1.952473	-5.840374
C	-0.442902	-2.152527	1.021526
H	-1.373902	-2.161527	1.568826
H	-0.861102	-2.836427	0.297826
H	0.036098	-2.676927	1.835126
H	1.255498	2.221973	2.343026
$end

$rem
JOBTYPE		SP
EXCHANGE	HF
CORRELATION	pRIMP2
BASIS		cc-pvtz
METHOD		rimp2
AUX_BASIS	rimp2-cc-pvtz
SOLVENT_METHOD	PCM
PURECART	11111
SYMMETRY	false
MEM_TOTAL	110000
SCF_CONVERGENCE = 6
THRESH=10
GUI = 2
$end

$solvent
dielectric 4.90
$end
--------------------------------------------------------------

             Standard Nuclear Orientation (Angstroms)
    I     Atom           X                Y                Z
 ----------------------------------------------------------------
    1      C      -0.4429020000    -0.7173270000     1.0215260000
    2      S       0.0086980000     0.0604730000     2.5322260000
    3      C       0.7954980000     1.4252730000     1.7491260000
    4      C       0.0111980000     0.0692730000    -0.0431740000
    5      C       0.7042980000     1.2726730000     0.3432260000
    6      C      -0.0206020000     0.0108730000    -1.4645740000
    7      C       0.6116980000     1.1063730000    -2.0853740000
    8      S       1.2325980000     2.1883730000    -0.9441740000
    9      C       0.7429980000     1.3243730000    -3.5384740000
   10      O       0.2787980000     0.5144730000    -4.3287740000
   11      O       1.3873980000     2.4340730000    -3.9828740000
   12      F      -0.5742020000    -0.9559270000    -2.2247740000
   13      C       1.5755980000     2.7396730000    -5.3134740000
   14      H       2.1285980000     3.6962730000    -5.3487740000
   15      H       0.6092980000     2.8478730000    -5.8540740000
   16      H       2.1589980000     1.9524730000    -5.8403740000
   17      C      -0.4429020000    -2.1525270000     1.0215260000
   18      H      -1.3739020000    -2.1615270000     1.5688260000
   19      H      -0.8611020000    -2.8364270000     0.2978260000
   20      H       0.0360980000    -2.6769270000     1.8351260000
   21      H       1.2554980000     2.2219730000     2.3430260000
 ----------------------------------------------------------------

   11   -1389.2333514101      5.22e-07  Convergence criterion met
 Total energy in the final basis set =    -1389.2333514101
        RIMP2         total energy =     -1391.7433164903 a.u.

                    Orbital Energies (a.u.)
 --------------------------------------------------------------

 Alpha MOs
 -- Occupied --
-92.0069 -91.9898 -26.3332 -20.6102 -20.5470 -11.4074 -11.3750 -11.3057
-11.2915 -11.2911 -11.2875 -11.2849 -11.2692 -11.2273  -9.0058  -8.9940
 -6.6867  -6.6860  -6.6856  -6.6752  -6.6746  -6.6732  -1.6461  -1.4697
 -1.3648  -1.2272  -1.1475  -1.0655  -1.0286  -1.0047  -0.9682  -0.9098
 -0.8638  -0.7962  -0.7844  -0.7674  -0.7261  -0.7141  -0.6948  -0.6769
 -0.6757  -0.6680  -0.6091  -0.6039  -0.5925  -0.5869  -0.5851  -0.5598
 -0.5322  -0.5259  -0.5121  -0.4904  -0.4800  -0.4606  -0.4580  -0.4561
 -0.3880  -0.3461  -0.2753

          Ground-State Mulliken Net Atomic Charges

     Atom                 Charge (a.u.)
  ----------------------------------------
      1 C                    -0.022446
      2 S                     0.085262
      3 C                    -0.245297
      4 C                    -0.048864
      5 C                    -0.015982
      6 C                     0.371161
      7 C                    -0.163000
      8 S                     0.029741
      9 C                     0.457405
     10 O                    -0.454907
     11 O                    -0.298541
     12 F                    -0.211327
     13 C                    -0.054866
     14 H                     0.116188
     15 H                     0.083867
     16 H                     0.083867
     17 C                    -0.375871
     18 H                     0.135273
     19 H                     0.164763
     20 H                     0.151842
     21 H                     0.211732
  ----------------------------------------
  Sum of atomic charges =     0.000000

                    Cartesian Multipole Moments
 -----------------------------------------------------------------
    Charge (ESU x 10^10)
                -0.0000
    Dipole Moment (Debye)
         X       0.8470      Y       0.7151      Z       3.9051
       Tot       4.0594
    Quadrupole Moments (Debye-Ang)
        XX     -93.6700     XY       5.9425     YY     -84.8841
        XZ      -5.6120     YZ     -11.1881     ZZ     -95.3035

 Total job time:  53.98s(wall), 1969.27s(cpu)
        *  Thank you very much for using Q-Chem.  Have a nice day.  *
