 Q-Chem 5.4, Q-Chem, Inc., Pleasanton, CA (2021)
 Q-Chem 5.4.0 for Intel X86 EM64T Linux

User input:
--------------------------------------------------------------
$molecule
0 1
C	-0.302548	-0.782911	1.022665
S	0.007152	0.061489	2.533365
C	0.544952	1.542189	1.750265
C	0.008052	0.070589	-0.042035
C	0.481652	1.376089	0.344365
C	-0.013048	0.007589	-1.463435
C	0.419352	1.196189	-2.084235
S	0.842952	2.369589	-0.943035
C	0.510852	1.433689	-3.537335
O	0.194352	0.555489	-4.327635
O	0.952752	2.638389	-3.981735
F	-0.390448	-1.040711	-2.223635
C	1.084952	2.971989	-5.312335
H	1.463452	4.010189	-5.347635
H	0.114552	2.910889	-5.852935
H	1.796252	2.298089	-5.839235
C	-0.302548	-2.218111	1.022665
H	-1.382448	-2.227111	1.031165
H	-0.302948	-2.902011	0.186765
H	-0.294548	-2.742511	1.966765
H	0.859652	2.406689	2.344165
$end

$rem
JOBTYPE		SP
EXCHANGE	HF
CORRELATION	pRIMP2
BASIS		cc-pvtz
METHOD		rimp2
AUX_BASIS	rimp2-cc-pvtz
SOLVENT_METHOD	PCM
PURECART	11111
SYMMETRY	false
MEM_TOTAL	110000
SCF_CONVERGENCE = 6
THRESH=10
GUI = 2
$end

$solvent
dielectric 4.90
$end
--------------------------------------------------------------

             Standard Nuclear Orientation (Angstroms)
    I     Atom           X                Y                Z
 ----------------------------------------------------------------
    1      C      -0.3025480000    -0.7829110000     1.0226650000
    2      S       0.0071520000     0.0614890000     2.5333650000
    3      C       0.5449520000     1.5421890000     1.7502650000
    4      C       0.0080520000     0.0705890000    -0.0420350000
    5      C       0.4816520000     1.3760890000     0.3443650000
    6      C      -0.0130480000     0.0075890000    -1.4634350000
    7      C       0.4193520000     1.1961890000    -2.0842350000
    8      S       0.8429520000     2.3695890000    -0.9430350000
    9      C       0.5108520000     1.4336890000    -3.5373350000
   10      O       0.1943520000     0.5554890000    -4.3276350000
   11      O       0.9527520000     2.6383890000    -3.9817350000
   12      F      -0.3904480000    -1.0407110000    -2.2236350000
   13      C       1.0849520000     2.9719890000    -5.3123350000
   14      H       1.4634520000     4.0101890000    -5.3476350000
   15      H       0.1145520000     2.9108890000    -5.8529350000
   16      H       1.7962520000     2.2980890000    -5.8392350000
   17      C      -0.3025480000    -2.2181110000     1.0226650000
   18      H      -1.3824480000    -2.2271110000     1.0311650000
   19      H      -0.3029480000    -2.9020110000     0.1867650000
   20      H      -0.2945480000    -2.7425110000     1.9667650000
   21      H       0.8596520000     2.4066890000     2.3441650000
 ----------------------------------------------------------------

   11   -1389.2453998868      4.56e-07  Convergence criterion met
 Total energy in the final basis set =    -1389.2453998868
        RIMP2         total energy =     -1391.7507560932 a.u.

                    Orbital Energies (a.u.)
 --------------------------------------------------------------

 Alpha MOs
 -- Occupied --
-92.0064 -91.9881 -26.3341 -20.6091 -20.5451 -11.4059 -11.3761 -11.3161
-11.2913 -11.2873 -11.2870 -11.2768 -11.2671 -11.2328  -9.0052  -8.9923
 -6.6861  -6.6854  -6.6849  -6.6736  -6.6729  -6.6716  -1.6470  -1.4686
 -1.3634  -1.2261  -1.1467  -1.0667  -1.0272  -1.0059  -0.9674  -0.9112
 -0.8626  -0.7958  -0.7842  -0.7659  -0.7256  -0.7148  -0.6958  -0.6774
 -0.6761  -0.6670  -0.6090  -0.6028  -0.5920  -0.5865  -0.5858  -0.5583
 -0.5333  -0.5241  -0.5196  -0.4949  -0.4788  -0.4603  -0.4570  -0.4564
 -0.3883  -0.3464  -0.2718

          Ground-State Mulliken Net Atomic Charges

     Atom                 Charge (a.u.)
  ----------------------------------------
      1 C                     0.037653
      2 S                     0.089321
      3 C                    -0.273159
      4 C                    -0.097612
      5 C                    -0.008758
      6 C                     0.381186
      7 C                    -0.169167
      8 S                     0.026245
      9 C                     0.457883
     10 O                    -0.458492
     11 O                    -0.299039
     12 F                    -0.212598
     13 C                    -0.054816
     14 H                     0.115896
     15 H                     0.083551
     16 H                     0.083437
     17 C                    -0.377806
     18 H                     0.145791
     19 H                     0.171742
     20 H                     0.148818
     21 H                     0.209921
  ----------------------------------------
  Sum of atomic charges =     0.000000

                    Cartesian Multipole Moments
 -----------------------------------------------------------------
    Charge (ESU x 10^10)
                -0.0000
    Dipole Moment (Debye)
         X       0.0287      Y       0.2379      Z       3.7636
       Tot       3.7712
    Quadrupole Moments (Debye-Ang)
        XX     -95.1273     XY       5.1075     YY     -83.1193
        XZ      -4.4531     YZ     -11.6624     ZZ     -96.6525

 Total job time:  55.17s(wall), 1963.50s(cpu)
        *  Thank you very much for using Q-Chem.  Have a nice day.  *
