 Q-Chem 5.4, Q-Chem, Inc., Pleasanton, CA (2021)
 Q-Chem 5.4.0 for Intel X86 EM64T Linux

User input:
--------------------------------------------------------------
$molecule
0 1
C	-0.078892	-0.833466	1.020565
S	0.001708	0.062334	2.531265
C	0.137908	1.631734	1.748165
C	0.000208	0.071334	-0.044135
C	0.119808	1.454934	0.342265
C	-0.003892	0.005034	-1.465535
C	0.106208	1.265034	-2.086335
S	0.211608	2.508134	-0.945135
C	0.133008	1.518134	-3.539435
O	0.054608	0.587934	-4.329735
O	0.248108	2.796134	-3.983835
F	-0.097092	-1.105166	-2.225735
C	0.289508	3.152634	-5.314435
H	0.386408	4.253334	-5.349735
H	-0.631992	2.842434	-5.855035
H	1.151008	2.685834	-5.841335
C	-0.078892	-2.268666	1.020565
H	-0.258092	-2.277666	2.085565
H	-0.902092	-2.952566	0.875765
H	0.852308	-2.793066	1.176665
H	0.218208	2.548234	2.342065
$end

$rem
JOBTYPE		SP
EXCHANGE	HF
CORRELATION	pRIMP2
BASIS		cc-pvtz
METHOD		rimp2
AUX_BASIS	rimp2-cc-pvtz
SOLVENT_METHOD	PCM
PURECART	11111
SYMMETRY	false
MEM_TOTAL	110000
SCF_CONVERGENCE = 6
THRESH=10
GUI = 2
$end

$solvent
dielectric 4.90
$end
--------------------------------------------------------------

             Standard Nuclear Orientation (Angstroms)
    I     Atom           X                Y                Z
 ----------------------------------------------------------------
    1      C      -0.0788920000    -0.8334660000     1.0205650000
    2      S       0.0017080000     0.0623340000     2.5312650000
    3      C       0.1379080000     1.6317340000     1.7481650000
    4      C       0.0002080000     0.0713340000    -0.0441350000
    5      C       0.1198080000     1.4549340000     0.3422650000
    6      C      -0.0038920000     0.0050340000    -1.4655350000
    7      C       0.1062080000     1.2650340000    -2.0863350000
    8      S       0.2116080000     2.5081340000    -0.9451350000
    9      C       0.1330080000     1.5181340000    -3.5394350000
   10      O       0.0546080000     0.5879340000    -4.3297350000
   11      O       0.2481080000     2.7961340000    -3.9838350000
   12      F      -0.0970920000    -1.1051660000    -2.2257350000
   13      C       0.2895080000     3.1526340000    -5.3144350000
   14      H       0.3864080000     4.2533340000    -5.3497350000
   15      H      -0.6319920000     2.8424340000    -5.8550350000
   16      H       1.1510080000     2.6858340000    -5.8413350000
   17      C      -0.0788920000    -2.2686660000     1.0205650000
   18      H      -0.2580920000    -2.2776660000     2.0855650000
   19      H      -0.9020920000    -2.9525660000     0.8757650000
   20      H       0.8523080000    -2.7930660000     1.1766650000
   21      H       0.2182080000     2.5482340000     2.3420650000
 ----------------------------------------------------------------

   11   -1389.2520640361      4.83e-07  Convergence criterion met
 Total energy in the final basis set =    -1389.2520640361
        RIMP2         total energy =     -1391.7582676803 a.u.

                    Orbital Energies (a.u.)
 --------------------------------------------------------------

 Alpha MOs
 -- Occupied --
-92.0100 -91.9898 -26.3329 -20.6103 -20.5473 -11.4077 -11.3750 -11.3074
-11.2915 -11.2914 -11.2876 -11.2839 -11.2688 -11.2286  -9.0086  -8.9940
 -6.6894  -6.6888  -6.6883  -6.6753  -6.6746  -6.6733  -1.6458  -1.4699
 -1.3649  -1.2267  -1.1468  -1.0650  -1.0298  -1.0054  -0.9684  -0.9100
 -0.8643  -0.7967  -0.7840  -0.7677  -0.7262  -0.7139  -0.6956  -0.6770
 -0.6762  -0.6679  -0.6091  -0.6042  -0.5970  -0.5873  -0.5735  -0.5698
 -0.5442  -0.5247  -0.5049  -0.4809  -0.4733  -0.4645  -0.4599  -0.4579
 -0.3958  -0.3463  -0.2822

          Ground-State Mulliken Net Atomic Charges

     Atom                 Charge (a.u.)
  ----------------------------------------
      1 C                     0.042826
      2 S                     0.084421
      3 C                    -0.257333
      4 C                    -0.089898
      5 C                    -0.008774
      6 C                     0.388124
      7 C                    -0.162322
      8 S                     0.029045
      9 C                     0.458763
     10 O                    -0.454610
     11 O                    -0.298385
     12 F                    -0.213699
     13 C                    -0.055070
     14 H                     0.116209
     15 H                     0.084017
     16 H                     0.083913
     17 C                    -0.365570
     18 H                     0.111914
     19 H                     0.157840
     20 H                     0.136223
     21 H                     0.212368
  ----------------------------------------
  Sum of atomic charges =     0.000000

                    Cartesian Multipole Moments
 -----------------------------------------------------------------
    Charge (ESU x 10^10)
                -0.0000
    Dipole Moment (Debye)
         X       0.1624      Y       1.1611      Z       4.1681
       Tot       4.3299
    Quadrupole Moments (Debye-Ang)
        XX     -95.7875     XY       1.2977     YY     -82.3730
        XZ      -0.9668     YZ     -13.3935     ZZ     -94.9562

 Total job time:  65.49s(wall), 1902.76s(cpu)
        *  Thank you very much for using Q-Chem.  Have a nice day.  *
