 Q-Chem 5.4, Q-Chem, Inc., Pleasanton, CA (2021)
 Q-Chem 5.4.0 for Intel X86 EM64T Linux

User input:
--------------------------------------------------------------
$molecule
0 1
C	-0.155865	-0.823218	1.025276
S	0.002535	0.062182	2.535976
C	0.275035	1.613782	1.752876
C	0.001835	0.071182	-0.039424
C	0.241535	1.439182	0.346976
C	-0.008065	0.005582	-1.460824
C	0.211435	1.251182	-2.081624
S	0.424735	2.480282	-0.940424
C	0.260235	1.500982	-3.534724
O	0.101035	0.581182	-4.325024
O	0.486235	2.764082	-3.979124
F	-0.197665	-1.092318	-2.221024
C	0.558535	3.115582	-5.309724
H	0.750935	4.203682	-5.345024
H	-0.386565	2.886882	-5.850324
H	1.376035	2.575482	-5.836624
C	-0.155865	-2.258418	1.025276
H	0.023335	-2.267418	-0.039724
H	0.667335	-2.942318	1.170076
H	-1.087065	-2.782818	0.869176
H	0.434835	2.519782	2.346776
$end

$rem
JOBTYPE		SP
EXCHANGE	HF
CORRELATION	pRIMP2
BASIS		cc-pvtz
METHOD		rimp2
AUX_BASIS	rimp2-cc-pvtz
SOLVENT_METHOD	PCM
PURECART	11111
SYMMETRY	false
MEM_TOTAL	110000
SCF_CONVERGENCE = 6
THRESH=10
GUI = 2
$end

$solvent
dielectric 4.90
$end
--------------------------------------------------------------

             Standard Nuclear Orientation (Angstroms)
    I     Atom           X                Y                Z
 ----------------------------------------------------------------
    1      C      -0.1558650000    -0.8232180000     1.0252760000
    2      S       0.0025350000     0.0621820000     2.5359760000
    3      C       0.2750350000     1.6137820000     1.7528760000
    4      C       0.0018350000     0.0711820000    -0.0394240000
    5      C       0.2415350000     1.4391820000     0.3469760000
    6      C      -0.0080650000     0.0055820000    -1.4608240000
    7      C       0.2114350000     1.2511820000    -2.0816240000
    8      S       0.4247350000     2.4802820000    -0.9404240000
    9      C       0.2602350000     1.5009820000    -3.5347240000
   10      O       0.1010350000     0.5811820000    -4.3250240000
   11      O       0.4862350000     2.7640820000    -3.9791240000
   12      F      -0.1976650000    -1.0923180000    -2.2210240000
   13      C       0.5585350000     3.1155820000    -5.3097240000
   14      H       0.7509350000     4.2036820000    -5.3450240000
   15      H      -0.3865650000     2.8868820000    -5.8503240000
   16      H       1.3760350000     2.5754820000    -5.8366240000
   17      C      -0.1558650000    -2.2584180000     1.0252760000
   18      H       0.0233350000    -2.2674180000    -0.0397240000
   19      H       0.6673350000    -2.9423180000     1.1700760000
   20      H      -1.0870650000    -2.7828180000     0.8691760000
   21      H       0.4348350000     2.5197820000     2.3467760000
 ----------------------------------------------------------------

   11   -1389.2521194772      5.05e-07  Convergence criterion met
 Total energy in the final basis set =    -1389.2521194772
        RIMP2         total energy =     -1391.7599825097 a.u.

                    Orbital Energies (a.u.)
 --------------------------------------------------------------

 Alpha MOs
 -- Occupied --
-92.0040 -91.9911 -26.3357 -20.6111 -20.5484 -11.4088 -11.3766 -11.3079
-11.2934 -11.2916 -11.2880 -11.2841 -11.2741 -11.2273  -9.0029  -8.9952
 -6.6836  -6.6830  -6.6826  -6.6765  -6.6758  -6.6745  -1.6490  -1.4707
 -1.3659  -1.2282  -1.1453  -1.0680  -1.0271  -1.0062  -0.9688  -0.9115
 -0.8639  -0.7960  -0.7867  -0.7673  -0.7269  -0.7168  -0.6975  -0.6783
 -0.6778  -0.6695  -0.6084  -0.6049  -0.5981  -0.5884  -0.5806  -0.5684
 -0.5438  -0.5249  -0.5048  -0.4816  -0.4703  -0.4637  -0.4606  -0.4534
 -0.3972  -0.3452  -0.2827

          Ground-State Mulliken Net Atomic Charges

     Atom                 Charge (a.u.)
  ----------------------------------------
      1 C                     0.040472
      2 S                     0.082975
      3 C                    -0.250796
      4 C                    -0.098166
      5 C                    -0.012254
      6 C                     0.370595
      7 C                    -0.143770
      8 S                     0.031387
      9 C                     0.457547
     10 O                    -0.453731
     11 O                    -0.298086
     12 F                    -0.213819
     13 C                    -0.054947
     14 H                     0.116475
     15 H                     0.084096
     16 H                     0.084012
     17 C                    -0.365177
     18 H                     0.117153
     19 H                     0.157324
     20 H                     0.138291
     21 H                     0.210417
  ----------------------------------------
  Sum of atomic charges =     0.000000

                    Cartesian Multipole Moments
 -----------------------------------------------------------------
    Charge (ESU x 10^10)
                -0.0000
    Dipole Moment (Debye)
         X       0.6087      Y       1.1494      Z       2.7635
       Tot       3.0542
    Quadrupole Moments (Debye-Ang)
        XX     -95.6137     XY       1.4051     YY     -82.4350
        XZ      -1.5637     YZ     -10.4282     ZZ     -97.5687

 Total job time:  54.18s(wall), 1960.05s(cpu)
        *  Thank you very much for using Q-Chem.  Have a nice day.  *
