 Q-Chem 5.4, Q-Chem, Inc., Pleasanton, CA (2021)
 Q-Chem 5.4.0 for Intel X86 EM64T Linux

User input:
--------------------------------------------------------------
$molecule
0 1
C	-0.077086	-0.833466	1.024233
S	0.003514	0.062334	2.534933
C	0.139714	1.631734	1.751833
C	0.002014	0.071334	-0.040467
C	0.121614	1.454934	0.345933
C	-0.002086	0.005034	-1.461867
C	0.108014	1.265034	-2.082667
S	0.213414	2.508134	-0.941467
C	0.134814	1.518134	-3.535767
O	0.056414	0.587934	-4.326067
O	0.249914	2.796134	-3.980167
F	-0.095286	-1.105166	-2.222067
C	0.291314	3.152634	-5.310767
H	0.388214	4.253334	-5.346067
H	-0.630186	2.842434	-5.851367
H	1.152814	2.685834	-5.837667
C	-0.077086	-2.268666	1.024233
H	-0.909786	-2.277666	0.336533
H	0.459914	-2.952566	0.383733
H	-0.677786	-2.793066	1.752633
H	0.220014	2.548234	2.345733
$end

$rem
JOBTYPE		SP
EXCHANGE	HF
CORRELATION	pRIMP2
BASIS		cc-pvtz
METHOD		rimp2
AUX_BASIS	rimp2-cc-pvtz
SOLVENT_METHOD	PCM
PURECART	11111
SYMMETRY	false
MEM_TOTAL	110000
SCF_CONVERGENCE = 6
THRESH=10
GUI = 2
$end

$solvent
dielectric 4.90
$end
--------------------------------------------------------------

             Standard Nuclear Orientation (Angstroms)
    I     Atom           X                Y                Z
 ----------------------------------------------------------------
    1      C      -0.0770860000    -0.8334660000     1.0242330000
    2      S       0.0035140000     0.0623340000     2.5349330000
    3      C       0.1397140000     1.6317340000     1.7518330000
    4      C       0.0020140000     0.0713340000    -0.0404670000
    5      C       0.1216140000     1.4549340000     0.3459330000
    6      C      -0.0020860000     0.0050340000    -1.4618670000
    7      C       0.1080140000     1.2650340000    -2.0826670000
    8      S       0.2134140000     2.5081340000    -0.9414670000
    9      C       0.1348140000     1.5181340000    -3.5357670000
   10      O       0.0564140000     0.5879340000    -4.3260670000
   11      O       0.2499140000     2.7961340000    -3.9801670000
   12      F      -0.0952860000    -1.1051660000    -2.2220670000
   13      C       0.2913140000     3.1526340000    -5.3107670000
   14      H       0.3882140000     4.2533340000    -5.3460670000
   15      H      -0.6301860000     2.8424340000    -5.8513670000
   16      H       1.1528140000     2.6858340000    -5.8376670000
   17      C      -0.0770860000    -2.2686660000     1.0242330000
   18      H      -0.9097860000    -2.2776660000     0.3365330000
   19      H       0.4599140000    -2.9525660000     0.3837330000
   20      H      -0.6777860000    -2.7930660000     1.7526330000
   21      H       0.2200140000     2.5482340000     2.3457330000
 ----------------------------------------------------------------

   11   -1389.2554176306      4.55e-07  Convergence criterion met
 Total energy in the final basis set =    -1389.2554176306
        RIMP2         total energy =     -1391.7600917833 a.u.

                    Orbital Energies (a.u.)
 --------------------------------------------------------------

 Alpha MOs
 -- Occupied --
-92.0064 -91.9891 -26.3348 -20.6097 -20.5460 -11.4067 -11.3765 -11.3159
-11.2917 -11.2888 -11.2874 -11.2772 -11.2688 -11.2325  -9.0050  -8.9933
 -6.6858  -6.6852  -6.6848  -6.6746  -6.6739  -6.6726  -1.6478  -1.4693
 -1.3641  -1.2266  -1.1457  -1.0676  -1.0267  -1.0066  -0.9678  -0.9117
 -0.8628  -0.7955  -0.7850  -0.7660  -0.7259  -0.7155  -0.6974  -0.6785
 -0.6767  -0.6677  -0.6098  -0.6034  -0.5939  -0.5864  -0.5831  -0.5642
 -0.5422  -0.5236  -0.5075  -0.4887  -0.4788  -0.4624  -0.4592  -0.4565
 -0.3916  -0.3461  -0.2760

          Ground-State Mulliken Net Atomic Charges

     Atom                 Charge (a.u.)
  ----------------------------------------
      1 C                     0.054055
      2 S                     0.083981
      3 C                    -0.271007
      4 C                    -0.107078
      5 C                    -0.008100
      6 C                     0.390962
      7 C                    -0.165031
      8 S                     0.025549
      9 C                     0.459606
     10 O                    -0.457914
     11 O                    -0.298765
     12 F                    -0.214532
     13 C                    -0.055077
     14 H                     0.116116
     15 H                     0.083710
     16 H                     0.083660
     17 C                    -0.375548
     18 H                     0.134194
     19 H                     0.163146
     20 H                     0.148589
     21 H                     0.209483
  ----------------------------------------
  Sum of atomic charges =     0.000000

                    Cartesian Multipole Moments
 -----------------------------------------------------------------
    Charge (ESU x 10^10)
                 0.0000
    Dipole Moment (Debye)
         X      -0.3559      Y       0.5238      Z       3.2299
       Tot       3.2914
    Quadrupole Moments (Debye-Ang)
        XX     -96.1383     XY       2.3150     YY     -81.9723
        XZ      -1.8577     YZ     -11.2489     ZZ     -97.5743

 Total job time:  54.41s(wall), 1938.53s(cpu)
        *  Thank you very much for using Q-Chem.  Have a nice day.  *
