 Q-Chem 5.4, Q-Chem, Inc., Pleasanton, CA (2021)
 Q-Chem 5.4.0 for Intel X86 EM64T Linux

User input:
--------------------------------------------------------------
$molecule
0 1
C	-0.442689	-0.717327	1.021878
S	0.008911	0.060473	2.532578
C	0.795711	1.425273	1.749478
C	0.011411	0.069273	-0.042822
C	0.704511	1.272673	0.343578
C	-0.020389	0.010873	-1.464222
C	0.611911	1.106373	-2.085022
S	1.232811	2.188373	-0.943822
C	0.743211	1.324373	-3.538122
O	0.279011	0.514473	-4.328422
O	1.387611	2.434073	-3.982522
F	-0.573989	-0.955927	-2.224422
C	1.575811	2.739673	-5.313122
H	2.128811	3.696273	-5.348422
H	0.609511	2.847873	-5.853722
H	2.159211	1.952473	-5.840022
C	-0.442689	-2.152527	1.021878
H	-1.454589	-2.161527	1.399178
H	-0.728889	-2.836427	0.236578
H	-0.112289	-2.676927	1.906278
H	1.255711	2.221973	2.343378
$end

$rem
JOBTYPE		SP
EXCHANGE	HF
CORRELATION	pRIMP2
BASIS		cc-pvtz
METHOD		rimp2
AUX_BASIS	rimp2-cc-pvtz
SOLVENT_METHOD	PCM
PURECART	11111
SYMMETRY	false
MEM_TOTAL	110000
SCF_CONVERGENCE = 6
THRESH=10
GUI = 2
$end

$solvent
dielectric 4.90
$end
--------------------------------------------------------------

             Standard Nuclear Orientation (Angstroms)
    I     Atom           X                Y                Z
 ----------------------------------------------------------------
    1      C      -0.4426890000    -0.7173270000     1.0218780000
    2      S       0.0089110000     0.0604730000     2.5325780000
    3      C       0.7957110000     1.4252730000     1.7494780000
    4      C       0.0114110000     0.0692730000    -0.0428220000
    5      C       0.7045110000     1.2726730000     0.3435780000
    6      C      -0.0203890000     0.0108730000    -1.4642220000
    7      C       0.6119110000     1.1063730000    -2.0850220000
    8      S       1.2328110000     2.1883730000    -0.9438220000
    9      C       0.7432110000     1.3243730000    -3.5381220000
   10      O       0.2790110000     0.5144730000    -4.3284220000
   11      O       1.3876110000     2.4340730000    -3.9825220000
   12      F      -0.5739890000    -0.9559270000    -2.2244220000
   13      C       1.5758110000     2.7396730000    -5.3131220000
   14      H       2.1288110000     3.6962730000    -5.3484220000
   15      H       0.6095110000     2.8478730000    -5.8537220000
   16      H       2.1592110000     1.9524730000    -5.8400220000
   17      C      -0.4426890000    -2.1525270000     1.0218780000
   18      H      -1.4545890000    -2.1615270000     1.3991780000
   19      H      -0.7288890000    -2.8364270000     0.2365780000
   20      H      -0.1122890000    -2.6769270000     1.9062780000
   21      H       1.2557110000     2.2219730000     2.3433780000
 ----------------------------------------------------------------

   11   -1389.2327766936      5.14e-07  Convergence criterion met
 Total energy in the final basis set =    -1389.2327766936
        RIMP2         total energy =     -1391.7424741714 a.u.

                    Orbital Energies (a.u.)
 --------------------------------------------------------------

 Alpha MOs
 -- Occupied --
-92.0064 -91.9894 -26.3334 -20.6099 -20.5465 -11.4071 -11.3752 -11.3076
-11.2914 -11.2902 -11.2874 -11.2832 -11.2689 -11.2280  -9.0054  -8.9936
 -6.6862  -6.6855  -6.6851  -6.6749  -6.6742  -6.6729  -1.6464  -1.4695
 -1.3644  -1.2270  -1.1474  -1.0657  -1.0282  -1.0048  -0.9680  -0.9101
 -0.8635  -0.7961  -0.7844  -0.7671  -0.7260  -0.7143  -0.6948  -0.6767
 -0.6761  -0.6678  -0.6088  -0.6037  -0.5920  -0.5869  -0.5855  -0.5589
 -0.5304  -0.5259  -0.5153  -0.4930  -0.4797  -0.4604  -0.4576  -0.4553
 -0.3872  -0.3461  -0.2736

          Ground-State Mulliken Net Atomic Charges

     Atom                 Charge (a.u.)
  ----------------------------------------
      1 C                    -0.009309
      2 S                     0.086232
      3 C                    -0.251092
      4 C                    -0.061803
      5 C                    -0.014506
      6 C                     0.374038
      7 C                    -0.164516
      8 S                     0.029363
      9 C                     0.457239
     10 O                    -0.455762
     11 O                    -0.298673
     12 F                    -0.211576
     13 C                    -0.054868
     14 H                     0.116133
     15 H                     0.083780
     16 H                     0.083781
     17 C                    -0.377685
     18 H                     0.139345
     19 H                     0.166575
     20 H                     0.151826
     21 H                     0.211476
  ----------------------------------------
  Sum of atomic charges =     0.000000

                    Cartesian Multipole Moments
 -----------------------------------------------------------------
    Charge (ESU x 10^10)
                -0.0000
    Dipole Moment (Debye)
         X       0.7142      Y       0.5708      Z       3.8520
       Tot       3.9590
    Quadrupole Moments (Debye-Ang)
        XX     -93.7229     XY       6.0652     YY     -84.8229
        XZ      -5.7579     YZ     -11.0543     ZZ     -95.6130

 Total job time:  54.45s(wall), 1956.55s(cpu)
        *  Thank you very much for using Q-Chem.  Have a nice day.  *
