 Q-Chem 5.4, Q-Chem, Inc., Pleasanton, CA (2021)
 Q-Chem 5.4.0 for Intel X86 EM64T Linux

User input:
--------------------------------------------------------------
$molecule
0 1
C	-0.001137	-0.836989	1.025187
S	0.001063	0.062411	2.535887
C	0.000063	1.637711	1.752787
C	-0.001137	0.071211	-0.039513
C	-0.002637	1.460011	0.346887
C	0.000463	0.004811	-1.460913
C	0.000363	1.269711	-2.081713
S	-0.002937	2.517211	-0.940513
C	0.005063	1.524111	-3.534813
O	0.008063	0.590611	-4.325113
O	0.008263	2.807311	-3.979213
F	0.004363	-1.109289	-2.221113
C	0.018463	3.166011	-5.309813
H	0.019063	4.271011	-5.345113
H	-0.872537	2.776711	-5.850413
H	0.917363	2.776111	-5.836713
C	-0.001137	-2.272189	1.025187
H	-0.197037	-2.281189	-0.036913
H	0.821963	-2.956089	0.879687
H	-0.929537	-2.796589	1.196987
H	0.000063	2.557811	2.346687
$end

$rem
JOBTYPE		SP
EXCHANGE	HF
CORRELATION	pRIMP2
BASIS		cc-pvtz
METHOD		rimp2
AUX_BASIS	rimp2-cc-pvtz
SOLVENT_METHOD	PCM
PURECART	11111
SYMMETRY	false
MEM_TOTAL	110000
SCF_CONVERGENCE = 6
THRESH=10
GUI = 2
$end

$solvent
dielectric 4.90
$end
--------------------------------------------------------------

             Standard Nuclear Orientation (Angstroms)
    I     Atom           X                Y                Z
 ----------------------------------------------------------------
    1      C      -0.0011370000    -0.8369890000     1.0251870000
    2      S       0.0010630000     0.0624110000     2.5358870000
    3      C       0.0000630000     1.6377110000     1.7527870000
    4      C      -0.0011370000     0.0712110000    -0.0395130000
    5      C      -0.0026370000     1.4600110000     0.3468870000
    6      C       0.0004630000     0.0048110000    -1.4609130000
    7      C       0.0003630000     1.2697110000    -2.0817130000
    8      S      -0.0029370000     2.5172110000    -0.9405130000
    9      C       0.0050630000     1.5241110000    -3.5348130000
   10      O       0.0080630000     0.5906110000    -4.3251130000
   11      O       0.0082630000     2.8073110000    -3.9792130000
   12      F       0.0043630000    -1.1092890000    -2.2211130000
   13      C       0.0184630000     3.1660110000    -5.3098130000
   14      H       0.0190630000     4.2710110000    -5.3451130000
   15      H      -0.8725370000     2.7767110000    -5.8504130000
   16      H       0.9173630000     2.7761110000    -5.8367130000
   17      C      -0.0011370000    -2.2721890000     1.0251870000
   18      H      -0.1970370000    -2.2811890000    -0.0369130000
   19      H       0.8219630000    -2.9560890000     0.8796870000
   20      H      -0.9295370000    -2.7965890000     1.1969870000
   21      H       0.0000630000     2.5578110000     2.3466870000
 ----------------------------------------------------------------

   11   -1389.2547185132      4.98e-07  Convergence criterion met
 Total energy in the final basis set =    -1389.2547185132
        RIMP2         total energy =     -1391.7617884579 a.u.

                    Orbital Energies (a.u.)
 --------------------------------------------------------------

 Alpha MOs
 -- Occupied --
-92.0039 -91.9908 -26.3357 -20.6110 -20.5483 -11.4087 -11.3767 -11.3089
-11.2930 -11.2915 -11.2880 -11.2836 -11.2739 -11.2278  -9.0028  -8.9950
 -6.6835  -6.6829  -6.6826  -6.6762  -6.6756  -6.6742  -1.6490  -1.4707
 -1.3658  -1.2280  -1.1451  -1.0679  -1.0271  -1.0064  -0.9687  -0.9117
 -0.8638  -0.7960  -0.7867  -0.7672  -0.7268  -0.7168  -0.6976  -0.6785
 -0.6777  -0.6694  -0.6091  -0.6048  -0.5975  -0.5880  -0.5777  -0.5707
 -0.5448  -0.5248  -0.5048  -0.4813  -0.4717  -0.4634  -0.4605  -0.4533
 -0.3975  -0.3453  -0.2826

          Ground-State Mulliken Net Atomic Charges

     Atom                 Charge (a.u.)
  ----------------------------------------
      1 C                     0.047155
      2 S                     0.080364
      3 C                    -0.251650
      4 C                    -0.101334
      5 C                    -0.012059
      6 C                     0.379872
      7 C                    -0.146460
      8 S                     0.029724
      9 C                     0.458164
     10 O                    -0.454164
     11 O                    -0.298163
     12 F                    -0.214459
     13 C                    -0.055011
     14 H                     0.116476
     15 H                     0.084077
     16 H                     0.084012
     17 C                    -0.368097
     18 H                     0.115388
     19 H                     0.152858
     20 H                     0.142759
     21 H                     0.210548
  ----------------------------------------
  Sum of atomic charges =     0.000000

                    Cartesian Multipole Moments
 -----------------------------------------------------------------
    Charge (ESU x 10^10)
                -0.0000
    Dipole Moment (Debye)
         X      -0.1341      Y       1.1328      Z       2.7789
       Tot       3.0039
    Quadrupole Moments (Debye-Ang)
        XX     -95.8712     XY       0.3120     YY     -82.0620
        XZ      -0.3024     YZ     -10.5725     ZZ     -97.6437

 Total job time:  54.40s(wall), 1934.36s(cpu)
        *  Thank you very much for using Q-Chem.  Have a nice day.  *
