 Q-Chem 5.4, Q-Chem, Inc., Pleasanton, CA (2021)
 Q-Chem 5.4.0 for Intel X86 EM64T Linux

User input:
--------------------------------------------------------------
$molecule
0 1
C	-0.569581	-0.628442	1.021216
S	0.010319	0.059158	2.531916
C	1.022019	1.266558	1.748816
C	0.014219	0.067358	-0.043484
C	0.905719	1.132158	0.342916
C	-0.027181	0.015358	-1.464884
C	0.785719	0.984358	-2.085684
S	1.585019	1.942158	-0.944484
C	0.952819	1.176358	-3.538784
O	0.355119	0.459358	-4.329084
O	1.780119	2.157258	-3.983184
F	-0.740381	-0.840542	-2.225084
C	2.018519	2.425458	-5.313784
H	2.729219	3.271558	-5.349084
H	1.085719	2.699958	-5.854384
H	2.456419	1.548958	-5.840684
C	-0.569581	-2.063642	1.021216
H	-1.391381	-2.072642	1.721816
H	-1.107181	-2.747542	0.381116
H	0.043419	-2.588042	1.739316
H	1.613519	1.971358	2.342716
$end

$rem
JOBTYPE		SP
EXCHANGE	HF
CORRELATION	pRIMP2
BASIS		cc-pvtz
METHOD		rimp2
AUX_BASIS	rimp2-cc-pvtz
SOLVENT_METHOD	PCM
PURECART	11111
SYMMETRY	false
MEM_TOTAL	110000
SCF_CONVERGENCE = 6
THRESH=10
GUI = 2
$end

$solvent
dielectric 4.90
$end
--------------------------------------------------------------

             Standard Nuclear Orientation (Angstroms)
    I     Atom           X                Y                Z
 ----------------------------------------------------------------
    1      C      -0.5695810000    -0.6284420000     1.0212160000
    2      S       0.0103190000     0.0591580000     2.5319160000
    3      C       1.0220190000     1.2665580000     1.7488160000
    4      C       0.0142190000     0.0673580000    -0.0434840000
    5      C       0.9057190000     1.1321580000     0.3429160000
    6      C      -0.0271810000     0.0153580000    -1.4648840000
    7      C       0.7857190000     0.9843580000    -2.0856840000
    8      S       1.5850190000     1.9421580000    -0.9444840000
    9      C       0.9528190000     1.1763580000    -3.5387840000
   10      O       0.3551190000     0.4593580000    -4.3290840000
   11      O       1.7801190000     2.1572580000    -3.9831840000
   12      F      -0.7403810000    -0.8405420000    -2.2250840000
   13      C       2.0185190000     2.4254580000    -5.3137840000
   14      H       2.7292190000     3.2715580000    -5.3490840000
   15      H       1.0857190000     2.6999580000    -5.8543840000
   16      H       2.4564190000     1.5489580000    -5.8406840000
   17      C      -0.5695810000    -2.0636420000     1.0212160000
   18      H      -1.3913810000    -2.0726420000     1.7218160000
   19      H      -1.1071810000    -2.7475420000     0.3811160000
   20      H       0.0434190000    -2.5880420000     1.7393160000
   21      H       1.6135190000     1.9713580000     2.3427160000
 ----------------------------------------------------------------

   11   -1389.2188629577      6.15e-07  Convergence criterion met
 Total energy in the final basis set =    -1389.2188629577
        RIMP2         total energy =     -1391.7340039273 a.u.

                    Orbital Energies (a.u.)
 --------------------------------------------------------------

 Alpha MOs
 -- Occupied --
-92.0071 -91.9924 -26.3327 -20.6113 -20.5492 -11.4092 -11.3741 -11.2953
-11.2939 -11.2935 -11.2919 -11.2881 -11.2721 -11.2226  -9.0062  -8.9965
 -6.6869  -6.6863  -6.6859  -6.6777  -6.6771  -6.6757  -1.6457  -1.4711
 -1.3664  -1.2289  -1.1489  -1.0653  -1.0297  -1.0034  -0.9692  -0.9081
 -0.8653  -0.7967  -0.7850  -0.7691  -0.7269  -0.7140  -0.6948  -0.6779
 -0.6744  -0.6693  -0.6091  -0.6053  -0.5942  -0.5877  -0.5831  -0.5607
 -0.5317  -0.5263  -0.5091  -0.4847  -0.4810  -0.4612  -0.4595  -0.4544
 -0.3864  -0.3456  -0.2790

          Ground-State Mulliken Net Atomic Charges

     Atom                 Charge (a.u.)
  ----------------------------------------
      1 C                    -0.058740
      2 S                     0.091813
      3 C                    -0.223348
      4 C                    -0.030833
      5 C                    -0.016581
      6 C                     0.361440
      7 C                    -0.154656
      8 S                     0.037115
      9 C                     0.457153
     10 O                    -0.451125
     11 O                    -0.298010
     12 F                    -0.210902
     13 C                    -0.054647
     14 H                     0.116419
     15 H                     0.084291
     16 H                     0.084129
     17 C                    -0.376289
     18 H                     0.125465
     19 H                     0.157849
     20 H                     0.146606
     21 H                     0.212849
  ----------------------------------------
  Sum of atomic charges =     0.000000

                    Cartesian Multipole Moments
 -----------------------------------------------------------------
    Charge (ESU x 10^10)
                -0.0000
    Dipole Moment (Debye)
         X       1.7959      Y       1.0736      Z       3.7604
       Tot       4.3033
    Quadrupole Moments (Debye-Ang)
        XX     -92.0246     XY       6.4259     YY     -86.9321
        XZ      -6.7551     YZ      -9.8378     ZZ     -94.3945

 Total job time:  54.52s(wall), 1892.90s(cpu)
        *  Thank you very much for using Q-Chem.  Have a nice day.  *
