 Q-Chem 5.4, Q-Chem, Inc., Pleasanton, CA (2021)
 Q-Chem 5.4.0 for Intel X86 EM64T Linux

User input:
--------------------------------------------------------------
$molecule
0 1
C	-0.078005	-0.833466	1.025038
S	0.002595	0.062334	2.535738
C	0.138795	1.631734	1.752638
C	0.001095	0.071334	-0.039662
C	0.120695	1.454934	0.346738
C	-0.003005	0.005034	-1.461062
C	0.107095	1.265034	-2.081862
S	0.212495	2.508134	-0.940662
C	0.133895	1.518134	-3.534962
O	0.055495	0.587934	-4.325262
O	0.248995	2.796134	-3.979362
F	-0.096205	-1.105166	-2.221262
C	0.290395	3.152634	-5.309962
H	0.387295	4.253334	-5.345262
H	-0.631105	2.842434	-5.850562
H	1.151895	2.685834	-5.836862
C	-0.078005	-2.268666	1.025038
H	-0.455305	-2.277666	0.013138
H	0.707295	-2.952566	0.738838
H	-0.962405	-2.793066	1.355438
H	0.219095	2.548234	2.346538
$end

$rem
JOBTYPE		SP
EXCHANGE	HF
CORRELATION	pRIMP2
BASIS		cc-pvtz
METHOD		rimp2
AUX_BASIS	rimp2-cc-pvtz
SOLVENT_METHOD	PCM
PURECART	11111
SYMMETRY	false
MEM_TOTAL	110000
SCF_CONVERGENCE = 6
THRESH=10
GUI = 2
$end

$solvent
dielectric 4.90
$end
--------------------------------------------------------------

             Standard Nuclear Orientation (Angstroms)
    I     Atom           X                Y                Z
 ----------------------------------------------------------------
    1      C      -0.0780050000    -0.8334660000     1.0250380000
    2      S       0.0025950000     0.0623340000     2.5357380000
    3      C       0.1387950000     1.6317340000     1.7526380000
    4      C       0.0010950000     0.0713340000    -0.0396620000
    5      C       0.1206950000     1.4549340000     0.3467380000
    6      C      -0.0030050000     0.0050340000    -1.4610620000
    7      C       0.1070950000     1.2650340000    -2.0818620000
    8      S       0.2124950000     2.5081340000    -0.9406620000
    9      C       0.1338950000     1.5181340000    -3.5349620000
   10      O       0.0554950000     0.5879340000    -4.3252620000
   11      O       0.2489950000     2.7961340000    -3.9793620000
   12      F      -0.0962050000    -1.1051660000    -2.2212620000
   13      C       0.2903950000     3.1526340000    -5.3099620000
   14      H       0.3872950000     4.2533340000    -5.3452620000
   15      H      -0.6311050000     2.8424340000    -5.8505620000
   16      H       1.1518950000     2.6858340000    -5.8368620000
   17      C      -0.0780050000    -2.2686660000     1.0250380000
   18      H      -0.4553050000    -2.2776660000     0.0131380000
   19      H       0.7072950000    -2.9525660000     0.7388380000
   20      H      -0.9624050000    -2.7930660000     1.3554380000
   21      H       0.2190950000     2.5482340000     2.3465380000
 ----------------------------------------------------------------

   11   -1389.2544194400      4.95e-07  Convergence criterion met
 Total energy in the final basis set =    -1389.2544194400
        RIMP2         total energy =     -1391.7613683706 a.u.

                    Orbital Energies (a.u.)
 --------------------------------------------------------------

 Alpha MOs
 -- Occupied --
-92.0042 -91.9906 -26.3354 -20.6109 -20.5480 -11.4084 -11.3766 -11.3094
-11.2925 -11.2916 -11.2879 -11.2830 -11.2732 -11.2283  -9.0031  -8.9948
 -6.6839  -6.6832  -6.6829  -6.6761  -6.6754  -6.6741  -1.6487  -1.4705
 -1.3656  -1.2278  -1.1451  -1.0678  -1.0271  -1.0064  -0.9686  -0.9117
 -0.8637  -0.7959  -0.7863  -0.7670  -0.7267  -0.7165  -0.6975  -0.6786
 -0.6776  -0.6691  -0.6090  -0.6047  -0.5969  -0.5880  -0.5781  -0.5697
 -0.5446  -0.5247  -0.5050  -0.4813  -0.4742  -0.4627  -0.4603  -0.4540
 -0.3963  -0.3454  -0.2816

          Ground-State Mulliken Net Atomic Charges

     Atom                 Charge (a.u.)
  ----------------------------------------
      1 C                     0.045548
      2 S                     0.081125
      3 C                    -0.254192
      4 C                    -0.101412
      5 C                    -0.011316
      6 C                     0.383688
      7 C                    -0.152313
      8 S                     0.029612
      9 C                     0.458549
     10 O                    -0.454630
     11 O                    -0.298194
     12 F                    -0.214398
     13 C                    -0.055070
     14 H                     0.116425
     15 H                     0.084066
     16 H                     0.083972
     17 C                    -0.368333
     18 H                     0.117695
     19 H                     0.152431
     20 H                     0.146282
     21 H                     0.210467
  ----------------------------------------
  Sum of atomic charges =     0.000000

                    Cartesian Multipole Moments
 -----------------------------------------------------------------
    Charge (ESU x 10^10)
                -0.0000
    Dipole Moment (Debye)
         X      -0.0011      Y       1.0631      Z       2.8351
       Tot       3.0279
    Quadrupole Moments (Debye-Ang)
        XX     -95.8190     XY       1.5056     YY     -82.1371
        XZ      -1.4034     YZ     -10.6041     ZZ     -97.6101

 Total job time:  54.18s(wall), 1942.45s(cpu)
        *  Thank you very much for using Q-Chem.  Have a nice day.  *
