 Q-Chem 5.4, Q-Chem, Inc., Pleasanton, CA (2021)
 Q-Chem 5.4.0 for Intel X86 EM64T Linux

User input:
--------------------------------------------------------------
$molecule
0 1
C	-0.230512	-0.806326	1.025187
S	0.004388	0.061874	2.535887
C	0.411088	1.583774	1.752787
C	0.004488	0.070974	-0.039513
C	0.362488	1.412774	0.346887
C	-0.011012	0.006374	-1.460913
C	0.316188	1.228174	-2.081713
S	0.635788	2.434074	-0.940513
C	0.386588	1.472774	-3.534813
O	0.147788	0.570274	-4.325113
O	0.721788	2.711374	-3.979213
F	-0.295612	-1.070726	-2.221113
C	0.824488	3.055274	-5.309813
H	1.110988	4.122374	-5.345113
H	-0.136912	2.909774	-5.850413
H	1.591788	2.445874	-5.836713
C	-0.230512	-2.241526	1.025187
H	-0.426412	-2.250526	-0.036913
H	0.592588	-2.925426	0.879687
H	-1.158912	-2.765926	1.196987
H	0.649288	2.472474	2.346687
$end

$rem
JOBTYPE		SP
EXCHANGE	HF
CORRELATION	pRIMP2
BASIS		cc-pvtz
METHOD		rimp2
AUX_BASIS	rimp2-cc-pvtz
SOLVENT_METHOD	PCM
PURECART	11111
SYMMETRY	false
MEM_TOTAL	110000
SCF_CONVERGENCE = 6
THRESH=10
GUI = 2
$end

$solvent
dielectric 4.90
$end
--------------------------------------------------------------

             Standard Nuclear Orientation (Angstroms)
    I     Atom           X                Y                Z
 ----------------------------------------------------------------
    1      C      -0.2305120000    -0.8063260000     1.0251870000
    2      S       0.0043880000     0.0618740000     2.5358870000
    3      C       0.4110880000     1.5837740000     1.7527870000
    4      C       0.0044880000     0.0709740000    -0.0395130000
    5      C       0.3624880000     1.4127740000     0.3468870000
    6      C      -0.0110120000     0.0063740000    -1.4609130000
    7      C       0.3161880000     1.2281740000    -2.0817130000
    8      S       0.6357880000     2.4340740000    -0.9405130000
    9      C       0.3865880000     1.4727740000    -3.5348130000
   10      O       0.1477880000     0.5702740000    -4.3251130000
   11      O       0.7217880000     2.7113740000    -3.9792130000
   12      F      -0.2956120000    -1.0707260000    -2.2211130000
   13      C       0.8244880000     3.0552740000    -5.3098130000
   14      H       1.1109880000     4.1223740000    -5.3451130000
   15      H      -0.1369120000     2.9097740000    -5.8504130000
   16      H       1.5917880000     2.4458740000    -5.8367130000
   17      C      -0.2305120000    -2.2415260000     1.0251870000
   18      H      -0.4264120000    -2.2505260000    -0.0369130000
   19      H       0.5925880000    -2.9254260000     0.8796870000
   20      H      -1.1589120000    -2.7659260000     1.1969870000
   21      H       0.6492880000     2.4724740000     2.3466870000
 ----------------------------------------------------------------

   11   -1389.2500842357      5.18e-07  Convergence criterion met
 Total energy in the final basis set =    -1389.2500842357
        RIMP2         total energy =     -1391.7587949361 a.u.

                    Orbital Energies (a.u.)
 --------------------------------------------------------------

 Alpha MOs
 -- Occupied --
-92.0035 -91.9915 -26.3356 -20.6113 -20.5487 -11.4090 -11.3765 -11.3055
-11.2940 -11.2917 -11.2881 -11.2859 -11.2748 -11.2264  -9.0025  -8.9956
 -6.6832  -6.6826  -6.6822  -6.6769  -6.6762  -6.6748  -1.6489  -1.4709
 -1.3661  -1.2284  -1.1453  -1.0678  -1.0272  -1.0059  -0.9689  -0.9114
 -0.8641  -0.7960  -0.7868  -0.7675  -0.7269  -0.7167  -0.6973  -0.6783
 -0.6779  -0.6697  -0.6079  -0.6051  -0.5981  -0.5888  -0.5778  -0.5691
 -0.5441  -0.5250  -0.5053  -0.4815  -0.4726  -0.4623  -0.4606  -0.4511
 -0.3974  -0.3451  -0.2833

          Ground-State Mulliken Net Atomic Charges

     Atom                 Charge (a.u.)
  ----------------------------------------
      1 C                     0.029718
      2 S                     0.083973
      3 C                    -0.246770
      4 C                    -0.099987
      5 C                    -0.010867
      6 C                     0.373012
      7 C                    -0.147298
      8 S                     0.032884
      9 C                     0.457824
     10 O                    -0.453142
     11 O                    -0.297994
     12 F                    -0.213621
     13 C                    -0.054898
     14 H                     0.116522
     15 H                     0.084184
     16 H                     0.084035
     17 C                    -0.356017
     18 H                     0.113125
     19 H                     0.153679
     20 H                     0.141074
     21 H                     0.210563
  ----------------------------------------
  Sum of atomic charges =     0.000000

                    Cartesian Multipole Moments
 -----------------------------------------------------------------
    Charge (ESU x 10^10)
                -0.0000
    Dipole Moment (Debye)
         X       0.6556      Y       1.2294      Z       2.7293
       Tot       3.0644
    Quadrupole Moments (Debye-Ang)
        XX     -95.1771     XY       2.8437     YY     -82.8744
        XZ      -2.8703     YZ     -10.1130     ZZ     -97.4505

 Total job time:  53.45s(wall), 1936.18s(cpu)
        *  Thank you very much for using Q-Chem.  Have a nice day.  *
