 Q-Chem 5.4, Q-Chem, Inc., Pleasanton, CA (2021)
 Q-Chem 5.4.0 for Intel X86 EM64T Linux

User input:
--------------------------------------------------------------
$molecule
0 1
C	-0.080360	-0.833466	1.024882
S	0.000240	0.062334	2.535582
C	0.136440	1.631734	1.752482
C	-0.001260	0.071334	-0.039818
C	0.118340	1.454934	0.346582
C	-0.005360	0.005034	-1.461218
C	0.104740	1.265034	-2.082018
S	0.210140	2.508134	-0.940818
C	0.131540	1.518134	-3.535118
O	0.053140	0.587934	-4.325418
O	0.246640	2.796134	-3.979518
F	-0.098560	-1.105166	-2.221418
C	0.288040	3.152634	-5.310118
H	0.384940	4.253334	-5.345418
H	-0.633460	2.842434	-5.850718
H	1.149540	2.685834	-5.837018
C	-0.080360	-2.268666	1.024882
H	0.607340	-2.277666	0.192182
H	0.560140	-2.952566	1.561882
H	-0.808760	-2.793066	0.424182
H	0.216740	2.548234	2.346382
$end

$rem
JOBTYPE		SP
EXCHANGE	HF
CORRELATION	pRIMP2
BASIS		cc-pvtz
METHOD		rimp2
AUX_BASIS	rimp2-cc-pvtz
SOLVENT_METHOD	PCM
PURECART	11111
SYMMETRY	false
MEM_TOTAL	110000
SCF_CONVERGENCE = 6
THRESH=10
GUI = 2
$end

$solvent
dielectric 4.90
$end
--------------------------------------------------------------

             Standard Nuclear Orientation (Angstroms)
    I     Atom           X                Y                Z
 ----------------------------------------------------------------
    1      C      -0.0803600000    -0.8334660000     1.0248820000
    2      S       0.0002400000     0.0623340000     2.5355820000
    3      C       0.1364400000     1.6317340000     1.7524820000
    4      C      -0.0012600000     0.0713340000    -0.0398180000
    5      C       0.1183400000     1.4549340000     0.3465820000
    6      C      -0.0053600000     0.0050340000    -1.4612180000
    7      C       0.1047400000     1.2650340000    -2.0820180000
    8      S       0.2101400000     2.5081340000    -0.9408180000
    9      C       0.1315400000     1.5181340000    -3.5351180000
   10      O       0.0531400000     0.5879340000    -4.3254180000
   11      O       0.2466400000     2.7961340000    -3.9795180000
   12      F      -0.0985600000    -1.1051660000    -2.2214180000
   13      C       0.2880400000     3.1526340000    -5.3101180000
   14      H       0.3849400000     4.2533340000    -5.3454180000
   15      H      -0.6334600000     2.8424340000    -5.8507180000
   16      H       1.1495400000     2.6858340000    -5.8370180000
   17      C      -0.0803600000    -2.2686660000     1.0248820000
   18      H       0.6073400000    -2.2776660000     0.1921820000
   19      H       0.5601400000    -2.9525660000     1.5618820000
   20      H      -0.8087600000    -2.7930660000     0.4241820000
   21      H       0.2167400000     2.5482340000     2.3463820000
 ----------------------------------------------------------------

   11   -1389.2547015204      4.65e-07  Convergence criterion met
 Total energy in the final basis set =    -1389.2547015204
        RIMP2         total energy =     -1391.7602602580 a.u.

                    Orbital Energies (a.u.)
 --------------------------------------------------------------

 Alpha MOs
 -- Occupied --
-92.0058 -91.9897 -26.3351 -20.6101 -20.5466 -11.4072 -11.3766 -11.3150
-11.2918 -11.2898 -11.2876 -11.2781 -11.2702 -11.2315  -9.0045  -8.9939
 -6.6852  -6.6846  -6.6842  -6.6751  -6.6745  -6.6731  -1.6482  -1.4696
 -1.3646  -1.2271  -1.1457  -1.0681  -1.0266  -1.0066  -0.9680  -0.9116
 -0.8630  -0.7955  -0.7855  -0.7661  -0.7262  -0.7160  -0.6973  -0.6781
 -0.6769  -0.6682  -0.6100  -0.6037  -0.5958  -0.5878  -0.5851  -0.5650
 -0.5416  -0.5241  -0.5050  -0.4849  -0.4766  -0.4641  -0.4597  -0.4566
 -0.3927  -0.3458  -0.2776

          Ground-State Mulliken Net Atomic Charges

     Atom                 Charge (a.u.)
  ----------------------------------------
      1 C                     0.052478
      2 S                     0.082874
      3 C                    -0.267800
      4 C                    -0.097551
      5 C                    -0.010213
      6 C                     0.384878
      7 C                    -0.161210
      8 S                     0.027541
      9 C                     0.458685
     10 O                    -0.457016
     11 O                    -0.298627
     12 F                    -0.214233
     13 C                    -0.055060
     14 H                     0.116205
     15 H                     0.083864
     16 H                     0.083683
     17 C                    -0.380421
     18 H                     0.130123
     19 H                     0.166881
     20 H                     0.145408
     21 H                     0.209513
  ----------------------------------------
  Sum of atomic charges =     0.000000

                    Cartesian Multipole Moments
 -----------------------------------------------------------------
    Charge (ESU x 10^10)
                -0.0000
    Dipole Moment (Debye)
         X       0.6644      Y       0.6404      Z       3.0784
       Tot       3.2137
    Quadrupole Moments (Debye-Ang)
        XX     -96.1611     XY      -0.3115     YY     -82.0056
        XZ      -0.1563     YZ     -11.1940     ZZ     -97.7043

 Total job time:  60.67s(wall), 2363.80s(cpu)
        *  Thank you very much for using Q-Chem.  Have a nice day.  *
