 Q-Chem 5.4, Q-Chem, Inc., Pleasanton, CA (2021)
 Q-Chem 5.4.0 for Intel X86 EM64T Linux

User input:
--------------------------------------------------------------
$molecule
0 1
C	-0.571470	-0.628442	1.020573
S	0.008430	0.059158	2.531273
C	1.020130	1.266558	1.748173
C	0.012330	0.067358	-0.044127
C	0.903830	1.132158	0.342273
C	-0.029070	0.015358	-1.465527
C	0.783830	0.984358	-2.086327
S	1.583130	1.942158	-0.945127
C	0.950930	1.176358	-3.539427
O	0.353230	0.459358	-4.329727
O	1.778230	2.157258	-3.983827
F	-0.742270	-0.840542	-2.225727
C	2.016630	2.425458	-5.314427
H	2.727330	3.271558	-5.349727
H	1.083830	2.699958	-5.855027
H	2.454530	1.548958	-5.841327
C	-0.571470	-2.063642	1.020573
H	-0.562970	-2.072642	2.100473
H	-1.407370	-2.747542	1.020973
H	0.372630	-2.588042	1.012573
H	1.611630	1.971358	2.342073
$end

$rem
JOBTYPE		SP
EXCHANGE	HF
CORRELATION	pRIMP2
BASIS		cc-pvtz
METHOD		rimp2
AUX_BASIS	rimp2-cc-pvtz
SOLVENT_METHOD	PCM
PURECART	11111
SYMMETRY	false
MEM_TOTAL	110000
SCF_CONVERGENCE = 6
THRESH=10
GUI = 2
$end

$solvent
dielectric 4.90
$end
--------------------------------------------------------------

             Standard Nuclear Orientation (Angstroms)
    I     Atom           X                Y                Z
 ----------------------------------------------------------------
    1      C      -0.5714700000    -0.6284420000     1.0205730000
    2      S       0.0084300000     0.0591580000     2.5312730000
    3      C       1.0201300000     1.2665580000     1.7481730000
    4      C       0.0123300000     0.0673580000    -0.0441270000
    5      C       0.9038300000     1.1321580000     0.3422730000
    6      C      -0.0290700000     0.0153580000    -1.4655270000
    7      C       0.7838300000     0.9843580000    -2.0863270000
    8      S       1.5831300000     1.9421580000    -0.9451270000
    9      C       0.9509300000     1.1763580000    -3.5394270000
   10      O       0.3532300000     0.4593580000    -4.3297270000
   11      O       1.7782300000     2.1572580000    -3.9838270000
   12      F      -0.7422700000    -0.8405420000    -2.2257270000
   13      C       2.0166300000     2.4254580000    -5.3144270000
   14      H       2.7273300000     3.2715580000    -5.3497270000
   15      H       1.0838300000     2.6999580000    -5.8550270000
   16      H       2.4545300000     1.5489580000    -5.8413270000
   17      C      -0.5714700000    -2.0636420000     1.0205730000
   18      H      -0.5629700000    -2.0726420000     2.1004730000
   19      H      -1.4073700000    -2.7475420000     1.0209730000
   20      H       0.3726300000    -2.5880420000     1.0125730000
   21      H       1.6116300000     1.9713580000     2.3420730000
 ----------------------------------------------------------------

   11   -1389.2194889637      6.30e-07  Convergence criterion met
 Total energy in the final basis set =    -1389.2194889637
        RIMP2         total energy =     -1391.7352653251 a.u.

                    Orbital Energies (a.u.)
 --------------------------------------------------------------

 Alpha MOs
 -- Occupied --
-92.0076 -91.9938 -26.3325 -20.6120 -20.5505 -11.4103 -11.3737 -11.2979
-11.2972 -11.2920 -11.2889 -11.2885 -11.2742 -11.2217  -9.0067  -8.9978
 -6.6874  -6.6866  -6.6863  -6.6791  -6.6784  -6.6771  -1.6455  -1.4719
 -1.3673  -1.2299  -1.1504  -1.0655  -1.0312  -1.0027  -0.9700  -0.9059
 -0.8666  -0.7975  -0.7851  -0.7705  -0.7275  -0.7140  -0.6956  -0.6784
 -0.6746  -0.6700  -0.6089  -0.6060  -0.5984  -0.5891  -0.5752  -0.5640
 -0.5391  -0.5263  -0.5067  -0.4839  -0.4701  -0.4616  -0.4612  -0.4531
 -0.3933  -0.3435  -0.2861

          Ground-State Mulliken Net Atomic Charges

     Atom                 Charge (a.u.)
  ----------------------------------------
      1 C                    -0.019338
      2 S                     0.093188
      3 C                    -0.220193
      4 C                    -0.071186
      5 C                    -0.010931
      6 C                     0.357282
      7 C                    -0.149626
      8 S                     0.041822
      9 C                     0.455951
     10 O                    -0.448757
     11 O                    -0.297710
     12 F                    -0.210363
     13 C                    -0.054639
     14 H                     0.116568
     15 H                     0.084553
     16 H                     0.084341
     17 C                    -0.357258
     18 H                     0.111136
     19 H                     0.142408
     20 H                     0.138886
     21 H                     0.213865
  ----------------------------------------
  Sum of atomic charges =     0.000000

                    Cartesian Multipole Moments
 -----------------------------------------------------------------
    Charge (ESU x 10^10)
                -0.0000
    Dipole Moment (Debye)
         X       2.4977      Y       1.4067      Z       3.8453
       Tot       4.7962
    Quadrupole Moments (Debye-Ang)
        XX     -92.1854     XY       5.2763     YY     -87.1562
        XZ      -6.6996     YZ     -10.2883     ZZ     -93.6726

 Total job time:  56.07s(wall), 1912.45s(cpu)
        *  Thank you very much for using Q-Chem.  Have a nice day.  *
