 Q-Chem 5.4, Q-Chem, Inc., Pleasanton, CA (2021)
 Q-Chem 5.4.0 for Intel X86 EM64T Linux

User input:
--------------------------------------------------------------
$molecule
0 1
C	-0.570959	-0.628442	1.025267
S	0.008941	0.059158	2.535967
C	1.020641	1.266558	1.752867
C	0.012841	0.067358	-0.039433
C	0.904341	1.132158	0.346967
C	-0.028559	0.015358	-1.460833
C	0.784341	0.984358	-2.081633
S	1.583641	1.942158	-0.940433
C	0.951441	1.176358	-3.534733
O	0.353741	0.459358	-4.325033
O	1.778741	2.157258	-3.979133
F	-0.741759	-0.840542	-2.221033
C	2.017141	2.425458	-5.309733
H	2.727841	3.271558	-5.345033
H	1.084341	2.699958	-5.850333
H	2.455041	1.548958	-5.836633
C	-0.570959	-2.063642	1.025267
H	-0.579459	-2.072642	-0.054633
H	0.264941	-2.747542	1.024867
H	-1.515059	-2.588042	1.033267
H	1.612141	1.971358	2.346767
$end

$rem
JOBTYPE		SP
EXCHANGE	HF
CORRELATION	pRIMP2
BASIS		cc-pvtz
METHOD		rimp2
AUX_BASIS	rimp2-cc-pvtz
SOLVENT_METHOD	PCM
PURECART	11111
SYMMETRY	false
MEM_TOTAL	110000
SCF_CONVERGENCE = 6
THRESH=10
GUI = 2
$end

$solvent
dielectric 4.90
$end
--------------------------------------------------------------

             Standard Nuclear Orientation (Angstroms)
    I     Atom           X                Y                Z
 ----------------------------------------------------------------
    1      C      -0.5709590000    -0.6284420000     1.0252670000
    2      S       0.0089410000     0.0591580000     2.5359670000
    3      C       1.0206410000     1.2665580000     1.7528670000
    4      C       0.0128410000     0.0673580000    -0.0394330000
    5      C       0.9043410000     1.1321580000     0.3469670000
    6      C      -0.0285590000     0.0153580000    -1.4608330000
    7      C       0.7843410000     0.9843580000    -2.0816330000
    8      S       1.5836410000     1.9421580000    -0.9404330000
    9      C       0.9514410000     1.1763580000    -3.5347330000
   10      O       0.3537410000     0.4593580000    -4.3250330000
   11      O       1.7787410000     2.1572580000    -3.9791330000
   12      F      -0.7417590000    -0.8405420000    -2.2210330000
   13      C       2.0171410000     2.4254580000    -5.3097330000
   14      H       2.7278410000     3.2715580000    -5.3450330000
   15      H       1.0843410000     2.6999580000    -5.8503330000
   16      H       2.4550410000     1.5489580000    -5.8366330000
   17      C      -0.5709590000    -2.0636420000     1.0252670000
   18      H      -0.5794590000    -2.0726420000    -0.0546330000
   19      H       0.2649410000    -2.7475420000     1.0248670000
   20      H      -1.5150590000    -2.5880420000     1.0332670000
   21      H       1.6121410000     1.9713580000     2.3467670000
 ----------------------------------------------------------------

   11   -1389.2214833103      6.48e-07  Convergence criterion met
 Total energy in the final basis set =    -1389.2214833103
        RIMP2         total energy =     -1391.7386840118 a.u.

                    Orbital Energies (a.u.)
 --------------------------------------------------------------

 Alpha MOs
 -- Occupied --
-92.0031 -91.9956 -26.3352 -20.6128 -20.5516 -11.4115 -11.3754 -11.2998
-11.2981 -11.2927 -11.2890 -11.2878 -11.2785 -11.2203  -9.0023  -8.9995
 -6.6830  -6.6822  -6.6820  -6.6808  -6.6801  -6.6788  -1.6485  -1.4727
 -1.3683  -1.2314  -1.1482  -1.0691  -1.0283  -1.0032  -0.9702  -0.9088
 -0.8656  -0.7964  -0.7878  -0.7697  -0.7280  -0.7169  -0.6972  -0.6792
 -0.6772  -0.6716  -0.6073  -0.6048  -0.6006  -0.5906  -0.5804  -0.5643
 -0.5386  -0.5266  -0.5079  -0.4836  -0.4699  -0.4627  -0.4616  -0.4432
 -0.3948  -0.3436  -0.2874

          Ground-State Mulliken Net Atomic Charges

     Atom                 Charge (a.u.)
  ----------------------------------------
      1 C                    -0.041765
      2 S                     0.095084
      3 C                    -0.214388
      4 C                    -0.062265
      5 C                    -0.016503
      6 C                     0.345056
      7 C                    -0.135712
      8 S                     0.046910
      9 C                     0.456173
     10 O                    -0.448082
     11 O                    -0.297459
     12 F                    -0.211082
     13 C                    -0.054594
     14 H                     0.116823
     15 H                     0.084712
     16 H                     0.084436
     17 C                    -0.350345
     18 H                     0.110121
     19 H                     0.155542
     20 H                     0.125211
     21 H                     0.212126
  ----------------------------------------
  Sum of atomic charges =     0.000000

                    Cartesian Multipole Moments
 -----------------------------------------------------------------
    Charge (ESU x 10^10)
                -0.0000
    Dipole Moment (Debye)
         X       2.5499      Y       1.5018      Z       2.5076
       Tot       3.8788
    Quadrupole Moments (Debye-Ang)
        XX     -92.0238     XY       5.1765     YY     -87.0377
        XZ      -6.1342     YZ      -7.7033     ZZ     -96.1897

 Total job time:  57.33s(wall), 2021.24s(cpu)
        *  Thank you very much for using Q-Chem.  Have a nice day.  *
