 Q-Chem 5.4, Q-Chem, Inc., Pleasanton, CA (2021)
 Q-Chem 5.4.0 for Intel X86 EM64T Linux

User input:
--------------------------------------------------------------
$molecule
0 1
C	-0.569902	-0.628442	1.020958
S	0.009998	0.059158	2.531658
C	1.021698	1.266558	1.748558
C	0.013898	0.067358	-0.043742
C	0.905398	1.132158	0.342658
C	-0.027502	0.015358	-1.465142
C	0.785398	0.984358	-2.085942
S	1.584698	1.942158	-0.944742
C	0.952498	1.176358	-3.539042
O	0.354798	0.459358	-4.329342
O	1.779798	2.157258	-3.983442
F	-0.740702	-0.840542	-2.225342
C	2.018198	2.425458	-5.314042
H	2.728898	3.271558	-5.349342
H	1.085398	2.699958	-5.854642
H	2.456098	1.548958	-5.840942
C	-0.569902	-2.063642	1.020958
H	-1.257602	-2.072642	1.853658
H	-1.210402	-2.747542	0.483958
H	0.158498	-2.588042	1.621658
H	1.613198	1.971358	2.342458
$end

$rem
JOBTYPE		SP
EXCHANGE	HF
CORRELATION	pRIMP2
BASIS		cc-pvtz
METHOD		rimp2
AUX_BASIS	rimp2-cc-pvtz
SOLVENT_METHOD	PCM
PURECART	11111
SYMMETRY	false
MEM_TOTAL	110000
SCF_CONVERGENCE = 6
THRESH=10
GUI = 2
$end

$solvent
dielectric 4.90
$end
--------------------------------------------------------------

             Standard Nuclear Orientation (Angstroms)
    I     Atom           X                Y                Z
 ----------------------------------------------------------------
    1      C      -0.5699020000    -0.6284420000     1.0209580000
    2      S       0.0099980000     0.0591580000     2.5316580000
    3      C       1.0216980000     1.2665580000     1.7485580000
    4      C       0.0138980000     0.0673580000    -0.0437420000
    5      C       0.9053980000     1.1321580000     0.3426580000
    6      C      -0.0275020000     0.0153580000    -1.4651420000
    7      C       0.7853980000     0.9843580000    -2.0859420000
    8      S       1.5846980000     1.9421580000    -0.9447420000
    9      C       0.9524980000     1.1763580000    -3.5390420000
   10      O       0.3547980000     0.4593580000    -4.3293420000
   11      O       1.7797980000     2.1572580000    -3.9834420000
   12      F      -0.7407020000    -0.8405420000    -2.2253420000
   13      C       2.0181980000     2.4254580000    -5.3140420000
   14      H       2.7288980000     3.2715580000    -5.3493420000
   15      H       1.0853980000     2.6999580000    -5.8546420000
   16      H       2.4560980000     1.5489580000    -5.8409420000
   17      C      -0.5699020000    -2.0636420000     1.0209580000
   18      H      -1.2576020000    -2.0726420000     1.8536580000
   19      H      -1.2104020000    -2.7475420000     0.4839580000
   20      H       0.1584980000    -2.5880420000     1.6216580000
   21      H       1.6131980000     1.9713580000     2.3424580000
 ----------------------------------------------------------------

   11   -1389.2203727320      6.25e-07  Convergence criterion met
 Total energy in the final basis set =    -1389.2203727320
        RIMP2         total energy =     -1391.7356196253 a.u.

                    Orbital Energies (a.u.)
 --------------------------------------------------------------

 Alpha MOs
 -- Occupied --
-92.0078 -91.9929 -26.3326 -20.6116 -20.5496 -11.4096 -11.3739 -11.2962
-11.2954 -11.2921 -11.2915 -11.2882 -11.2725 -11.2224  -9.0068  -8.9970
 -6.6875  -6.6868  -6.6865  -6.6782  -6.6776  -6.6763  -1.6456  -1.4713
 -1.3667  -1.2292  -1.1492  -1.0653  -1.0301  -1.0033  -0.9694  -0.9077
 -0.8656  -0.7969  -0.7851  -0.7694  -0.7271  -0.7139  -0.6950  -0.6781
 -0.6742  -0.6696  -0.6093  -0.6056  -0.5952  -0.5878  -0.5822  -0.5614
 -0.5334  -0.5264  -0.5078  -0.4824  -0.4779  -0.4615  -0.4598  -0.4562
 -0.3879  -0.3456  -0.2814

          Ground-State Mulliken Net Atomic Charges

     Atom                 Charge (a.u.)
  ----------------------------------------
      1 C                    -0.053436
      2 S                     0.094088
      3 C                    -0.221554
      4 C                    -0.036792
      5 C                    -0.015181
      6 C                     0.357571
      7 C                    -0.152202
      8 S                     0.038853
      9 C                     0.456905
     10 O                    -0.450277
     11 O                    -0.297899
     12 F                    -0.210652
     13 C                    -0.054643
     14 H                     0.116475
     15 H                     0.084374
     16 H                     0.084209
     17 C                    -0.369600
     18 H                     0.117368
     19 H                     0.155250
     20 H                     0.143971
     21 H                     0.213170
  ----------------------------------------
  Sum of atomic charges =     0.000000

                    Cartesian Multipole Moments
 -----------------------------------------------------------------
    Charge (ESU x 10^10)
                -0.0000
    Dipole Moment (Debye)
         X       1.9690      Y       1.2097      Z       3.7808
       Tot       4.4311
    Quadrupole Moments (Debye-Ang)
        XX     -91.9842     XY       6.2669     YY     -86.9707
        XZ      -6.6759     YZ      -9.9085     ZZ     -94.1795

 Total job time:  58.27s(wall), 2047.02s(cpu)
        *  Thank you very much for using Q-Chem.  Have a nice day.  *
