 Q-Chem 5.4, Q-Chem, Inc., Pleasanton, CA (2021)
 Q-Chem 5.4.0 for Intel X86 EM64T Linux

User input:
--------------------------------------------------------------
$molecule
0 1
C	-0.003759	-0.836989	1.021608
S	-0.001559	0.062411	2.532308
C	-0.002559	1.637711	1.749208
C	-0.003759	0.071211	-0.043092
C	-0.005259	1.460011	0.343308
C	-0.002159	0.004811	-1.464492
C	-0.002259	1.269711	-2.085292
S	-0.005559	2.517211	-0.944092
C	0.002441	1.524111	-3.538392
O	0.005441	0.590611	-4.328692
O	0.005641	2.807311	-3.982792
F	0.001741	-1.109289	-2.224692
C	0.015841	3.166011	-5.313392
H	0.016441	4.271011	-5.348692
H	-0.875159	2.776711	-5.853992
H	0.914741	2.776111	-5.840292
C	-0.003759	-2.272189	1.021608
H	0.828941	-2.281189	1.709308
H	-0.540759	-2.956089	1.662108
H	0.596941	-2.796589	0.293208
H	-0.002559	2.557811	2.343108
$end

$rem
JOBTYPE		SP
EXCHANGE	HF
CORRELATION	pRIMP2
BASIS		cc-pvtz
METHOD		rimp2
AUX_BASIS	rimp2-cc-pvtz
SOLVENT_METHOD	PCM
PURECART	11111
SYMMETRY	false
MEM_TOTAL	110000
SCF_CONVERGENCE = 6
THRESH=10
GUI = 2
$end

$solvent
dielectric 4.90
$end
--------------------------------------------------------------

             Standard Nuclear Orientation (Angstroms)
    I     Atom           X                Y                Z
 ----------------------------------------------------------------
    1      C      -0.0037590000    -0.8369890000     1.0216080000
    2      S      -0.0015590000     0.0624110000     2.5323080000
    3      C      -0.0025590000     1.6377110000     1.7492080000
    4      C      -0.0037590000     0.0712110000    -0.0430920000
    5      C      -0.0052590000     1.4600110000     0.3433080000
    6      C      -0.0021590000     0.0048110000    -1.4644920000
    7      C      -0.0022590000     1.2697110000    -2.0852920000
    8      S      -0.0055590000     2.5172110000    -0.9440920000
    9      C       0.0024410000     1.5241110000    -3.5383920000
   10      O       0.0054410000     0.5906110000    -4.3286920000
   11      O       0.0056410000     2.8073110000    -3.9827920000
   12      F       0.0017410000    -1.1092890000    -2.2246920000
   13      C       0.0158410000     3.1660110000    -5.3133920000
   14      H       0.0164410000     4.2710110000    -5.3486920000
   15      H      -0.8751590000     2.7767110000    -5.8539920000
   16      H       0.9147410000     2.7761110000    -5.8402920000
   17      C      -0.0037590000    -2.2721890000     1.0216080000
   18      H       0.8289410000    -2.2811890000     1.7093080000
   19      H      -0.5407590000    -2.9560890000     1.6621080000
   20      H       0.5969410000    -2.7965890000     0.2932080000
   21      H      -0.0025590000     2.5578110000     2.3431080000
 ----------------------------------------------------------------

   11   -1389.2549172076      4.40e-07  Convergence criterion met
 Total energy in the final basis set =    -1389.2549172076
        RIMP2         total energy =     -1391.7581835006 a.u.

                    Orbital Energies (a.u.)
 --------------------------------------------------------------

 Alpha MOs
 -- Occupied --
-92.0062 -91.9881 -26.3335 -20.6096 -20.5458 -11.4065 -11.3761 -11.3158
-11.2910 -11.2886 -11.2872 -11.2785 -11.2682 -11.2325  -9.0051  -8.9923
 -6.6859  -6.6854  -6.6848  -6.6737  -6.6730  -6.6716  -1.6464  -1.4691
 -1.3639  -1.2262  -1.1466  -1.0661  -1.0284  -1.0060  -0.9677  -0.9108
 -0.8631  -0.7962  -0.7840  -0.7665  -0.7260  -0.7142  -0.6956  -0.6765
 -0.6764  -0.6672  -0.6097  -0.6032  -0.5972  -0.5861  -0.5829  -0.5611
 -0.5388  -0.5249  -0.5106  -0.4892  -0.4787  -0.4617  -0.4587  -0.4567
 -0.3929  -0.3465  -0.2756

          Ground-State Mulliken Net Atomic Charges

     Atom                 Charge (a.u.)
  ----------------------------------------
      1 C                     0.036116
      2 S                     0.076533
      3 C                    -0.264473
      4 C                    -0.083338
      5 C                    -0.016369
      6 C                     0.399231
      7 C                    -0.167760
      8 S                     0.022891
      9 C                     0.460062
     10 O                    -0.457459
     11 O                    -0.298758
     12 F                    -0.213828
     13 C                    -0.055021
     14 H                     0.116022
     15 H                     0.083778
     16 H                     0.083597
     17 C                    -0.375111
     18 H                     0.133912
     19 H                     0.161452
     20 H                     0.147758
     21 H                     0.210765
  ----------------------------------------
  Sum of atomic charges =     0.000000

                    Cartesian Multipole Moments
 -----------------------------------------------------------------
    Charge (ESU x 10^10)
                -0.0000
    Dipole Moment (Debye)
         X       0.5758      Y       0.5326      Z       4.0923
       Tot       4.1668
    Quadrupole Moments (Debye-Ang)
        XX     -96.3246     XY      -1.2895     YY     -81.9380
        XZ       0.2258     YZ     -13.5231     ZZ     -95.7754

 Total job time:  53.32s(wall), 1903.51s(cpu)
        *  Thank you very much for using Q-Chem.  Have a nice day.  *
