 Q-Chem 5.4, Q-Chem, Inc., Pleasanton, CA (2021)
 Q-Chem 5.4.0 for Intel X86 EM64T Linux

User input:
--------------------------------------------------------------
$molecule
0 1
C	-0.377674	-0.753180	1.021016
S	0.004426	0.061020	2.531716
C	0.669226	1.489220	1.748616
C	0.006126	0.069920	-0.043684
C	0.591726	1.329320	0.342716
C	-0.020474	0.009120	-1.465084
C	0.514026	1.155520	-2.085884
S	1.038226	2.287520	-0.944684
C	0.625826	1.384120	-3.538984
O	0.233926	0.536820	-4.329284
O	1.171026	2.545720	-3.983384
F	-0.487774	-1.002280	-2.225284
C	1.331826	2.866520	-5.313984
H	1.799326	3.867720	-5.349284
H	0.359726	2.890220	-5.854584
H	1.981726	2.133220	-5.840884
C	-0.377674	-2.188380	1.021016
H	0.169626	-2.197380	1.952016
H	-1.101374	-2.872280	1.439216
H	0.435926	-2.712780	0.542016
H	1.058126	2.323020	2.342516
$end

$rem
JOBTYPE		SP
EXCHANGE	HF
CORRELATION	pRIMP2
BASIS		cc-pvtz
METHOD		rimp2
AUX_BASIS	rimp2-cc-pvtz
SOLVENT_METHOD	PCM
PURECART	11111
SYMMETRY	false
MEM_TOTAL	110000
SCF_CONVERGENCE = 6
THRESH=10
GUI = 2
$end

$solvent
dielectric 4.90
$end
--------------------------------------------------------------

             Standard Nuclear Orientation (Angstroms)
    I     Atom           X                Y                Z
 ----------------------------------------------------------------
    1      C      -0.3776740000    -0.7531800000     1.0210160000
    2      S       0.0044260000     0.0610200000     2.5317160000
    3      C       0.6692260000     1.4892200000     1.7486160000
    4      C       0.0061260000     0.0699200000    -0.0436840000
    5      C       0.5917260000     1.3293200000     0.3427160000
    6      C      -0.0204740000     0.0091200000    -1.4650840000
    7      C       0.5140260000     1.1555200000    -2.0858840000
    8      S       1.0382260000     2.2875200000    -0.9446840000
    9      C       0.6258260000     1.3841200000    -3.5389840000
   10      O       0.2339260000     0.5368200000    -4.3292840000
   11      O       1.1710260000     2.5457200000    -3.9833840000
   12      F      -0.4877740000    -1.0022800000    -2.2252840000
   13      C       1.3318260000     2.8665200000    -5.3139840000
   14      H       1.7993260000     3.8677200000    -5.3492840000
   15      H       0.3597260000     2.8902200000    -5.8545840000
   16      H       1.9817260000     2.1332200000    -5.8408840000
   17      C      -0.3776740000    -2.1883800000     1.0210160000
   18      H       0.1696260000    -2.1973800000     1.9520160000
   19      H      -1.1013740000    -2.8722800000     1.4392160000
   20      H       0.4359260000    -2.7127800000     0.5420160000
   21      H       1.0581260000     2.3230200000     2.3425160000
 ----------------------------------------------------------------

   11   -1389.2395406123      5.02e-07  Convergence criterion met
 Total energy in the final basis set =    -1389.2395406123
        RIMP2         total energy =     -1391.7480231202 a.u.

                    Orbital Energies (a.u.)
 --------------------------------------------------------------

 Alpha MOs
 -- Occupied --
-92.0054 -91.9902 -26.3331 -20.6107 -20.5480 -11.4083 -11.3753 -11.3055
-11.2929 -11.2912 -11.2878 -11.2860 -11.2714 -11.2269  -9.0047  -8.9944
 -6.6854  -6.6848  -6.6843  -6.6757  -6.6750  -6.6737  -1.6460  -1.4704
 -1.3655  -1.2279  -1.1485  -1.0655  -1.0298  -1.0043  -0.9687  -0.9083
 -0.8647  -0.7968  -0.7844  -0.7684  -0.7266  -0.7142  -0.6955  -0.6774
 -0.6760  -0.6683  -0.6090  -0.6046  -0.5988  -0.5878  -0.5714  -0.5670
 -0.5435  -0.5251  -0.5076  -0.4848  -0.4790  -0.4607  -0.4592  -0.4534
 -0.3948  -0.3452  -0.2797

          Ground-State Mulliken Net Atomic Charges

     Atom                 Charge (a.u.)
  ----------------------------------------
      1 C                     0.042878
      2 S                     0.081092
      3 C                    -0.246614
      4 C                    -0.103098
      5 C                    -0.011375
      6 C                     0.379663
      7 C                    -0.164020
      8 S                     0.030545
      9 C                     0.458241
     10 O                    -0.453121
     11 O                    -0.298205
     12 F                    -0.211162
     13 C                    -0.054759
     14 H                     0.116288
     15 H                     0.084125
     16 H                     0.083953
     17 C                    -0.376062
     18 H                     0.129916
     19 H                     0.152211
     20 H                     0.148029
     21 H                     0.211473
  ----------------------------------------
  Sum of atomic charges =     0.000000

                    Cartesian Multipole Moments
 -----------------------------------------------------------------
    Charge (ESU x 10^10)
                -0.0000
    Dipole Moment (Debye)
         X       1.6349      Y       0.9875      Z       3.9983
       Tot       4.4311
    Quadrupole Moments (Debye-Ang)
        XX     -94.7265     XY       3.1087     YY     -84.3322
        XZ      -4.5208     YZ     -12.3911     ZZ     -94.7756

 Total job time:  53.43s(wall), 1949.07s(cpu)
        *  Thank you very much for using Q-Chem.  Have a nice day.  *
