 Q-Chem 5.4, Q-Chem, Inc., Pleasanton, CA (2021)
 Q-Chem 5.4.0 for Intel X86 EM64T Linux

User input:
--------------------------------------------------------------
$molecule
0 1
C	-0.373986	-0.753180	1.023483
S	0.008114	0.061020	2.534183
C	0.672914	1.489220	1.751083
C	0.009814	0.069920	-0.041217
C	0.595414	1.329320	0.345183
C	-0.016786	0.009120	-1.462617
C	0.517714	1.155520	-2.083417
S	1.041914	2.287520	-0.942217
C	0.629514	1.384120	-3.536517
O	0.237614	0.536820	-4.326817
O	1.174714	2.545720	-3.980917
F	-0.484086	-1.002280	-2.222817
C	1.335514	2.866520	-5.311517
H	1.803014	3.867720	-5.346817
H	0.363414	2.890220	-5.852117
H	1.985414	2.133220	-5.838417
C	-0.373986	-2.188380	1.023483
H	-1.391686	-2.197380	0.662083
H	-0.088486	-2.872280	0.237883
H	-0.689386	-2.712780	1.913383
H	1.061814	2.323020	2.344983
$end

$rem
JOBTYPE		SP
EXCHANGE	HF
CORRELATION	pRIMP2
BASIS		cc-pvtz
METHOD		rimp2
AUX_BASIS	rimp2-cc-pvtz
SOLVENT_METHOD	PCM
PURECART	11111
SYMMETRY	false
MEM_TOTAL	110000
SCF_CONVERGENCE = 6
THRESH=10
GUI = 2
$end

$solvent
dielectric 4.90
$end
--------------------------------------------------------------

             Standard Nuclear Orientation (Angstroms)
    I     Atom           X                Y                Z
 ----------------------------------------------------------------
    1      C      -0.3739860000    -0.7531800000     1.0234830000
    2      S       0.0081140000     0.0610200000     2.5341830000
    3      C       0.6729140000     1.4892200000     1.7510830000
    4      C       0.0098140000     0.0699200000    -0.0412170000
    5      C       0.5954140000     1.3293200000     0.3451830000
    6      C      -0.0167860000     0.0091200000    -1.4626170000
    7      C       0.5177140000     1.1555200000    -2.0834170000
    8      S       1.0419140000     2.2875200000    -0.9422170000
    9      C       0.6295140000     1.3841200000    -3.5365170000
   10      O       0.2376140000     0.5368200000    -4.3268170000
   11      O       1.1747140000     2.5457200000    -3.9809170000
   12      F      -0.4840860000    -1.0022800000    -2.2228170000
   13      C       1.3355140000     2.8665200000    -5.3115170000
   14      H       1.8030140000     3.8677200000    -5.3468170000
   15      H       0.3634140000     2.8902200000    -5.8521170000
   16      H       1.9854140000     2.1332200000    -5.8384170000
   17      C      -0.3739860000    -2.1883800000     1.0234830000
   18      H      -1.3916860000    -2.1973800000     0.6620830000
   19      H      -0.0884860000    -2.8722800000     0.2378830000
   20      H      -0.6893860000    -2.7127800000     1.9133830000
   21      H       1.0618140000     2.3230200000     2.3449830000
 ----------------------------------------------------------------

   11   -1389.2405431180      4.91e-07  Convergence criterion met
 Total energy in the final basis set =    -1389.2405431180
        RIMP2         total energy =     -1391.7488120010 a.u.

                    Orbital Energies (a.u.)
 --------------------------------------------------------------

 Alpha MOs
 -- Occupied --
-92.0055 -91.9895 -26.3343 -20.6098 -20.5461 -11.4068 -11.3760 -11.3112
-11.2919 -11.2893 -11.2874 -11.2800 -11.2693 -11.2302  -9.0044  -8.9937
 -6.6852  -6.6845  -6.6841  -6.6750  -6.6743  -6.6729  -1.6473  -1.4693
 -1.3642  -1.2269  -1.1464  -1.0668  -1.0271  -1.0057  -0.9678  -0.9111
 -0.8630  -0.7957  -0.7848  -0.7664  -0.7259  -0.7152  -0.6961  -0.6777
 -0.6766  -0.6678  -0.6083  -0.6035  -0.5944  -0.5870  -0.5814  -0.5598
 -0.5390  -0.5230  -0.5138  -0.4938  -0.4795  -0.4603  -0.4577  -0.4543
 -0.3882  -0.3459  -0.2735

          Ground-State Mulliken Net Atomic Charges

     Atom                 Charge (a.u.)
  ----------------------------------------
      1 C                     0.034915
      2 S                     0.093558
      3 C                    -0.264756
      4 C                    -0.105417
      5 C                    -0.006987
      6 C                     0.372066
      7 C                    -0.164383
      8 S                     0.030500
      9 C                     0.457421
     10 O                    -0.456897
     11 O                    -0.298818
     12 F                    -0.212031
     13 C                    -0.054773
     14 H                     0.116107
     15 H                     0.083675
     16 H                     0.083634
     17 C                    -0.376079
     18 H                     0.142588
     19 H                     0.171133
     20 H                     0.145347
     21 H                     0.209196
  ----------------------------------------
  Sum of atomic charges =     0.000000

                    Cartesian Multipole Moments
 -----------------------------------------------------------------
    Charge (ESU x 10^10)
                -0.0000
    Dipole Moment (Debye)
         X       0.3938      Y       0.4747      Z       3.4118
       Tot       3.4671
    Quadrupole Moments (Debye-Ang)
        XX     -94.4047     XY       5.5761     YY     -83.9085
        XZ      -5.3693     YZ     -10.6235     ZZ     -96.8683

 Total job time:  53.46s(wall), 1903.25s(cpu)
        *  Thank you very much for using Q-Chem.  Have a nice day.  *
