 Q-Chem 5.4, Q-Chem, Inc., Pleasanton, CA (2021)
 Q-Chem 5.4.0 for Intel X86 EM64T Linux

User input:
--------------------------------------------------------------
$molecule
0 1
C	-0.375327	-0.753180	1.020760
S	0.006773	0.061020	2.531460
C	0.671573	1.489220	1.748360
C	0.008473	0.069920	-0.043940
C	0.594073	1.329320	0.342460
C	-0.018127	0.009120	-1.465340
C	0.516373	1.155520	-2.086140
S	1.040573	2.287520	-0.944940
C	0.628173	1.384120	-3.539240
O	0.236273	0.536820	-4.329540
O	1.173373	2.545720	-3.983640
F	-0.485427	-1.002280	-2.225540
C	1.334173	2.866520	-5.314240
H	1.801673	3.867720	-5.349540
H	0.362073	2.890220	-5.854840
H	1.984073	2.133220	-5.841140
C	-0.375327	-2.188380	1.020760
H	-0.907927	-2.197380	1.960260
H	-1.099427	-2.872280	0.603160
H	0.446273	-2.712780	1.485860
H	1.060473	2.323020	2.342260
$end

$rem
JOBTYPE		SP
EXCHANGE	HF
CORRELATION	pRIMP2
BASIS		cc-pvtz
METHOD		rimp2
AUX_BASIS	rimp2-cc-pvtz
SOLVENT_METHOD	PCM
PURECART	11111
SYMMETRY	false
MEM_TOTAL	110000
SCF_CONVERGENCE = 6
THRESH=10
GUI = 2
$end

$solvent
dielectric 4.90
$end
--------------------------------------------------------------

             Standard Nuclear Orientation (Angstroms)
    I     Atom           X                Y                Z
 ----------------------------------------------------------------
    1      C      -0.3753270000    -0.7531800000     1.0207600000
    2      S       0.0067730000     0.0610200000     2.5314600000
    3      C       0.6715730000     1.4892200000     1.7483600000
    4      C       0.0084730000     0.0699200000    -0.0439400000
    5      C       0.5940730000     1.3293200000     0.3424600000
    6      C      -0.0181270000     0.0091200000    -1.4653400000
    7      C       0.5163730000     1.1555200000    -2.0861400000
    8      S       1.0405730000     2.2875200000    -0.9449400000
    9      C       0.6281730000     1.3841200000    -3.5392400000
   10      O       0.2362730000     0.5368200000    -4.3295400000
   11      O       1.1733730000     2.5457200000    -3.9836400000
   12      F      -0.4854270000    -1.0022800000    -2.2255400000
   13      C       1.3341730000     2.8665200000    -5.3142400000
   14      H       1.8016730000     3.8677200000    -5.3495400000
   15      H       0.3620730000     2.8902200000    -5.8548400000
   16      H       1.9840730000     2.1332200000    -5.8411400000
   17      C      -0.3753270000    -2.1883800000     1.0207600000
   18      H      -0.9079270000    -2.1973800000     1.9602600000
   19      H      -1.0994270000    -2.8722800000     0.6031600000
   20      H       0.4462730000    -2.7127800000     1.4858600000
   21      H       1.0604730000     2.3230200000     2.3422600000
 ----------------------------------------------------------------

   11   -1389.2409467463      5.25e-07  Convergence criterion met
 Total energy in the final basis set =    -1389.2409467463
        RIMP2         total energy =     -1391.7503000895 a.u.

                    Orbital Energies (a.u.)
 --------------------------------------------------------------

 Alpha MOs
 -- Occupied --
-92.0090 -91.9906 -26.3328 -20.6106 -20.5478 -11.4081 -11.3747 -11.3028
-11.2927 -11.2917 -11.2877 -11.2873 -11.2697 -11.2268  -9.0077  -8.9948
 -6.6885  -6.6879  -6.6874  -6.6761  -6.6754  -6.6740  -1.6457  -1.4702
 -1.3653  -1.2274  -1.1475  -1.0650  -1.0296  -1.0047  -0.9686  -0.9093
 -0.8646  -0.7966  -0.7843  -0.7680  -0.7263  -0.7138  -0.6951  -0.6772
 -0.6754  -0.6683  -0.6095  -0.6045  -0.5953  -0.5876  -0.5801  -0.5634
 -0.5394  -0.5253  -0.5063  -0.4810  -0.4772  -0.4625  -0.4596  -0.4583
 -0.3925  -0.3461  -0.2810

          Ground-State Mulliken Net Atomic Charges

     Atom                 Charge (a.u.)
  ----------------------------------------
      1 C                    -0.001714
      2 S                     0.088835
      3 C                    -0.244702
      4 C                    -0.066604
      5 C                    -0.009993
      6 C                     0.363788
      7 C                    -0.157784
      8 S                     0.032198
      9 C                     0.457105
     10 O                    -0.453245
     11 O                    -0.298252
     12 F                    -0.211221
     13 C                    -0.054792
     14 H                     0.116264
     15 H                     0.084033
     16 H                     0.083980
     17 C                    -0.360137
     18 H                     0.115345
     19 H                     0.160772
     20 H                     0.144004
     21 H                     0.212120
  ----------------------------------------
  Sum of atomic charges =     0.000000

                    Cartesian Multipole Moments
 -----------------------------------------------------------------
    Charge (ESU x 10^10)
                -0.0000
    Dipole Moment (Debye)
         X       1.0017      Y       1.1171      Z       4.0283
       Tot       4.2987
    Quadrupole Moments (Debye-Ang)
        XX     -94.1961     XY       4.8366     YY     -84.2381
        XZ      -4.5669     YZ     -11.9970     ZZ     -94.7909

 Total job time:  52.36s(wall), 1904.48s(cpu)
        *  Thank you very much for using Q-Chem.  Have a nice day.  *
