 Q-Chem 5.4, Q-Chem, Inc., Pleasanton, CA (2021)
 Q-Chem 5.4.0 for Intel X86 EM64T Linux

User input:
--------------------------------------------------------------
$molecule
0 1
C	-0.304640	-0.782911	1.025267
S	0.005060	0.061489	2.535967
C	0.542860	1.542189	1.752867
C	0.005960	0.070589	-0.039433
C	0.479560	1.376089	0.346967
C	-0.015140	0.007589	-1.460833
C	0.417260	1.196189	-2.081633
S	0.840860	2.369589	-0.940433
C	0.508760	1.433689	-3.534733
O	0.192260	0.555489	-4.325033
O	0.950660	2.638389	-3.979133
F	-0.392540	-1.040711	-2.221033
C	1.082860	2.971989	-5.309733
H	1.461360	4.010189	-5.345033
H	0.112460	2.910889	-5.850333
H	1.794160	2.298089	-5.836633
C	-0.304640	-2.218111	1.025267
H	-0.313140	-2.227111	-0.054633
H	0.531260	-2.902011	1.024867
H	-1.248740	-2.742511	1.033267
H	0.857560	2.406689	2.346767
$end

$rem
JOBTYPE		SP
EXCHANGE	HF
CORRELATION	pRIMP2
BASIS		cc-pvtz
METHOD		rimp2
AUX_BASIS	rimp2-cc-pvtz
SOLVENT_METHOD	PCM
PURECART	11111
SYMMETRY	false
MEM_TOTAL	110000
SCF_CONVERGENCE = 6
THRESH=10
GUI = 2
$end

$solvent
dielectric 4.90
$end
--------------------------------------------------------------

             Standard Nuclear Orientation (Angstroms)
    I     Atom           X                Y                Z
 ----------------------------------------------------------------
    1      C      -0.3046400000    -0.7829110000     1.0252670000
    2      S       0.0050600000     0.0614890000     2.5359670000
    3      C       0.5428600000     1.5421890000     1.7528670000
    4      C       0.0059600000     0.0705890000    -0.0394330000
    5      C       0.4795600000     1.3760890000     0.3469670000
    6      C      -0.0151400000     0.0075890000    -1.4608330000
    7      C       0.4172600000     1.1961890000    -2.0816330000
    8      S       0.8408600000     2.3695890000    -0.9404330000
    9      C       0.5087600000     1.4336890000    -3.5347330000
   10      O       0.1922600000     0.5554890000    -4.3250330000
   11      O       0.9506600000     2.6383890000    -3.9791330000
   12      F      -0.3925400000    -1.0407110000    -2.2210330000
   13      C       1.0828600000     2.9719890000    -5.3097330000
   14      H       1.4613600000     4.0101890000    -5.3450330000
   15      H       0.1124600000     2.9108890000    -5.8503330000
   16      H       1.7941600000     2.2980890000    -5.8366330000
   17      C      -0.3046400000    -2.2181110000     1.0252670000
   18      H      -0.3131400000    -2.2271110000    -0.0546330000
   19      H       0.5312600000    -2.9020110000     1.0248670000
   20      H      -1.2487400000    -2.7425110000     1.0332670000
   21      H       0.8575600000     2.4066890000     2.3467670000
 ----------------------------------------------------------------

   11   -1389.2460635851      5.34e-07  Convergence criterion met
 Total energy in the final basis set =    -1389.2460635851
        RIMP2         total energy =     -1391.7560657348 a.u.

                    Orbital Energies (a.u.)
 --------------------------------------------------------------

 Alpha MOs
 -- Occupied --
-92.0035 -91.9920 -26.3357 -20.6115 -20.5491 -11.4094 -11.3764 -11.3033
-11.2949 -11.2919 -11.2883 -11.2874 -11.2753 -11.2255  -9.0025  -8.9961
 -6.6832  -6.6826  -6.6823  -6.6774  -6.6767  -6.6754  -1.6489  -1.4712
 -1.3665  -1.2289  -1.1457  -1.0680  -1.0273  -1.0055  -0.9691  -0.9110
 -0.8643  -0.7961  -0.7870  -0.7678  -0.7271  -0.7169  -0.6973  -0.6782
 -0.6780  -0.6700  -0.6073  -0.6053  -0.5986  -0.5892  -0.5798  -0.5675
 -0.5431  -0.5253  -0.5055  -0.4819  -0.4707  -0.4626  -0.4608  -0.4507
 -0.3973  -0.3449  -0.2840

          Ground-State Mulliken Net Atomic Charges

     Atom                 Charge (a.u.)
  ----------------------------------------
      1 C                     0.020296
      2 S                     0.086187
      3 C                    -0.242804
      4 C                    -0.095050
      5 C                    -0.011188
      6 C                     0.361742
      7 C                    -0.141815
      8 S                     0.035290
      9 C                     0.456909
     10 O                    -0.452258
     11 O                    -0.297934
     12 F                    -0.212915
     13 C                    -0.054806
     14 H                     0.116529
     15 H                     0.084289
     16 H                     0.084058
     17 C                    -0.353335
     18 H                     0.113218
     19 H                     0.156859
     20 H                     0.136073
     21 H                     0.210656
  ----------------------------------------
  Sum of atomic charges =     0.000000

                    Cartesian Multipole Moments
 -----------------------------------------------------------------
    Charge (ESU x 10^10)
                -0.0000
    Dipole Moment (Debye)
         X       1.0680      Y       1.2905      Z       2.6895
       Tot       3.1685
    Quadrupole Moments (Debye-Ang)
        XX     -94.7523     XY       3.2593     YY     -83.4842
        XZ      -3.4346     YZ      -9.7873     ZZ     -97.2922

 Total job time:  54.31s(wall), 1950.92s(cpu)
        *  Thank you very much for using Q-Chem.  Have a nice day.  *
