 Q-Chem 5.4, Q-Chem, Inc., Pleasanton, CA (2021)
 Q-Chem 5.4.0 for Intel X86 EM64T Linux

User input:
--------------------------------------------------------------
$molecule
0 1
C	-0.682554	-0.518946	1.022358
S	0.007846	0.057454	2.533058
C	1.213946	1.070954	1.749958
C	0.013146	0.064854	-0.042342
C	1.076046	0.958754	0.344058
C	-0.036654	0.020954	-1.463742
C	0.932246	0.834054	-2.084542
S	1.885746	1.638454	-0.943342
C	1.130146	0.994054	-3.537642
O	0.416946	0.391754	-4.327942
O	2.115246	1.816354	-3.982042
F	-0.887554	-0.698246	-2.223942
C	2.396546	2.039154	-5.312642
H	3.243346	2.748954	-5.347942
H	1.525546	2.471454	-5.853242
H	2.675546	1.099854	-5.839542
C	-0.682554	-1.954146	1.022358
H	0.335146	-1.963146	1.383758
H	-0.968054	-2.638046	1.807958
H	-0.367154	-2.478546	0.132458
H	1.918746	1.662254	2.343858
$end

$rem
JOBTYPE		SP
EXCHANGE	HF
CORRELATION	pRIMP2
BASIS		cc-pvtz
METHOD		rimp2
AUX_BASIS	rimp2-cc-pvtz
SOLVENT_METHOD	PCM
PURECART	11111
SYMMETRY	false
MEM_TOTAL	110000
SCF_CONVERGENCE = 6
THRESH=10
GUI = 2
$end

$solvent
dielectric 4.90
$end
--------------------------------------------------------------

             Standard Nuclear Orientation (Angstroms)
    I     Atom           X                Y                Z
 ----------------------------------------------------------------
    1      C      -0.6825540000    -0.5189460000     1.0223580000
    2      S       0.0078460000     0.0574540000     2.5330580000
    3      C       1.2139460000     1.0709540000     1.7499580000
    4      C       0.0131460000     0.0648540000    -0.0423420000
    5      C       1.0760460000     0.9587540000     0.3440580000
    6      C      -0.0366540000     0.0209540000    -1.4637420000
    7      C       0.9322460000     0.8340540000    -2.0845420000
    8      S       1.8857460000     1.6384540000    -0.9433420000
    9      C       1.1301460000     0.9940540000    -3.5376420000
   10      O       0.4169460000     0.3917540000    -4.3279420000
   11      O       2.1152460000     1.8163540000    -3.9820420000
   12      F      -0.8875540000    -0.6982460000    -2.2239420000
   13      C       2.3965460000     2.0391540000    -5.3126420000
   14      H       3.2433460000     2.7489540000    -5.3479420000
   15      H       1.5255460000     2.4714540000    -5.8532420000
   16      H       2.6755460000     1.0998540000    -5.8395420000
   17      C      -0.6825540000    -1.9541460000     1.0223580000
   18      H       0.3351460000    -1.9631460000     1.3837580000
   19      H      -0.9680540000    -2.6380460000     1.8079580000
   20      H      -0.3671540000    -2.4785460000     0.1324580000
   21      H       1.9187460000     1.6622540000     2.3438580000
 ----------------------------------------------------------------

   11   -1389.2049925179      6.34e-07  Convergence criterion met
 Total energy in the final basis set =    -1389.2049925179
        RIMP2         total energy =     -1391.7224657876 a.u.

                    Orbital Energies (a.u.)
 --------------------------------------------------------------

 Alpha MOs
 -- Occupied --
-92.0004 -91.9938 -26.3339 -20.6120 -20.5501 -11.4102 -11.3761 -11.2975
-11.2971 -11.2968 -11.2940 -11.2885 -11.2760 -11.2275  -9.0006  -8.9978
 -6.6813  -6.6805  -6.6802  -6.6791  -6.6785  -6.6771  -1.6469  -1.4718
 -1.3671  -1.2331  -1.1551  -1.0691  -1.0303  -1.0022  -0.9702  -0.9050
 -0.8662  -0.7978  -0.7864  -0.7709  -0.7284  -0.7153  -0.6964  -0.6785
 -0.6765  -0.6707  -0.6094  -0.6067  -0.6041  -0.5909  -0.5701  -0.5611
 -0.5351  -0.5279  -0.5184  -0.4939  -0.4814  -0.4616  -0.4606  -0.4446
 -0.3886  -0.3463  -0.2758

          Ground-State Mulliken Net Atomic Charges

     Atom                 Charge (a.u.)
  ----------------------------------------
      1 C                    -0.003854
      2 S                     0.082825
      3 C                    -0.219907
      4 C                    -0.083378
      5 C                    -0.018656
      6 C                     0.361787
      7 C                    -0.151787
      8 S                     0.041088
      9 C                     0.457308
     10 O                    -0.450099
     11 O                    -0.298007
     12 F                    -0.209800
     13 C                    -0.054596
     14 H                     0.116586
     15 H                     0.084518
     16 H                     0.084239
     17 C                    -0.371663
     18 H                     0.130402
     19 H                     0.153777
     20 H                     0.136430
     21 H                     0.212787
  ----------------------------------------
  Sum of atomic charges =     0.000000

                    Cartesian Multipole Moments
 -----------------------------------------------------------------
    Charge (ESU x 10^10)
                -0.0000
    Dipole Moment (Debye)
         X       3.3833      Y       0.6077      Z       3.3739
       Tot       4.8165
    Quadrupole Moments (Debye-Ang)
        XX     -92.0125     XY       4.4367     YY     -88.7078
        XZ      -7.3275     YZ      -8.5882     ZZ     -94.7382

 Total job time:  60.90s(wall), 2034.58s(cpu)
        *  Thank you very much for using Q-Chem.  Have a nice day.  *
