 Q-Chem 5.4, Q-Chem, Inc., Pleasanton, CA (2021)
 Q-Chem 5.4.0 for Intel X86 EM64T Linux

User input:
--------------------------------------------------------------
$molecule
0 1
C	-0.769956	-0.392188	1.024882
S	0.010044	0.055612	2.535582
C	1.373844	0.844212	1.752482
C	0.016544	0.061912	-0.039818
C	1.218544	0.757612	0.346582
C	-0.040056	0.027312	-1.461218
C	1.055244	0.659812	-2.082018
S	2.133944	1.286512	-0.940818
C	1.277944	0.783012	-3.535118
O	0.471044	0.313712	-4.325418
O	2.390844	1.421812	-3.979518
F	-1.002956	-0.533088	-2.221418
C	2.706544	1.592412	-5.310118
H	3.663744	2.144312	-5.345418
H	1.923844	2.169312	-5.850718
H	2.818244	0.618912	-5.837018
C	-0.769956	-1.827388	1.024882
H	-0.082256	-1.836388	0.192182
H	-0.129456	-2.511288	1.561882
H	-1.498356	-2.351788	0.424182
H	2.170644	1.304112	2.346382
$end

$rem
JOBTYPE		SP
EXCHANGE	HF
CORRELATION	pRIMP2
BASIS		cc-pvtz
METHOD		rimp2
AUX_BASIS	rimp2-cc-pvtz
SOLVENT_METHOD	PCM
PURECART	11111
SYMMETRY	false
MEM_TOTAL	110000
SCF_CONVERGENCE = 6
THRESH=10
GUI = 2
$end

$solvent
dielectric 4.90
$end
--------------------------------------------------------------

             Standard Nuclear Orientation (Angstroms)
    I     Atom           X                Y                Z
 ----------------------------------------------------------------
    1      C      -0.7699560000    -0.3921880000     1.0248820000
    2      S       0.0100440000     0.0556120000     2.5355820000
    3      C       1.3738440000     0.8442120000     1.7524820000
    4      C       0.0165440000     0.0619120000    -0.0398180000
    5      C       1.2185440000     0.7576120000     0.3465820000
    6      C      -0.0400560000     0.0273120000    -1.4612180000
    7      C       1.0552440000     0.6598120000    -2.0820180000
    8      S       2.1339440000     1.2865120000    -0.9408180000
    9      C       1.2779440000     0.7830120000    -3.5351180000
   10      O       0.4710440000     0.3137120000    -4.3254180000
   11      O       2.3908440000     1.4218120000    -3.9795180000
   12      F      -1.0029560000    -0.5330880000    -2.2214180000
   13      C       2.7065440000     1.5924120000    -5.3101180000
   14      H       3.6637440000     2.1443120000    -5.3454180000
   15      H       1.9238440000     2.1693120000    -5.8507180000
   16      H       2.8182440000     0.6189120000    -5.8370180000
   17      C      -0.7699560000    -1.8273880000     1.0248820000
   18      H      -0.0822560000    -1.8363880000     0.1921820000
   19      H      -0.1294560000    -2.5112880000     1.5618820000
   20      H      -1.4983560000    -2.3517880000     0.4241820000
   21      H       2.1706440000     1.3041120000     2.3463820000
 ----------------------------------------------------------------

   12   -1389.1675639896      6.22e-07  Convergence criterion met
 Total energy in the final basis set =    -1389.1675639896
        RIMP2         total energy =     -1391.6968765260 a.u.

                    Orbital Energies (a.u.)
 --------------------------------------------------------------

 Alpha MOs
 -- Occupied --
-92.0093 -92.0019 -26.3334 -20.6142 -20.5543 -11.4137 -11.3730 -11.3115
-11.3059 -11.2950 -11.2897 -11.2797 -11.2682 -11.2138  -9.0082  -9.0054
 -6.6887  -6.6879  -6.6878  -6.6866  -6.6860  -6.6848  -1.6466  -1.4743
 -1.3702  -1.2370  -1.1562  -1.0733  -1.0305  -1.0003  -0.9723  -0.9037
 -0.8672  -0.7967  -0.7883  -0.7728  -0.7295  -0.7160  -0.6982  -0.6804
 -0.6773  -0.6734  -0.6095  -0.6076  -0.6022  -0.5908  -0.5834  -0.5626
 -0.5294  -0.5264  -0.5104  -0.4889  -0.4736  -0.4638  -0.4629  -0.4481
 -0.3772  -0.3394  -0.2860

          Ground-State Mulliken Net Atomic Charges

     Atom                 Charge (a.u.)
  ----------------------------------------
      1 C                    -0.134493
      2 S                     0.124027
      3 C                    -0.187238
      4 C                    -0.000950
      5 C                    -0.033004
      6 C                     0.340657
      7 C                    -0.136988
      8 S                     0.066012
      9 C                     0.457539
     10 O                    -0.443286
     11 O                    -0.297061
     12 F                    -0.212178
     13 C                    -0.054728
     14 H                     0.117097
     15 H                     0.085292
     16 H                     0.084903
     17 C                    -0.367719
     18 H                     0.114784
     19 H                     0.145696
     20 H                     0.115620
     21 H                     0.216015
  ----------------------------------------
  Sum of atomic charges =     0.000000

                    Cartesian Multipole Moments
 -----------------------------------------------------------------
    Charge (ESU x 10^10)
                -0.0000
    Dipole Moment (Debye)
         X       4.7668      Y       1.1387      Z       2.5979
       Tot       5.5470
    Quadrupole Moments (Debye-Ang)
        XX     -89.7062     XY       4.3061     YY     -91.4146
        XZ      -7.2388     YZ      -5.2979     ZZ     -93.6755

 Total job time:  58.30s(wall), 2086.21s(cpu)
        *  Thank you very much for using Q-Chem.  Have a nice day.  *
