 Q-Chem 5.4, Q-Chem, Inc., Pleasanton, CA (2021)
 Q-Chem 5.4.0 for Intel X86 EM64T Linux

User input:
--------------------------------------------------------------
$molecule
0 1
C	-0.079203	-0.833466	1.025276
S	0.001397	0.062334	2.535976
C	0.137597	1.631734	1.752876
C	-0.000103	0.071334	-0.039424
C	0.119497	1.454934	0.346976
C	-0.004203	0.005034	-1.460824
C	0.105897	1.265034	-2.081624
S	0.211297	2.508134	-0.940424
C	0.132697	1.518134	-3.534724
O	0.054297	0.587934	-4.325024
O	0.247797	2.796134	-3.979124
F	-0.097403	-1.105166	-2.221024
C	0.289197	3.152634	-5.309724
H	0.386097	4.253334	-5.345024
H	-0.632303	2.842434	-5.850324
H	1.150697	2.685834	-5.836624
C	-0.079203	-2.268666	1.025276
H	0.099997	-2.277666	-0.039724
H	0.743997	-2.952566	1.170076
H	-1.010403	-2.793066	0.869176
H	0.217897	2.548234	2.346776
$end

$rem
JOBTYPE		SP
EXCHANGE	HF
CORRELATION	pRIMP2
BASIS		cc-pvtz
METHOD		rimp2
AUX_BASIS	rimp2-cc-pvtz
SOLVENT_METHOD	PCM
PURECART	11111
SYMMETRY	false
MEM_TOTAL	110000
SCF_CONVERGENCE = 6
THRESH=10
GUI = 2
$end

$solvent
dielectric 4.90
$end
--------------------------------------------------------------

             Standard Nuclear Orientation (Angstroms)
    I     Atom           X                Y                Z
 ----------------------------------------------------------------
    1      C      -0.0792030000    -0.8334660000     1.0252760000
    2      S       0.0013970000     0.0623340000     2.5359760000
    3      C       0.1375970000     1.6317340000     1.7528760000
    4      C      -0.0001030000     0.0713340000    -0.0394240000
    5      C       0.1194970000     1.4549340000     0.3469760000
    6      C      -0.0042030000     0.0050340000    -1.4608240000
    7      C       0.1058970000     1.2650340000    -2.0816240000
    8      S       0.2112970000     2.5081340000    -0.9404240000
    9      C       0.1326970000     1.5181340000    -3.5347240000
   10      O       0.0542970000     0.5879340000    -4.3250240000
   11      O       0.2477970000     2.7961340000    -3.9791240000
   12      F      -0.0974030000    -1.1051660000    -2.2210240000
   13      C       0.2891970000     3.1526340000    -5.3097240000
   14      H       0.3860970000     4.2533340000    -5.3450240000
   15      H      -0.6323030000     2.8424340000    -5.8503240000
   16      H       1.1506970000     2.6858340000    -5.8366240000
   17      C      -0.0792030000    -2.2686660000     1.0252760000
   18      H       0.0999970000    -2.2776660000    -0.0397240000
   19      H       0.7439970000    -2.9525660000     1.1700760000
   20      H      -1.0104030000    -2.7930660000     0.8691760000
   21      H       0.2178970000     2.5482340000     2.3467760000
 ----------------------------------------------------------------

   11   -1389.2538839854      4.99e-07  Convergence criterion met
 Total energy in the final basis set =    -1389.2538839854
        RIMP2         total energy =     -1391.7611940271 a.u.

                    Orbital Energies (a.u.)
 --------------------------------------------------------------

 Alpha MOs
 -- Occupied --
-92.0039 -91.9909 -26.3358 -20.6110 -20.5483 -11.4087 -11.3767 -11.3088
-11.2931 -11.2916 -11.2880 -11.2836 -11.2740 -11.2277  -9.0028  -8.9950
 -6.6835  -6.6829  -6.6826  -6.6763  -6.6757  -6.6743  -1.6491  -1.4707
 -1.3658  -1.2281  -1.1451  -1.0680  -1.0271  -1.0063  -0.9687  -0.9116
 -0.8638  -0.7960  -0.7867  -0.7672  -0.7269  -0.7168  -0.6975  -0.6784
 -0.6777  -0.6694  -0.6087  -0.6048  -0.5980  -0.5882  -0.5799  -0.5692
 -0.5443  -0.5249  -0.5047  -0.4815  -0.4709  -0.4637  -0.4605  -0.4534
 -0.3974  -0.3453  -0.2826

          Ground-State Mulliken Net Atomic Charges

     Atom                 Charge (a.u.)
  ----------------------------------------
      1 C                     0.045634
      2 S                     0.081663
      3 C                    -0.252117
      4 C                    -0.100414
      5 C                    -0.012291
      6 C                     0.376360
      7 C                    -0.145075
      8 S                     0.030201
      9 C                     0.457932
     10 O                    -0.454130
     11 O                    -0.298134
     12 F                    -0.214250
     13 C                    -0.055080
     14 H                     0.116498
     15 H                     0.084133
     16 H                     0.083992
     17 C                    -0.367698
     18 H                     0.116620
     19 H                     0.157238
     20 H                     0.138497
     21 H                     0.210421
  ----------------------------------------
  Sum of atomic charges =     0.000000

                    Cartesian Multipole Moments
 -----------------------------------------------------------------
    Charge (ESU x 10^10)
                -0.0000
    Dipole Moment (Debye)
         X       0.3515      Y       1.1255      Z       2.7727
       Tot       3.0130
    Quadrupole Moments (Debye-Ang)
        XX     -95.8084     XY       0.5512     YY     -82.1502
        XZ      -0.6984     YZ     -10.5726     ZZ     -97.6463

 Total job time:  53.30s(wall), 1937.83s(cpu)
        *  Thank you very much for using Q-Chem.  Have a nice day.  *
