 Q-Chem 5.4, Q-Chem, Inc., Pleasanton, CA (2021)
 Q-Chem 5.4.0 for Intel X86 EM64T Linux

User input:
--------------------------------------------------------------
$molecule
0 1
C	-0.681895	-0.518946	1.024624
S	0.008505	0.057454	2.535324
C	1.214605	1.070954	1.752224
C	0.013805	0.064854	-0.040076
C	1.076705	0.958754	0.346324
C	-0.035995	0.020954	-1.461476
C	0.932905	0.834054	-2.082276
S	1.886405	1.638454	-0.941076
C	1.130805	0.994054	-3.535376
O	0.417605	0.391754	-4.325676
O	2.115905	1.816354	-3.979776
F	-0.886895	-0.698246	-2.221676
C	2.397205	2.039154	-5.310376
H	3.244005	2.748954	-5.345676
H	1.526205	2.471454	-5.850976
H	2.676205	1.099854	-5.837276
C	-0.681895	-1.954146	1.024624
H	0.139905	-1.963146	0.324024
H	-0.144295	-2.638046	1.664724
H	-1.294895	-2.478546	0.306524
H	1.919405	1.662254	2.346124
$end

$rem
JOBTYPE		SP
EXCHANGE	HF
CORRELATION	pRIMP2
BASIS		cc-pvtz
METHOD		rimp2
AUX_BASIS	rimp2-cc-pvtz
SOLVENT_METHOD	PCM
PURECART	11111
SYMMETRY	false
MEM_TOTAL	110000
SCF_CONVERGENCE = 6
THRESH=10
GUI = 2
$end

$solvent
dielectric 4.90
$end
--------------------------------------------------------------

             Standard Nuclear Orientation (Angstroms)
    I     Atom           X                Y                Z
 ----------------------------------------------------------------
    1      C      -0.6818950000    -0.5189460000     1.0246240000
    2      S       0.0085050000     0.0574540000     2.5353240000
    3      C       1.2146050000     1.0709540000     1.7522240000
    4      C       0.0138050000     0.0648540000    -0.0400760000
    5      C       1.0767050000     0.9587540000     0.3463240000
    6      C      -0.0359950000     0.0209540000    -1.4614760000
    7      C       0.9329050000     0.8340540000    -2.0822760000
    8      S       1.8864050000     1.6384540000    -0.9410760000
    9      C       1.1308050000     0.9940540000    -3.5353760000
   10      O       0.4176050000     0.3917540000    -4.3256760000
   11      O       2.1159050000     1.8163540000    -3.9797760000
   12      F      -0.8868950000    -0.6982460000    -2.2216760000
   13      C       2.3972050000     2.0391540000    -5.3103760000
   14      H       3.2440050000     2.7489540000    -5.3456760000
   15      H       1.5262050000     2.4714540000    -5.8509760000
   16      H       2.6762050000     1.0998540000    -5.8372760000
   17      C      -0.6818950000    -1.9541460000     1.0246240000
   18      H       0.1399050000    -1.9631460000     0.3240240000
   19      H      -0.1442950000    -2.6380460000     1.6647240000
   20      H      -1.2948950000    -2.4785460000     0.3065240000
   21      H       1.9194050000     1.6622540000     2.3461240000
 ----------------------------------------------------------------

   11   -1389.1970681287      7.20e-07  Convergence criterion met
 Total energy in the final basis set =    -1389.1970681287
        RIMP2         total energy =     -1391.7200632361 a.u.

                    Orbital Energies (a.u.)
 --------------------------------------------------------------

 Alpha MOs
 -- Occupied --
-92.0094 -91.9968 -26.3338 -20.6123 -20.5506 -11.4106 -11.3743 -11.2984
-11.2972 -11.2944 -11.2892 -11.2887 -11.2733 -11.2212  -9.0081  -9.0006
 -6.6888  -6.6880  -6.6878  -6.6818  -6.6812  -6.6799  -1.6469  -1.4721
 -1.3676  -1.2329  -1.1531  -1.0704  -1.0285  -1.0019  -0.9705  -0.9058
 -0.8655  -0.7959  -0.7867  -0.7701  -0.7278  -0.7156  -0.6969  -0.6788
 -0.6771  -0.6710  -0.6081  -0.6060  -0.5992  -0.5915  -0.5849  -0.5620
 -0.5289  -0.5269  -0.5081  -0.4881  -0.4771  -0.4623  -0.4609  -0.4564
 -0.3816  -0.3436  -0.2798

          Ground-State Mulliken Net Atomic Charges

     Atom                 Charge (a.u.)
  ----------------------------------------
      1 C                    -0.068636
      2 S                     0.114741
      3 C                    -0.224741
      4 C                    -0.037513
      5 C                    -0.017710
      6 C                     0.348760
      7 C                    -0.151035
      8 S                     0.052185
      9 C                     0.457955
     10 O                    -0.449550
     11 O                    -0.297997
     12 F                    -0.211364
     13 C                    -0.054600
     14 H                     0.116622
     15 H                     0.084551
     16 H                     0.084306
     17 C                    -0.373523
     18 H                     0.129049
     19 H                     0.159354
     20 H                     0.126480
     21 H                     0.212665
  ----------------------------------------
  Sum of atomic charges =     0.000000

                    Cartesian Multipole Moments
 -----------------------------------------------------------------
    Charge (ESU x 10^10)
                -0.0000
    Dipole Moment (Debye)
         X       3.4998      Y       0.9691      Z       2.9775
       Tot       4.6961
    Quadrupole Moments (Debye-Ang)
        XX     -91.6191     XY       4.3595     YY     -89.1018
        XZ      -6.6854     YZ      -7.1349     ZZ     -95.0911

 Total job time:  59.30s(wall), 2019.42s(cpu)
        *  Thank you very much for using Q-Chem.  Have a nice day.  *
