 Q-Chem 5.4, Q-Chem, Inc., Pleasanton, CA (2021)
 Q-Chem 5.4.0 for Intel X86 EM64T Linux

User input:
--------------------------------------------------------------
$molecule
0 1
C	-0.572609	-0.628442	1.021016
S	0.007291	0.059158	2.531716
C	1.018991	1.266558	1.748616
C	0.011191	0.067358	-0.043684
C	0.902691	1.132158	0.342716
C	-0.030209	0.015358	-1.465084
C	0.782691	0.984358	-2.085884
S	1.581991	1.942158	-0.944684
C	0.949791	1.176358	-3.538984
O	0.352091	0.459358	-4.329284
O	1.777091	2.157258	-3.983384
F	-0.743409	-0.840542	-2.225284
C	2.015491	2.425458	-5.313984
H	2.726191	3.271558	-5.349284
H	1.082691	2.699958	-5.854584
H	2.453391	1.548958	-5.840884
C	-0.572609	-2.063642	1.021016
H	-0.025309	-2.072642	1.952016
H	-1.296309	-2.747542	1.439216
H	0.240991	-2.588042	0.542016
H	1.610491	1.971358	2.342516
$end

$rem
JOBTYPE		SP
EXCHANGE	HF
CORRELATION	pRIMP2
BASIS		cc-pvtz
METHOD		rimp2
AUX_BASIS	rimp2-cc-pvtz
SOLVENT_METHOD	PCM
PURECART	11111
SYMMETRY	false
MEM_TOTAL	110000
SCF_CONVERGENCE = 6
THRESH=10
GUI = 2
$end

$solvent
dielectric 4.90
$end
--------------------------------------------------------------

             Standard Nuclear Orientation (Angstroms)
    I     Atom           X                Y                Z
 ----------------------------------------------------------------
    1      C      -0.5726090000    -0.6284420000     1.0210160000
    2      S       0.0072910000     0.0591580000     2.5317160000
    3      C       1.0189910000     1.2665580000     1.7486160000
    4      C       0.0111910000     0.0673580000    -0.0436840000
    5      C       0.9026910000     1.1321580000     0.3427160000
    6      C      -0.0302090000     0.0153580000    -1.4650840000
    7      C       0.7826910000     0.9843580000    -2.0858840000
    8      S       1.5819910000     1.9421580000    -0.9446840000
    9      C       0.9497910000     1.1763580000    -3.5389840000
   10      O       0.3520910000     0.4593580000    -4.3292840000
   11      O       1.7770910000     2.1572580000    -3.9833840000
   12      F      -0.7434090000    -0.8405420000    -2.2252840000
   13      C       2.0154910000     2.4254580000    -5.3139840000
   14      H       2.7261910000     3.2715580000    -5.3492840000
   15      H       1.0826910000     2.6999580000    -5.8545840000
   16      H       2.4533910000     1.5489580000    -5.8408840000
   17      C      -0.5726090000    -2.0636420000     1.0210160000
   18      H      -0.0253090000    -2.0726420000     1.9520160000
   19      H      -1.2963090000    -2.7475420000     1.4392160000
   20      H       0.2409910000    -2.5880420000     0.5420160000
   21      H       1.6104910000     1.9713580000     2.3425160000
 ----------------------------------------------------------------

   11   -1389.2165577773      5.90e-07  Convergence criterion met
 Total energy in the final basis set =    -1389.2165577773
        RIMP2         total energy =     -1391.7311475290 a.u.

                    Orbital Energies (a.u.)
 --------------------------------------------------------------

 Alpha MOs
 -- Occupied --
-92.0029 -91.9926 -26.3331 -20.6120 -20.5502 -11.4102 -11.3748 -11.2973
-11.2947 -11.2945 -11.2914 -11.2884 -11.2754 -11.2216  -9.0027  -8.9967
 -6.6834  -6.6826  -6.6823  -6.6780  -6.6774  -6.6760  -1.6460  -1.4718
 -1.3672  -1.2303  -1.1513  -1.0661  -1.0310  -1.0026  -0.9699  -0.9054
 -0.8664  -0.7976  -0.7853  -0.7703  -0.7277  -0.7144  -0.6957  -0.6784
 -0.6753  -0.6698  -0.6086  -0.6059  -0.6002  -0.5895  -0.5679  -0.5663
 -0.5418  -0.5262  -0.5095  -0.4864  -0.4795  -0.4615  -0.4607  -0.4455
 -0.3937  -0.3432  -0.2810

          Ground-State Mulliken Net Atomic Charges

     Atom                 Charge (a.u.)
  ----------------------------------------
      1 C                     0.001677
      2 S                     0.082794
      3 C                    -0.222095
      4 C                    -0.084720
      5 C                    -0.016800
      6 C                     0.373285
      7 C                    -0.155780
      8 S                     0.036550
      9 C                     0.457628
     10 O                    -0.449357
     11 O                    -0.297690
     12 F                    -0.210098
     13 C                    -0.054626
     14 H                     0.116566
     15 H                     0.084556
     16 H                     0.084273
     17 C                    -0.381570
     18 H                     0.133429
     19 H                     0.144729
     20 H                     0.144933
     21 H                     0.212315
  ----------------------------------------
  Sum of atomic charges =     0.000000

                    Cartesian Multipole Moments
 -----------------------------------------------------------------
    Charge (ESU x 10^10)
                -0.0000
    Dipole Moment (Debye)
         X       2.6807      Y       1.1303      Z       3.7691
       Tot       4.7613
    Quadrupole Moments (Debye-Ang)
        XX     -92.7624     XY       4.4106     YY     -87.1873
        XZ      -6.6730     YZ     -10.5645     ZZ     -93.9239

 Total job time:  69.23s(wall), 2041.71s(cpu)
        *  Thank you very much for using Q-Chem.  Have a nice day.  *
