 Q-Chem 5.4, Q-Chem, Inc., Pleasanton, CA (2021)
 Q-Chem 5.4.0 for Intel X86 EM64T Linux

User input:
--------------------------------------------------------------
$molecule
0 1
C	-0.681304	-0.518946	1.020802
S	0.009096	0.057454	2.531502
C	1.215196	1.070954	1.748402
C	0.014396	0.064854	-0.043898
C	1.077296	0.958754	0.342502
C	-0.035404	0.020954	-1.465298
C	0.933496	0.834054	-2.086098
S	1.886996	1.638454	-0.944898
C	1.131396	0.994054	-3.539198
O	0.418196	0.391754	-4.329498
O	2.116496	1.816354	-3.983598
F	-0.886304	-0.698246	-2.225498
C	2.397796	2.039154	-5.314198
H	3.244596	2.748954	-5.349498
H	1.526796	2.471454	-5.854798
H	2.676796	1.099854	-5.841098
C	-0.681304	-1.954146	1.020802
H	-0.304004	-1.963146	2.032702
H	-1.466604	-2.638046	1.307002
H	0.203096	-2.478546	0.690402
H	1.919996	1.662254	2.342302
$end

$rem
JOBTYPE		SP
EXCHANGE	HF
CORRELATION	pRIMP2
BASIS		cc-pvtz
METHOD		rimp2
AUX_BASIS	rimp2-cc-pvtz
SOLVENT_METHOD	PCM
PURECART	11111
SYMMETRY	false
MEM_TOTAL	110000
SCF_CONVERGENCE = 6
THRESH=10
GUI = 2
$end

$solvent
dielectric 4.90
$end
--------------------------------------------------------------

             Standard Nuclear Orientation (Angstroms)
    I     Atom           X                Y                Z
 ----------------------------------------------------------------
    1      C      -0.6813040000    -0.5189460000     1.0208020000
    2      S       0.0090960000     0.0574540000     2.5315020000
    3      C       1.2151960000     1.0709540000     1.7484020000
    4      C       0.0143960000     0.0648540000    -0.0438980000
    5      C       1.0772960000     0.9587540000     0.3425020000
    6      C      -0.0354040000     0.0209540000    -1.4652980000
    7      C       0.9334960000     0.8340540000    -2.0860980000
    8      S       1.8869960000     1.6384540000    -0.9448980000
    9      C       1.1313960000     0.9940540000    -3.5391980000
   10      O       0.4181960000     0.3917540000    -4.3294980000
   11      O       2.1164960000     1.8163540000    -3.9835980000
   12      F      -0.8863040000    -0.6982460000    -2.2254980000
   13      C       2.3977960000     2.0391540000    -5.3141980000
   14      H       3.2445960000     2.7489540000    -5.3494980000
   15      H       1.5267960000     2.4714540000    -5.8547980000
   16      H       2.6767960000     1.0998540000    -5.8410980000
   17      C      -0.6813040000    -1.9541460000     1.0208020000
   18      H      -0.3040040000    -1.9631460000     2.0327020000
   19      H      -1.4666040000    -2.6380460000     1.3070020000
   20      H       0.2030960000    -2.4785460000     0.6904020000
   21      H       1.9199960000     1.6622540000     2.3423020000
 ----------------------------------------------------------------

   11   -1389.1947858989      7.05e-07  Convergence criterion met
 Total energy in the final basis set =    -1389.1947858989
        RIMP2         total energy =     -1391.7150293014 a.u.

                    Orbital Energies (a.u.)
 --------------------------------------------------------------

 Alpha MOs
 -- Occupied --
-92.0030 -91.9958 -26.3327 -20.6132 -20.5525 -11.4121 -11.3737 -11.3044
-11.3021 -11.2920 -11.2891 -11.2808 -11.2790 -11.2164  -9.0031  -8.9998
 -6.6837  -6.6827  -6.6826  -6.6810  -6.6804  -6.6790  -1.6457  -1.4731
 -1.3688  -1.2326  -1.1539  -1.0669  -1.0326  -1.0012  -0.9712  -0.9027
 -0.8682  -0.7985  -0.7860  -0.7725  -0.7288  -0.7144  -0.6964  -0.6794
 -0.6745  -0.6714  -0.6089  -0.6070  -0.6012  -0.5904  -0.5704  -0.5629
 -0.5381  -0.5273  -0.5099  -0.4866  -0.4780  -0.4626  -0.4623  -0.4396
 -0.3921  -0.3400  -0.2853

          Ground-State Mulliken Net Atomic Charges

     Atom                 Charge (a.u.)
  ----------------------------------------
      1 C                    -0.056324
      2 S                     0.090897
      3 C                    -0.196144
      4 C                    -0.053669
      5 C                    -0.023406
      6 C                     0.369325
      7 C                    -0.145697
      8 S                     0.045196
      9 C                     0.456989
     10 O                    -0.445359
     11 O                    -0.297108
     12 F                    -0.210234
     13 C                    -0.054603
     14 H                     0.116864
     15 H                     0.084900
     16 H                     0.084702
     17 C                    -0.379853
     18 H                     0.127307
     19 H                     0.135830
     20 H                     0.135981
     21 H                     0.214404
  ----------------------------------------
  Sum of atomic charges =     0.000000

                    Cartesian Multipole Moments
 -----------------------------------------------------------------
    Charge (ESU x 10^10)
                -0.0000
    Dipole Moment (Debye)
         X       3.5766      Y       1.3062      Z       3.6049
       Tot       5.2434
    Quadrupole Moments (Debye-Ang)
        XX     -90.9797     XY       4.9265     YY     -89.4212
        XZ      -7.7409     YZ      -8.9511     ZZ     -92.8279

 Total job time:  61.00s(wall), 2016.11s(cpu)
        *  Thank you very much for using Q-Chem.  Have a nice day.  *
