 Q-Chem 5.4, Q-Chem, Inc., Pleasanton, CA (2021)
 Q-Chem 5.4.0 for Intel X86 EM64T Linux

User input:
--------------------------------------------------------------
$molecule
0 1
C	-0.678557	-0.518946	1.024554
S	0.011843	0.057454	2.535254
C	1.217943	1.070954	1.752154
C	0.017143	0.064854	-0.040146
C	1.080043	0.958754	0.346254
C	-0.032657	0.020954	-1.461546
C	0.936243	0.834054	-2.082346
S	1.889743	1.638454	-0.941146
C	1.134143	0.994054	-3.535446
O	0.420943	0.391754	-4.325746
O	2.119243	1.816354	-3.979846
F	-0.883557	-0.698246	-2.221746
C	2.400543	2.039154	-5.310446
H	3.247343	2.748954	-5.345746
H	1.529543	2.471454	-5.851046
H	2.679543	1.099854	-5.837346
C	-0.678557	-1.954146	1.024554
H	-1.379157	-1.963146	0.202754
H	-0.038457	-2.638046	0.486954
H	-1.396657	-2.478546	1.637554
H	1.922743	1.662254	2.346054
$end

$rem
JOBTYPE		SP
EXCHANGE	HF
CORRELATION	pRIMP2
BASIS		cc-pvtz
METHOD		rimp2
AUX_BASIS	rimp2-cc-pvtz
SOLVENT_METHOD	PCM
PURECART	11111
SYMMETRY	false
MEM_TOTAL	110000
SCF_CONVERGENCE = 6
THRESH=10
GUI = 2
$end

$solvent
dielectric 4.90
$end
--------------------------------------------------------------

             Standard Nuclear Orientation (Angstroms)
    I     Atom           X                Y                Z
 ----------------------------------------------------------------
    1      C      -0.6785570000    -0.5189460000     1.0245540000
    2      S       0.0118430000     0.0574540000     2.5352540000
    3      C       1.2179430000     1.0709540000     1.7521540000
    4      C       0.0171430000     0.0648540000    -0.0401460000
    5      C       1.0800430000     0.9587540000     0.3462540000
    6      C      -0.0326570000     0.0209540000    -1.4615460000
    7      C       0.9362430000     0.8340540000    -2.0823460000
    8      S       1.8897430000     1.6384540000    -0.9411460000
    9      C       1.1341430000     0.9940540000    -3.5354460000
   10      O       0.4209430000     0.3917540000    -4.3257460000
   11      O       2.1192430000     1.8163540000    -3.9798460000
   12      F      -0.8835570000    -0.6982460000    -2.2217460000
   13      C       2.4005430000     2.0391540000    -5.3104460000
   14      H       3.2473430000     2.7489540000    -5.3457460000
   15      H       1.5295430000     2.4714540000    -5.8510460000
   16      H       2.6795430000     1.0998540000    -5.8373460000
   17      C      -0.6785570000    -1.9541460000     1.0245540000
   18      H      -1.3791570000    -1.9631460000     0.2027540000
   19      H      -0.0384570000    -2.6380460000     0.4869540000
   20      H      -1.3966570000    -2.4785460000     1.6375540000
   21      H       1.9227430000     1.6622540000     2.3460540000
 ----------------------------------------------------------------

   11   -1389.2044890255      7.33e-07  Convergence criterion met
 Total energy in the final basis set =    -1389.2044890255
        RIMP2         total energy =     -1391.7253474798 a.u.

                    Orbital Energies (a.u.)
 --------------------------------------------------------------

 Alpha MOs
 -- Occupied --
-92.0014 -91.9977 -26.3340 -20.6133 -20.5525 -11.4122 -11.3749 -11.3044
-11.3018 -11.2942 -11.2892 -11.2809 -11.2776 -11.2178  -9.0015  -9.0010
 -6.6827  -6.6821  -6.6817  -6.6808  -6.6807  -6.6806  -1.6472  -1.4732
 -1.3689  -1.2326  -1.1496  -1.0687  -1.0290  -1.0024  -0.9706  -0.9080
 -0.8662  -0.7965  -0.7875  -0.7706  -0.7283  -0.7158  -0.6970  -0.6796
 -0.6764  -0.6720  -0.6079  -0.6059  -0.6004  -0.5919  -0.5695  -0.5634
 -0.5391  -0.5257  -0.5109  -0.4847  -0.4819  -0.4627  -0.4622  -0.4356
 -0.3870  -0.3440  -0.2847

          Ground-State Mulliken Net Atomic Charges

     Atom                 Charge (a.u.)
  ----------------------------------------
      1 C                    -0.073956
      2 S                     0.100088
      3 C                    -0.193180
      4 C                    -0.050136
      5 C                    -0.028297
      6 C                     0.365201
      7 C                    -0.141028
      8 S                     0.051094
      9 C                     0.456797
     10 O                    -0.446395
     11 O                    -0.297364
     12 F                    -0.211581
     13 C                    -0.054596
     14 H                     0.116926
     15 H                     0.084833
     16 H                     0.084657
     17 C                    -0.384837
     18 H                     0.117999
     19 H                     0.153318
     20 H                     0.137683
     21 H                     0.212771
  ----------------------------------------
  Sum of atomic charges =     0.000000

                    Cartesian Multipole Moments
 -----------------------------------------------------------------
    Charge (ESU x 10^10)
                -0.0000
    Dipole Moment (Debye)
         X       2.9764      Y       1.3549      Z       2.5455
       Tot       4.1442
    Quadrupole Moments (Debye-Ang)
        XX     -90.0949     XY       6.3986     YY     -89.0608
        XZ      -7.9522     YZ      -6.6185     ZZ     -95.2893

 Total job time:  55.40s(wall), 1968.87s(cpu)
        *  Thank you very much for using Q-Chem.  Have a nice day.  *
