 Q-Chem 5.4, Q-Chem, Inc., Pleasanton, CA (2021)
 Q-Chem 5.4.0 for Intel X86 EM64T Linux

User input:
--------------------------------------------------------------
$molecule
0 1
C	-0.304236	-0.782911	1.025187
S	0.005464	0.061489	2.535887
C	0.543264	1.542189	1.752787
C	0.006364	0.070589	-0.039513
C	0.479964	1.376089	0.346887
C	-0.014736	0.007589	-1.460913
C	0.417664	1.196189	-2.081713
S	0.841264	2.369589	-0.940513
C	0.509164	1.433689	-3.534813
O	0.192664	0.555489	-4.325113
O	0.951064	2.638389	-3.979213
F	-0.392136	-1.040711	-2.221113
C	1.083264	2.971989	-5.309813
H	1.461764	4.010189	-5.345113
H	0.112864	2.910889	-5.850413
H	1.794564	2.298089	-5.836713
C	-0.304236	-2.218111	1.025187
H	-0.500136	-2.227111	-0.036913
H	0.518864	-2.902011	0.879687
H	-1.232636	-2.742511	1.196987
H	0.857964	2.406689	2.346687
$end

$rem
JOBTYPE		SP
EXCHANGE	HF
CORRELATION	pRIMP2
BASIS		cc-pvtz
METHOD		rimp2
AUX_BASIS	rimp2-cc-pvtz
SOLVENT_METHOD	PCM
PURECART	11111
SYMMETRY	false
MEM_TOTAL	110000
SCF_CONVERGENCE = 6
THRESH=10
GUI = 2
$end

$solvent
dielectric 4.90
$end
--------------------------------------------------------------

             Standard Nuclear Orientation (Angstroms)
    I     Atom           X                Y                Z
 ----------------------------------------------------------------
    1      C      -0.3042360000    -0.7829110000     1.0251870000
    2      S       0.0054640000     0.0614890000     2.5358870000
    3      C       0.5432640000     1.5421890000     1.7527870000
    4      C       0.0063640000     0.0705890000    -0.0395130000
    5      C       0.4799640000     1.3760890000     0.3468870000
    6      C      -0.0147360000     0.0075890000    -1.4609130000
    7      C       0.4176640000     1.1961890000    -2.0817130000
    8      S       0.8412640000     2.3695890000    -0.9405130000
    9      C       0.5091640000     1.4336890000    -3.5348130000
   10      O       0.1926640000     0.5554890000    -4.3251130000
   11      O       0.9510640000     2.6383890000    -3.9792130000
   12      F      -0.3921360000    -1.0407110000    -2.2211130000
   13      C       1.0832640000     2.9719890000    -5.3098130000
   14      H       1.4617640000     4.0101890000    -5.3451130000
   15      H       0.1128640000     2.9108890000    -5.8504130000
   16      H       1.7945640000     2.2980890000    -5.8367130000
   17      C      -0.3042360000    -2.2181110000     1.0251870000
   18      H      -0.5001360000    -2.2271110000    -0.0369130000
   19      H       0.5188640000    -2.9020110000     0.8796870000
   20      H      -1.2326360000    -2.7425110000     1.1969870000
   21      H       0.8579640000     2.4066890000     2.3466870000
 ----------------------------------------------------------------

   11   -1389.2465741429      5.33e-07  Convergence criterion met
 Total energy in the final basis set =    -1389.2465741429
        RIMP2         total energy =     -1391.7564493524 a.u.

                    Orbital Energies (a.u.)
 --------------------------------------------------------------

 Alpha MOs
 -- Occupied --
-92.0033 -91.9920 -26.3355 -20.6114 -20.5491 -11.4093 -11.3764 -11.3032
-11.2948 -11.2919 -11.2882 -11.2874 -11.2753 -11.2256  -9.0023  -8.9961
 -6.6831  -6.6824  -6.6821  -6.6773  -6.6767  -6.6753  -1.6488  -1.4711
 -1.3664  -1.2288  -1.1456  -1.0678  -1.0273  -1.0056  -0.9690  -0.9111
 -0.8643  -0.7960  -0.7869  -0.7678  -0.7270  -0.7167  -0.6972  -0.6782
 -0.6780  -0.6699  -0.6074  -0.6053  -0.5985  -0.5893  -0.5779  -0.5682
 -0.5436  -0.5252  -0.5056  -0.4818  -0.4727  -0.4621  -0.4607  -0.4498
 -0.3972  -0.3450  -0.2837

          Ground-State Mulliken Net Atomic Charges

     Atom                 Charge (a.u.)
  ----------------------------------------
      1 C                     0.019539
      2 S                     0.085811
      3 C                    -0.242572
      4 C                    -0.097127
      5 C                    -0.011094
      6 C                     0.368147
      7 C                    -0.146425
      8 S                     0.034895
      9 C                     0.457376
     10 O                    -0.452360
     11 O                    -0.297940
     12 F                    -0.213139
     13 C                    -0.054798
     14 H                     0.116504
     15 H                     0.084272
     16 H                     0.084060
     17 C                    -0.352586
     18 H                     0.112316
     19 H                     0.155517
     20 H                     0.138906
     21 H                     0.210698
  ----------------------------------------
  Sum of atomic charges =     0.000000

                    Cartesian Multipole Moments
 -----------------------------------------------------------------
    Charge (ESU x 10^10)
                -0.0000
    Dipole Moment (Debye)
         X       0.9514      Y       1.2825      Z       2.6983
       Tot       3.1354
    Quadrupole Moments (Debye-Ang)
        XX     -94.7000     XY       3.5738     YY     -83.4678
        XZ      -3.6706     YZ      -9.7808     ZZ     -97.2991

 Total job time:  54.31s(wall), 1934.29s(cpu)
        *  Thank you very much for using Q-Chem.  Have a nice day.  *
