 Q-Chem 5.4, Q-Chem, Inc., Pleasanton, CA (2021)
 Q-Chem 5.4.0 for Intel X86 EM64T Linux

User input:
--------------------------------------------------------------
$molecule
0 1
C	-0.233290	-0.806326	1.023963
S	0.001610	0.061874	2.534663
C	0.408310	1.583774	1.751563
C	0.001710	0.070974	-0.040737
C	0.359710	1.412774	0.345663
C	-0.013790	0.006374	-1.462137
C	0.313410	1.228174	-2.082937
S	0.633010	2.434074	-0.941737
C	0.383810	1.472774	-3.536037
O	0.145010	0.570274	-4.326337
O	0.719010	2.711374	-3.980437
F	-0.298390	-1.070726	-2.222337
C	0.821710	3.055274	-5.311037
H	1.108210	4.122374	-5.346337
H	-0.139690	2.909774	-5.851637
H	1.589010	2.445874	-5.837937
C	-0.233290	-2.241526	1.023963
H	0.778610	-2.250526	0.646663
H	0.052910	-2.925426	1.809263
H	-0.563690	-2.765926	0.139563
H	0.646510	2.472474	2.345463
$end

$rem
JOBTYPE		SP
EXCHANGE	HF
CORRELATION	pRIMP2
BASIS		cc-pvtz
METHOD		rimp2
AUX_BASIS	rimp2-cc-pvtz
SOLVENT_METHOD	PCM
PURECART	11111
SYMMETRY	false
MEM_TOTAL	110000
SCF_CONVERGENCE = 6
THRESH=10
GUI = 2
$end

$solvent
dielectric 4.90
$end
--------------------------------------------------------------

             Standard Nuclear Orientation (Angstroms)
    I     Atom           X                Y                Z
 ----------------------------------------------------------------
    1      C      -0.2332900000    -0.8063260000     1.0239630000
    2      S       0.0016100000     0.0618740000     2.5346630000
    3      C       0.4083100000     1.5837740000     1.7515630000
    4      C       0.0017100000     0.0709740000    -0.0407370000
    5      C       0.3597100000     1.4127740000     0.3456630000
    6      C      -0.0137900000     0.0063740000    -1.4621370000
    7      C       0.3134100000     1.2281740000    -2.0829370000
    8      S       0.6330100000     2.4340740000    -0.9417370000
    9      C       0.3838100000     1.4727740000    -3.5360370000
   10      O       0.1450100000     0.5702740000    -4.3263370000
   11      O       0.7190100000     2.7113740000    -3.9804370000
   12      F      -0.2983900000    -1.0707260000    -2.2223370000
   13      C       0.8217100000     3.0552740000    -5.3110370000
   14      H       1.1082100000     4.1223740000    -5.3463370000
   15      H      -0.1396900000     2.9097740000    -5.8516370000
   16      H       1.5890100000     2.4458740000    -5.8379370000
   17      C      -0.2332900000    -2.2415260000     1.0239630000
   18      H       0.7786100000    -2.2505260000     0.6466630000
   19      H       0.0529100000    -2.9254260000     1.8092630000
   20      H      -0.5636900000    -2.7659260000     0.1395630000
   21      H       0.6465100000     2.4724740000     2.3454630000
 ----------------------------------------------------------------

   11   -1389.2534919716      4.34e-07  Convergence criterion met
 Total energy in the final basis set =    -1389.2534919716
        RIMP2         total energy =     -1391.7571737675 a.u.

                    Orbital Energies (a.u.)
 --------------------------------------------------------------

 Alpha MOs
 -- Occupied --
-92.0068 -91.9884 -26.3348 -20.6091 -20.5448 -11.4057 -11.3767 -11.3207
-11.2920 -11.2871 -11.2867 -11.2740 -11.2665 -11.2361  -9.0055  -8.9926
 -6.6863  -6.6857  -6.6853  -6.6739  -6.6732  -6.6718  -1.6477  -1.4685
 -1.3632  -1.2266  -1.1474  -1.0682  -1.0264  -1.0063  -0.9675  -0.9109
 -0.8624  -0.7956  -0.7846  -0.7656  -0.7259  -0.7154  -0.6969  -0.6776
 -0.6761  -0.6672  -0.6104  -0.6026  -0.5954  -0.5906  -0.5849  -0.5607
 -0.5350  -0.5233  -0.5122  -0.4945  -0.4780  -0.4637  -0.4588  -0.4563
 -0.3896  -0.3467  -0.2726

          Ground-State Mulliken Net Atomic Charges

     Atom                 Charge (a.u.)
  ----------------------------------------
      1 C                     0.054152
      2 S                     0.087506
      3 C                    -0.280403
      4 C                    -0.101379
      5 C                    -0.008396
      6 C                     0.382621
      7 C                    -0.171720
      8 S                     0.026125
      9 C                     0.458932
     10 O                    -0.459468
     11 O                    -0.299173
     12 F                    -0.213105
     13 C                    -0.054888
     14 H                     0.115930
     15 H                     0.083588
     16 H                     0.083320
     17 C                    -0.382716
     18 H                     0.150647
     19 H                     0.170845
     20 H                     0.148730
     21 H                     0.208855
  ----------------------------------------
  Sum of atomic charges =     0.000000

                    Cartesian Multipole Moments
 -----------------------------------------------------------------
    Charge (ESU x 10^10)
                -0.0000
    Dipole Moment (Debye)
         X       1.2612      Y       0.1166      Z       3.5280
       Tot       3.7484
    Quadrupole Moments (Debye-Ang)
        XX     -96.2471     XY       0.8292     YY     -82.4603
        XZ      -1.8757     YZ     -11.7514     ZZ     -97.4430

 Total job time:  53.24s(wall), 1921.04s(cpu)
        *  Thank you very much for using Q-Chem.  Have a nice day.  *
