 Q-Chem 5.4, Q-Chem, Inc., Pleasanton, CA (2021)
 Q-Chem 5.4.0 for Intel X86 EM64T Linux

User input:
--------------------------------------------------------------
$molecule
0 1
C	-0.233464	-0.806326	1.022358
S	0.001436	0.061874	2.533058
C	0.408136	1.583774	1.749958
C	0.001536	0.070974	-0.042342
C	0.359536	1.412774	0.344058
C	-0.013964	0.006374	-1.463742
C	0.313236	1.228174	-2.084542
S	0.632836	2.434074	-0.943342
C	0.383636	1.472774	-3.537642
O	0.144836	0.570274	-4.327942
O	0.718836	2.711374	-3.982042
F	-0.298564	-1.070726	-2.223942
C	0.821536	3.055274	-5.312642
H	1.108036	4.122374	-5.347942
H	-0.139864	2.909774	-5.853242
H	1.588836	2.445874	-5.839542
C	-0.233464	-2.241526	1.022358
H	0.784236	-2.250526	1.383758
H	-0.518964	-2.925426	1.807958
H	0.081936	-2.765926	0.132458
H	0.646336	2.472474	2.343858
$end

$rem
JOBTYPE		SP
EXCHANGE	HF
CORRELATION	pRIMP2
BASIS		cc-pvtz
METHOD		rimp2
AUX_BASIS	rimp2-cc-pvtz
SOLVENT_METHOD	PCM
PURECART	11111
SYMMETRY	false
MEM_TOTAL	110000
SCF_CONVERGENCE = 6
THRESH=10
GUI = 2
$end

$solvent
dielectric 4.90
$end
--------------------------------------------------------------

             Standard Nuclear Orientation (Angstroms)
    I     Atom           X                Y                Z
 ----------------------------------------------------------------
    1      C      -0.2334640000    -0.8063260000     1.0223580000
    2      S       0.0014360000     0.0618740000     2.5330580000
    3      C       0.4081360000     1.5837740000     1.7499580000
    4      C       0.0015360000     0.0709740000    -0.0423420000
    5      C       0.3595360000     1.4127740000     0.3440580000
    6      C      -0.0139640000     0.0063740000    -1.4637420000
    7      C       0.3132360000     1.2281740000    -2.0845420000
    8      S       0.6328360000     2.4340740000    -0.9433420000
    9      C       0.3836360000     1.4727740000    -3.5376420000
   10      O       0.1448360000     0.5702740000    -4.3279420000
   11      O       0.7188360000     2.7113740000    -3.9820420000
   12      F      -0.2985640000    -1.0707260000    -2.2239420000
   13      C       0.8215360000     3.0552740000    -5.3126420000
   14      H       1.1080360000     4.1223740000    -5.3479420000
   15      H      -0.1398640000     2.9097740000    -5.8532420000
   16      H       1.5888360000     2.4458740000    -5.8395420000
   17      C      -0.2334640000    -2.2415260000     1.0223580000
   18      H       0.7842360000    -2.2505260000     1.3837580000
   19      H      -0.5189640000    -2.9254260000     1.8079580000
   20      H       0.0819360000    -2.7659260000     0.1324580000
   21      H       0.6463360000     2.4724740000     2.3438580000
 ----------------------------------------------------------------

   11   -1389.2537217835      4.24e-07  Convergence criterion met
 Total energy in the final basis set =    -1389.2537217835
        RIMP2         total energy =     -1391.7561829049 a.u.

                    Orbital Energies (a.u.)
 --------------------------------------------------------------

 Alpha MOs
 -- Occupied --
-92.0043 -91.9876 -26.3341 -20.6092 -20.5451 -11.4059 -11.3768 -11.3198
-11.2911 -11.2872 -11.2871 -11.2761 -11.2676 -11.2359  -9.0035  -8.9919
 -6.6843  -6.6837  -6.6832  -6.6732  -6.6725  -6.6711  -1.6470  -1.4686
 -1.3634  -1.2265  -1.1478  -1.0672  -1.0277  -1.0058  -0.9675  -0.9104
 -0.8627  -0.7961  -0.7842  -0.7662  -0.7260  -0.7147  -0.6960  -0.6770
 -0.6761  -0.6670  -0.6103  -0.6028  -0.5991  -0.5856  -0.5826  -0.5596
 -0.5351  -0.5264  -0.5170  -0.4932  -0.4781  -0.4612  -0.4582  -0.4561
 -0.3916  -0.3468  -0.2725

          Ground-State Mulliken Net Atomic Charges

     Atom                 Charge (a.u.)
  ----------------------------------------
      1 C                     0.063303
      2 S                     0.077492
      3 C                    -0.272709
      4 C                    -0.116827
      5 C                    -0.012457
      6 C                     0.387391
      7 C                    -0.168567
      8 S                     0.023525
      9 C                     0.459569
     10 O                    -0.458569
     11 O                    -0.299014
     12 F                    -0.212436
     13 C                    -0.054889
     14 H                     0.115969
     15 H                     0.083667
     16 H                     0.083401
     17 C                    -0.375797
     18 H                     0.151679
     19 H                     0.167057
     20 H                     0.148474
     21 H                     0.209737
  ----------------------------------------
  Sum of atomic charges =     0.000000

                    Cartesian Multipole Moments
 -----------------------------------------------------------------
    Charge (ESU x 10^10)
                -0.0000
    Dipole Moment (Debye)
         X       1.2951      Y       0.1488      Z       3.9403
       Tot       4.1504
    Quadrupole Moments (Debye-Ang)
        XX     -96.2586     XY       0.8906     YY     -82.4526
        XZ      -2.3018     YZ     -12.8922     ZZ     -96.4385

 Total job time:  72.09s(wall), 1899.39s(cpu)
        *  Thank you very much for using Q-Chem.  Have a nice day.  *
