 Q-Chem 5.4, Q-Chem, Inc., Pleasanton, CA (2021)
 Q-Chem 5.4.0 for Intel X86 EM64T Linux

User input:
--------------------------------------------------------------
$molecule
0 1
C	-0.077653	-0.833466	1.024825
S	0.002947	0.062334	2.535525
C	0.139147	1.631734	1.752425
C	0.001447	0.071334	-0.039875
C	0.121047	1.454934	0.346525
C	-0.002653	0.005034	-1.461275
C	0.107447	1.265034	-2.082075
S	0.212847	2.508134	-0.940875
C	0.134247	1.518134	-3.535175
O	0.055847	0.587934	-4.325475
O	0.249347	2.796134	-3.979575
F	-0.095853	-1.105166	-2.221475
C	0.290747	3.152634	-5.310175
H	0.387647	4.253334	-5.345475
H	-0.630753	2.842434	-5.850775
H	1.152247	2.685834	-5.837075
C	-0.077653	-2.268666	1.024825
H	-0.624953	-2.277666	0.093825
H	0.646047	-2.952566	0.606625
H	-0.891253	-2.793066	1.503825
H	0.219447	2.548234	2.346325
$end

$rem
JOBTYPE		SP
EXCHANGE	HF
CORRELATION	pRIMP2
BASIS		cc-pvtz
METHOD		rimp2
AUX_BASIS	rimp2-cc-pvtz
SOLVENT_METHOD	PCM
PURECART	11111
SYMMETRY	false
MEM_TOTAL	110000
SCF_CONVERGENCE = 6
THRESH=10
GUI = 2
$end

$solvent
dielectric 4.90
$end
--------------------------------------------------------------

             Standard Nuclear Orientation (Angstroms)
    I     Atom           X                Y                Z
 ----------------------------------------------------------------
    1      C      -0.0776530000    -0.8334660000     1.0248250000
    2      S       0.0029470000     0.0623340000     2.5355250000
    3      C       0.1391470000     1.6317340000     1.7524250000
    4      C       0.0014470000     0.0713340000    -0.0398750000
    5      C       0.1210470000     1.4549340000     0.3465250000
    6      C      -0.0026530000     0.0050340000    -1.4612750000
    7      C       0.1074470000     1.2650340000    -2.0820750000
    8      S       0.2128470000     2.5081340000    -0.9408750000
    9      C       0.1342470000     1.5181340000    -3.5351750000
   10      O       0.0558470000     0.5879340000    -4.3254750000
   11      O       0.2493470000     2.7961340000    -3.9795750000
   12      F      -0.0958530000    -1.1051660000    -2.2214750000
   13      C       0.2907470000     3.1526340000    -5.3101750000
   14      H       0.3876470000     4.2533340000    -5.3454750000
   15      H      -0.6307530000     2.8424340000    -5.8507750000
   16      H       1.1522470000     2.6858340000    -5.8370750000
   17      C      -0.0776530000    -2.2686660000     1.0248250000
   18      H      -0.6249530000    -2.2776660000     0.0938250000
   19      H       0.6460470000    -2.9525660000     0.6066250000
   20      H      -0.8912530000    -2.7930660000     1.5038250000
   21      H       0.2194470000     2.5482340000     2.3463250000
 ----------------------------------------------------------------

   11   -1389.2547146628      4.84e-07  Convergence criterion met
 Total energy in the final basis set =    -1389.2547146628
        RIMP2         total energy =     -1391.7611010344 a.u.

                    Orbital Energies (a.u.)
 --------------------------------------------------------------

 Alpha MOs
 -- Occupied --
-92.0049 -91.9902 -26.3352 -20.6106 -20.5474 -11.4079 -11.3766 -11.3112
-11.2917 -11.2915 -11.2878 -11.2814 -11.2720 -11.2294  -9.0037  -8.9944
 -6.6845  -6.6839  -6.6835  -6.6757  -6.6750  -6.6737  -1.6483  -1.4702
 -1.3652  -1.2275  -1.1453  -1.0677  -1.0269  -1.0065  -0.9684  -0.9117
 -0.8635  -0.7957  -0.7859  -0.7667  -0.7264  -0.7161  -0.6975  -0.6786
 -0.6773  -0.6687  -0.6093  -0.6043  -0.5960  -0.5875  -0.5794  -0.5681
 -0.5441  -0.5244  -0.5053  -0.4820  -0.4770  -0.4625  -0.4600  -0.4553
 -0.3947  -0.3456  -0.2800

          Ground-State Mulliken Net Atomic Charges

     Atom                 Charge (a.u.)
  ----------------------------------------
      1 C                     0.048055
      2 S                     0.081617
      3 C                    -0.258847
      4 C                    -0.101900
      5 C                    -0.010999
      6 C                     0.386693
      7 C                    -0.156963
      8 S                     0.028592
      9 C                     0.458824
     10 O                    -0.455547
     11 O                    -0.298347
     12 F                    -0.214484
     13 C                    -0.055068
     14 H                     0.116331
     15 H                     0.083968
     16 H                     0.083888
     17 C                    -0.371731
     18 H                     0.122269
     19 H                     0.154977
     20 H                     0.148446
     21 H                     0.210226
  ----------------------------------------
  Sum of atomic charges =     0.000000

                    Cartesian Multipole Moments
 -----------------------------------------------------------------
    Charge (ESU x 10^10)
                -0.0000
    Dipole Moment (Debye)
         X      -0.1231      Y       0.9161      Z       2.9402
       Tot       3.0821
    Quadrupole Moments (Debye-Ang)
        XX     -95.9044     XY       1.8012     YY     -82.0956
        XZ      -1.5997     YZ     -10.7693     ZZ     -97.6015

 Total job time:  54.16s(wall), 1917.93s(cpu)
        *  Thank you very much for using Q-Chem.  Have a nice day.  *
