 Q-Chem 5.4, Q-Chem, Inc., Pleasanton, CA (2021)
 Q-Chem 5.4.0 for Intel X86 EM64T Linux

User input:
--------------------------------------------------------------
$molecule
0 1
C	-0.231016	-0.806326	1.020565
S	0.003884	0.061874	2.531265
C	0.410584	1.583774	1.748165
C	0.003984	0.070974	-0.044135
C	0.361984	1.412774	0.342265
C	-0.011516	0.006374	-1.465535
C	0.315684	1.228174	-2.086335
S	0.635284	2.434074	-0.945135
C	0.386084	1.472774	-3.539435
O	0.147284	0.570274	-4.329735
O	0.721284	2.711374	-3.983835
F	-0.296116	-1.070726	-2.225735
C	0.823984	3.055274	-5.314435
H	1.110484	4.122374	-5.349735
H	-0.137416	2.909774	-5.855035
H	1.591284	2.445874	-5.841335
C	-0.231016	-2.241526	1.020565
H	-0.410216	-2.250526	2.085565
H	-1.054216	-2.925426	0.875765
H	0.700184	-2.765926	1.176665
H	0.648784	2.472474	2.342065
$end

$rem
JOBTYPE		SP
EXCHANGE	HF
CORRELATION	pRIMP2
BASIS		cc-pvtz
METHOD		rimp2
AUX_BASIS	rimp2-cc-pvtz
SOLVENT_METHOD	PCM
PURECART	11111
SYMMETRY	false
MEM_TOTAL	110000
SCF_CONVERGENCE = 6
THRESH=10
GUI = 2
$end

$solvent
dielectric 4.90
$end
--------------------------------------------------------------

             Standard Nuclear Orientation (Angstroms)
    I     Atom           X                Y                Z
 ----------------------------------------------------------------
    1      C      -0.2310160000    -0.8063260000     1.0205650000
    2      S       0.0038840000     0.0618740000     2.5312650000
    3      C       0.4105840000     1.5837740000     1.7481650000
    4      C       0.0039840000     0.0709740000    -0.0441350000
    5      C       0.3619840000     1.4127740000     0.3422650000
    6      C      -0.0115160000     0.0063740000    -1.4655350000
    7      C       0.3156840000     1.2281740000    -2.0863350000
    8      S       0.6352840000     2.4340740000    -0.9451350000
    9      C       0.3860840000     1.4727740000    -3.5394350000
   10      O       0.1472840000     0.5702740000    -4.3297350000
   11      O       0.7212840000     2.7113740000    -3.9838350000
   12      F      -0.2961160000    -1.0707260000    -2.2257350000
   13      C       0.8239840000     3.0552740000    -5.3144350000
   14      H       1.1104840000     4.1223740000    -5.3497350000
   15      H      -0.1374160000     2.9097740000    -5.8550350000
   16      H       1.5912840000     2.4458740000    -5.8413350000
   17      C      -0.2310160000    -2.2415260000     1.0205650000
   18      H      -0.4102160000    -2.2505260000     2.0855650000
   19      H      -1.0542160000    -2.9254260000     0.8757650000
   20      H       0.7001840000    -2.7659260000     1.1766650000
   21      H       0.6487840000     2.4724740000     2.3420650000
 ----------------------------------------------------------------

   11   -1389.2484038143      5.00e-07  Convergence criterion met
 Total energy in the final basis set =    -1389.2484038143
        RIMP2         total energy =     -1391.7558897598 a.u.

                    Orbital Energies (a.u.)
 --------------------------------------------------------------

 Alpha MOs
 -- Occupied --
-92.0100 -91.9903 -26.3329 -20.6105 -20.5476 -11.4079 -11.3748 -11.3051
-11.2921 -11.2916 -11.2876 -11.2854 -11.2692 -11.2278  -9.0086  -8.9944
 -6.6893  -6.6887  -6.6883  -6.6757  -6.6751  -6.6737  -1.6458  -1.4701
 -1.3651  -1.2270  -1.1471  -1.0649  -1.0299  -1.0051  -0.9686  -0.9096
 -0.8646  -0.7967  -0.7841  -0.7680  -0.7263  -0.7139  -0.6954  -0.6771
 -0.6759  -0.6681  -0.6092  -0.6043  -0.5968  -0.5875  -0.5750  -0.5680
 -0.5434  -0.5249  -0.5050  -0.4812  -0.4718  -0.4647  -0.4600  -0.4581
 -0.3953  -0.3462  -0.2827

          Ground-State Mulliken Net Atomic Charges

     Atom                 Charge (a.u.)
  ----------------------------------------
      1 C                     0.035316
      2 S                     0.086196
      3 C                    -0.252958
      4 C                    -0.091133
      5 C                    -0.007385
      6 C                     0.376024
      7 C                    -0.159832
      8 S                     0.031153
      9 C                     0.457669
     10 O                    -0.453808
     11 O                    -0.298301
     12 F                    -0.212491
     13 C                    -0.054910
     14 H                     0.116245
     15 H                     0.084050
     16 H                     0.083921
     17 C                    -0.358992
     18 H                     0.110516
     19 H                     0.158159
     20 H                     0.138217
     21 H                     0.212344
  ----------------------------------------
  Sum of atomic charges =     0.000000

                    Cartesian Multipole Moments
 -----------------------------------------------------------------
    Charge (ESU x 10^10)
                -0.0000
    Dipole Moment (Debye)
         X       0.6863      Y       1.2045      Z       4.1256
       Tot       4.3523
    Quadrupole Moments (Debye-Ang)
        XX     -95.2214     XY       2.9259     YY     -83.0607
        XZ      -2.8228     YZ     -12.9520     ZZ     -94.8310

 Total job time:  54.44s(wall), 1894.59s(cpu)
        *  Thank you very much for using Q-Chem.  Have a nice day.  *
