 Q-Chem 5.4, Q-Chem, Inc., Pleasanton, CA (2021)
 Q-Chem 5.4.0 for Intel X86 EM64T Linux

User input:
--------------------------------------------------------------
$molecule
0 1
C	-0.573119	-0.628442	1.024315
S	0.006781	0.059158	2.535015
C	1.018481	1.266558	1.751915
C	0.010681	0.067358	-0.040385
C	0.902181	1.132158	0.346015
C	-0.030719	0.015358	-1.461785
C	0.782181	0.984358	-2.082585
S	1.581481	1.942158	-0.941385
C	0.949281	1.176358	-3.535685
O	0.351581	0.459358	-4.325985
O	1.776581	2.157258	-3.980085
F	-0.743919	-0.840542	-2.221985
C	2.014981	2.425458	-5.310685
H	2.725681	3.271558	-5.345985
H	1.082181	2.699958	-5.851285
H	2.452881	1.548958	-5.837585
C	-0.573119	-2.063642	1.024315
H	0.357881	-2.072642	0.477015
H	-0.154919	-2.747542	1.748015
H	-1.052119	-2.588042	0.210715
H	1.609981	1.971358	2.345815
$end

$rem
JOBTYPE		SP
EXCHANGE	HF
CORRELATION	pRIMP2
BASIS		cc-pvtz
METHOD		rimp2
AUX_BASIS	rimp2-cc-pvtz
SOLVENT_METHOD	PCM
PURECART	11111
SYMMETRY	false
MEM_TOTAL	110000
SCF_CONVERGENCE = 6
THRESH=10
GUI = 2
$end

$solvent
dielectric 4.90
$end
--------------------------------------------------------------

             Standard Nuclear Orientation (Angstroms)
    I     Atom           X                Y                Z
 ----------------------------------------------------------------
    1      C      -0.5731190000    -0.6284420000     1.0243150000
    2      S       0.0067810000     0.0591580000     2.5350150000
    3      C       1.0184810000     1.2665580000     1.7519150000
    4      C       0.0106810000     0.0673580000    -0.0403850000
    5      C       0.9021810000     1.1321580000     0.3460150000
    6      C      -0.0307190000     0.0153580000    -1.4617850000
    7      C       0.7821810000     0.9843580000    -2.0825850000
    8      S       1.5814810000     1.9421580000    -0.9413850000
    9      C       0.9492810000     1.1763580000    -3.5356850000
   10      O       0.3515810000     0.4593580000    -4.3259850000
   11      O       1.7765810000     2.1572580000    -3.9800850000
   12      F      -0.7439190000    -0.8405420000    -2.2219850000
   13      C       2.0149810000     2.4254580000    -5.3106850000
   14      H       2.7256810000     3.2715580000    -5.3459850000
   15      H       1.0821810000     2.6999580000    -5.8512850000
   16      H       2.4528810000     1.5489580000    -5.8375850000
   17      C      -0.5731190000    -2.0636420000     1.0243150000
   18      H       0.3578810000    -2.0726420000     0.4770150000
   19      H      -0.1549190000    -2.7475420000     1.7480150000
   20      H      -1.0521190000    -2.5880420000     0.2107150000
   21      H       1.6099810000     1.9713580000     2.3458150000
 ----------------------------------------------------------------

   11   -1389.2214093519      5.70e-07  Convergence criterion met
 Total energy in the final basis set =    -1389.2214093519
        RIMP2         total energy =     -1391.7366408291 a.u.

                    Orbital Energies (a.u.)
 --------------------------------------------------------------

 Alpha MOs
 -- Occupied --
-92.0085 -91.9928 -26.3342 -20.6107 -20.5478 -11.4083 -11.3754 -11.3048
-11.2937 -11.2927 -11.2879 -11.2861 -11.2695 -11.2283  -9.0072  -8.9968
 -6.6879  -6.6872  -6.6869  -6.6781  -6.6774  -6.6761  -1.6472  -1.4704
 -1.3655  -1.2301  -1.1509  -1.0690  -1.0273  -1.0036  -0.9691  -0.9077
 -0.8641  -0.7957  -0.7857  -0.7680  -0.7268  -0.7154  -0.6965  -0.6776
 -0.6772  -0.6691  -0.6085  -0.6045  -0.5986  -0.5904  -0.5854  -0.5614
 -0.5309  -0.5250  -0.5078  -0.4915  -0.4794  -0.4622  -0.4593  -0.4584
 -0.3852  -0.3458  -0.2758

          Ground-State Mulliken Net Atomic Charges

     Atom                 Charge (a.u.)
  ----------------------------------------
      1 C                    -0.011518
      2 S                     0.103775
      3 C                    -0.252045
      4 C                    -0.070434
      5 C                    -0.008799
      6 C                     0.360246
      7 C                    -0.161853
      8 S                     0.041054
      9 C                     0.457975
     10 O                    -0.454286
     11 O                    -0.298665
     12 F                    -0.211307
     13 C                    -0.054640
     14 H                     0.116254
     15 H                     0.084126
     16 H                     0.083782
     17 C                    -0.378906
     18 H                     0.141597
     19 H                     0.167013
     20 H                     0.136185
     21 H                     0.210446
  ----------------------------------------
  Sum of atomic charges =     0.000000

                    Cartesian Multipole Moments
 -----------------------------------------------------------------
    Charge (ESU x 10^10)
                -0.0000
    Dipole Moment (Debye)
         X       2.5547      Y       0.6208      Z       3.2558
       Tot       4.1847
    Quadrupole Moments (Debye-Ang)
        XX     -93.4048     XY       3.8854     YY     -86.7493
        XZ      -5.7246     YZ      -8.9005     ZZ     -96.2124

 Total job time:  56.25s(wall), 2006.81s(cpu)
        *  Thank you very much for using Q-Chem.  Have a nice day.  *
