 Q-Chem 5.4, Q-Chem, Inc., Pleasanton, CA (2021)
 Q-Chem 5.4.0 for Intel X86 EM64T Linux

User input:
--------------------------------------------------------------
$molecule
0 1
C	-0.229538	-0.806326	1.021216
S	0.005362	0.061874	2.531916
C	0.412062	1.583774	1.748816
C	0.005462	0.070974	-0.043484
C	0.363462	1.412774	0.342916
C	-0.010038	0.006374	-1.464884
C	0.317162	1.228174	-2.085684
S	0.636762	2.434074	-0.944484
C	0.387562	1.472774	-3.538784
O	0.148762	0.570274	-4.329084
O	0.722762	2.711374	-3.983184
F	-0.294638	-1.070726	-2.225084
C	0.825462	3.055274	-5.313784
H	1.111962	4.122374	-5.349084
H	-0.135938	2.909774	-5.854384
H	1.592762	2.445874	-5.840684
C	-0.229538	-2.241526	1.021216
H	-1.051338	-2.250526	1.721816
H	-0.767138	-2.925426	0.381116
H	0.383462	-2.765926	1.739316
H	0.650262	2.472474	2.342716
$end

$rem
JOBTYPE		SP
EXCHANGE	HF
CORRELATION	pRIMP2
BASIS		cc-pvtz
METHOD		rimp2
AUX_BASIS	rimp2-cc-pvtz
SOLVENT_METHOD	PCM
PURECART	11111
SYMMETRY	false
MEM_TOTAL	110000
SCF_CONVERGENCE = 6
THRESH=10
GUI = 2
$end

$solvent
dielectric 4.90
$end
--------------------------------------------------------------

             Standard Nuclear Orientation (Angstroms)
    I     Atom           X                Y                Z
 ----------------------------------------------------------------
    1      C      -0.2295380000    -0.8063260000     1.0212160000
    2      S       0.0053620000     0.0618740000     2.5319160000
    3      C       0.4120620000     1.5837740000     1.7488160000
    4      C       0.0054620000     0.0709740000    -0.0434840000
    5      C       0.3634620000     1.4127740000     0.3429160000
    6      C      -0.0100380000     0.0063740000    -1.4648840000
    7      C       0.3171620000     1.2281740000    -2.0856840000
    8      S       0.6367620000     2.4340740000    -0.9444840000
    9      C       0.3875620000     1.4727740000    -3.5387840000
   10      O       0.1487620000     0.5702740000    -4.3290840000
   11      O       0.7227620000     2.7113740000    -3.9831840000
   12      F      -0.2946380000    -1.0707260000    -2.2250840000
   13      C       0.8254620000     3.0552740000    -5.3137840000
   14      H       1.1119620000     4.1223740000    -5.3490840000
   15      H      -0.1359380000     2.9097740000    -5.8543840000
   16      H       1.5927620000     2.4458740000    -5.8406840000
   17      C      -0.2295380000    -2.2415260000     1.0212160000
   18      H      -1.0513380000    -2.2505260000     1.7218160000
   19      H      -0.7671380000    -2.9254260000     0.3811160000
   20      H       0.3834620000    -2.7659260000     1.7393160000
   21      H       0.6502620000     2.4724740000     2.3427160000
 ----------------------------------------------------------------

   11   -1389.2492111307      4.62e-07  Convergence criterion met
 Total energy in the final basis set =    -1389.2492111307
        RIMP2         total energy =     -1391.7543023544 a.u.

                    Orbital Energies (a.u.)
 --------------------------------------------------------------

 Alpha MOs
 -- Occupied --
-92.0076 -91.9885 -26.3332 -20.6097 -20.5460 -11.4067 -11.3756 -11.3125
-11.2911 -11.2892 -11.2872 -11.2805 -11.2676 -11.2308  -9.0064  -8.9927
 -6.6872  -6.6867  -6.6862  -6.6740  -6.6733  -6.6720  -1.6462  -1.4692
 -1.3640  -1.2263  -1.1468  -1.0656  -1.0286  -1.0056  -0.9678  -0.9106
 -0.8633  -0.7962  -0.7840  -0.7667  -0.7258  -0.7140  -0.6953  -0.6765
 -0.6764  -0.6673  -0.6098  -0.6034  -0.5944  -0.5865  -0.5822  -0.5614
 -0.5381  -0.5252  -0.5102  -0.4883  -0.4793  -0.4616  -0.4586  -0.4570
 -0.3915  -0.3465  -0.2760

          Ground-State Mulliken Net Atomic Charges

     Atom                 Charge (a.u.)
  ----------------------------------------
      1 C                     0.006220
      2 S                     0.079957
      3 C                    -0.256385
      4 C                    -0.059398
      5 C                    -0.016986
      6 C                     0.381038
      7 C                    -0.165998
      8 S                     0.024551
      9 C                     0.458561
     10 O                    -0.456596
     11 O                    -0.298636
     12 F                    -0.212396
     13 C                    -0.054911
     14 H                     0.116055
     15 H                     0.083740
     16 H                     0.083682
     17 C                    -0.370914
     18 H                     0.131192
     19 H                     0.167767
     20 H                     0.148227
     21 H                     0.211232
  ----------------------------------------
  Sum of atomic charges =     0.000000

                    Cartesian Multipole Moments
 -----------------------------------------------------------------
    Charge (ESU x 10^10)
                -0.0000
    Dipole Moment (Debye)
         X       0.1282      Y       0.6369      Z       4.0924
       Tot       4.1437
    Quadrupole Moments (Debye-Ang)
        XX     -95.4554     XY       3.9706     YY     -82.7633
        XZ      -3.0494     YZ     -12.7866     ZZ     -95.5579

 Total job time:  57.34s(wall), 1904.91s(cpu)
        *  Thank you very much for using Q-Chem.  Have a nice day.  *
