 Q-Chem 5.4, Q-Chem, Inc., Pleasanton, CA (2021)
 Q-Chem 5.4.0 for Intel X86 EM64T Linux

User input:
--------------------------------------------------------------
$molecule
0 1
C	-0.000844	-0.836989	1.020760
S	0.001356	0.062411	2.531460
C	0.000356	1.637711	1.748360
C	-0.000844	0.071211	-0.043940
C	-0.002344	1.460011	0.342460
C	0.000756	0.004811	-1.465340
C	0.000656	1.269711	-2.086140
S	-0.002644	2.517211	-0.944940
C	0.005356	1.524111	-3.539240
O	0.008356	0.590611	-4.329540
O	0.008556	2.807311	-3.983640
F	0.004656	-1.109289	-2.225540
C	0.018756	3.166011	-5.314240
H	0.019356	4.271011	-5.349540
H	-0.872244	2.776711	-5.854840
H	0.917656	2.776111	-5.841140
C	-0.000844	-2.272189	1.020760
H	-0.533444	-2.281189	1.960260
H	-0.724944	-2.956089	0.603160
H	0.820756	-2.796589	1.485860
H	0.000356	2.557811	2.342260
$end

$rem
JOBTYPE		SP
EXCHANGE	HF
CORRELATION	pRIMP2
BASIS		cc-pvtz
METHOD		rimp2
AUX_BASIS	rimp2-cc-pvtz
SOLVENT_METHOD	PCM
PURECART	11111
SYMMETRY	false
MEM_TOTAL	110000
SCF_CONVERGENCE = 6
THRESH=10
GUI = 2
$end

$solvent
dielectric 4.90
$end
--------------------------------------------------------------

             Standard Nuclear Orientation (Angstroms)
    I     Atom           X                Y                Z
 ----------------------------------------------------------------
    1      C      -0.0008440000    -0.8369890000     1.0207600000
    2      S       0.0013560000     0.0624110000     2.5314600000
    3      C       0.0003560000     1.6377110000     1.7483600000
    4      C      -0.0008440000     0.0712110000    -0.0439400000
    5      C      -0.0023440000     1.4600110000     0.3424600000
    6      C       0.0007560000     0.0048110000    -1.4653400000
    7      C       0.0006560000     1.2697110000    -2.0861400000
    8      S      -0.0026440000     2.5172110000    -0.9449400000
    9      C       0.0053560000     1.5241110000    -3.5392400000
   10      O       0.0083560000     0.5906110000    -4.3295400000
   11      O       0.0085560000     2.8073110000    -3.9836400000
   12      F       0.0046560000    -1.1092890000    -2.2255400000
   13      C       0.0187560000     3.1660110000    -5.3142400000
   14      H       0.0193560000     4.2710110000    -5.3495400000
   15      H      -0.8722440000     2.7767110000    -5.8548400000
   16      H       0.9176560000     2.7761110000    -5.8411400000
   17      C      -0.0008440000    -2.2721890000     1.0207600000
   18      H      -0.5334440000    -2.2811890000     1.9602600000
   19      H      -0.7249440000    -2.9560890000     0.6031600000
   20      H       0.8207560000    -2.7965890000     1.4858600000
   21      H       0.0003560000     2.5578110000     2.3422600000
 ----------------------------------------------------------------

   11   -1389.2530572799      4.61e-07  Convergence criterion met
 Total energy in the final basis set =    -1389.2530572799
        RIMP2         total energy =     -1391.7578533890 a.u.

                    Orbital Energies (a.u.)
 --------------------------------------------------------------

 Alpha MOs
 -- Occupied --
-92.0085 -91.9889 -26.3331 -20.6100 -20.5467 -11.4072 -11.3755 -11.3109
-11.2911 -11.2903 -11.2874 -11.2818 -11.2683 -11.2299  -9.0073  -8.9932
 -6.6880  -6.6875  -6.6870  -6.6745  -6.6738  -6.6725  -1.6460  -1.4696
 -1.3645  -1.2264  -1.1467  -1.0653  -1.0294  -1.0056  -0.9681  -0.9103
 -0.8638  -0.7965  -0.7839  -0.7672  -0.7260  -0.7139  -0.6957  -0.6768
 -0.6766  -0.6675  -0.6094  -0.6038  -0.5967  -0.5869  -0.5755  -0.5669
 -0.5434  -0.5247  -0.5066  -0.4826  -0.4790  -0.4623  -0.4593  -0.4573
 -0.3946  -0.3464  -0.2793

          Ground-State Mulliken Net Atomic Charges

     Atom                 Charge (a.u.)
  ----------------------------------------
      1 C                     0.039056
      2 S                     0.082208
      3 C                    -0.259946
      4 C                    -0.086449
      5 C                    -0.012151
      6 C                     0.392632
      7 C                    -0.164920
      8 S                     0.025904
      9 C                     0.459485
     10 O                    -0.455746
     11 O                    -0.298541
     12 F                    -0.213644
     13 C                    -0.055002
     14 H                     0.116122
     15 H                     0.083857
     16 H                     0.083829
     17 C                    -0.371503
     18 H                     0.120708
     19 H                     0.163182
     20 H                     0.139170
     21 H                     0.211750
  ----------------------------------------
  Sum of atomic charges =     0.000000

                    Cartesian Multipole Moments
 -----------------------------------------------------------------
    Charge (ESU x 10^10)
                -0.0000
    Dipole Moment (Debye)
         X      -0.3245      Y       0.9078      Z       4.1692
       Tot       4.2792
    Quadrupole Moments (Debye-Ang)
        XX     -96.0522     XY       1.0133     YY     -82.1651
        XZ      -0.0711     YZ     -13.4447     ZZ     -95.2224

 Total job time:  54.67s(wall), 1939.10s(cpu)
        *  Thank you very much for using Q-Chem.  Have a nice day.  *
