 Q-Chem 5.4, Q-Chem, Inc., Pleasanton, CA (2021)
 Q-Chem 5.4.0 for Intel X86 EM64T Linux

User input:
--------------------------------------------------------------
$molecule
0 1
C	-0.080442	-0.833466	1.021016
S	0.000158	0.062334	2.531716
C	0.136358	1.631734	1.748616
C	-0.001342	0.071334	-0.043684
C	0.118258	1.454934	0.342716
C	-0.005442	0.005034	-1.465084
C	0.104658	1.265034	-2.085884
S	0.210058	2.508134	-0.944684
C	0.131458	1.518134	-3.538984
O	0.053058	0.587934	-4.329284
O	0.246558	2.796134	-3.983384
F	-0.098642	-1.105166	-2.225284
C	0.287958	3.152634	-5.313984
H	0.384858	4.253334	-5.349284
H	-0.633542	2.842434	-5.854584
H	1.149458	2.685834	-5.840884
C	-0.080442	-2.268666	1.021016
H	0.466858	-2.277666	1.952016
H	-0.804142	-2.952566	1.439216
H	0.733158	-2.793066	0.542016
H	0.216658	2.548234	2.342516
$end

$rem
JOBTYPE		SP
EXCHANGE	HF
CORRELATION	pRIMP2
BASIS		cc-pvtz
METHOD		rimp2
AUX_BASIS	rimp2-cc-pvtz
SOLVENT_METHOD	PCM
PURECART	11111
SYMMETRY	false
MEM_TOTAL	110000
SCF_CONVERGENCE = 6
THRESH=10
GUI = 2
$end

$solvent
dielectric 4.90
$end
--------------------------------------------------------------

             Standard Nuclear Orientation (Angstroms)
    I     Atom           X                Y                Z
 ----------------------------------------------------------------
    1      C      -0.0804420000    -0.8334660000     1.0210160000
    2      S       0.0001580000     0.0623340000     2.5317160000
    3      C       0.1363580000     1.6317340000     1.7486160000
    4      C      -0.0013420000     0.0713340000    -0.0436840000
    5      C       0.1182580000     1.4549340000     0.3427160000
    6      C      -0.0054420000     0.0050340000    -1.4650840000
    7      C       0.1046580000     1.2650340000    -2.0858840000
    8      S       0.2100580000     2.5081340000    -0.9446840000
    9      C       0.1314580000     1.5181340000    -3.5389840000
   10      O       0.0530580000     0.5879340000    -4.3292840000
   11      O       0.2465580000     2.7961340000    -3.9833840000
   12      F      -0.0986420000    -1.1051660000    -2.2252840000
   13      C       0.2879580000     3.1526340000    -5.3139840000
   14      H       0.3848580000     4.2533340000    -5.3492840000
   15      H      -0.6335420000     2.8424340000    -5.8545840000
   16      H       1.1494580000     2.6858340000    -5.8408840000
   17      C      -0.0804420000    -2.2686660000     1.0210160000
   18      H       0.4668580000    -2.2776660000     1.9520160000
   19      H      -0.8041420000    -2.9525660000     1.4392160000
   20      H       0.7331580000    -2.7930660000     0.5420160000
   21      H       0.2166580000     2.5482340000     2.3425160000
 ----------------------------------------------------------------

   11   -1389.2527975738      4.65e-07  Convergence criterion met
 Total energy in the final basis set =    -1389.2527975738
        RIMP2         total energy =     -1391.7578464014 a.u.

                    Orbital Energies (a.u.)
 --------------------------------------------------------------

 Alpha MOs
 -- Occupied --
-92.0077 -91.9891 -26.3331 -20.6101 -20.5468 -11.4073 -11.3755 -11.3108
-11.2912 -11.2905 -11.2875 -11.2819 -11.2691 -11.2297  -9.0066  -8.9934
 -6.6873  -6.6868  -6.6863  -6.6747  -6.6740  -6.6726  -1.6461  -1.4697
 -1.3646  -1.2266  -1.1468  -1.0654  -1.0293  -1.0055  -0.9682  -0.9102
 -0.8639  -0.7965  -0.7840  -0.7673  -0.7262  -0.7140  -0.6956  -0.6768
 -0.6763  -0.6676  -0.6092  -0.6038  -0.5977  -0.5869  -0.5779  -0.5650
 -0.5429  -0.5247  -0.5065  -0.4826  -0.4795  -0.4618  -0.4593  -0.4571
 -0.3949  -0.3462  -0.2794

          Ground-State Mulliken Net Atomic Charges

     Atom                 Charge (a.u.)
  ----------------------------------------
      1 C                     0.044572
      2 S                     0.082425
      3 C                    -0.259711
      4 C                    -0.090049
      5 C                    -0.012889
      6 C                     0.395048
      7 C                    -0.166461
      8 S                     0.026578
      9 C                     0.459763
     10 O                    -0.455507
     11 O                    -0.298476
     12 F                    -0.213541
     13 C                    -0.055057
     14 H                     0.116157
     15 H                     0.083980
     16 H                     0.083794
     17 C                    -0.373853
     18 H                     0.121728
     19 H                     0.154252
     20 H                     0.145729
     21 H                     0.211520
  ----------------------------------------
  Sum of atomic charges =     0.000000

                    Cartesian Multipole Moments
 -----------------------------------------------------------------
    Charge (ESU x 10^10)
                -0.0000
    Dipole Moment (Debye)
         X       0.6029      Y       0.9182      Z       4.1306
       Tot       4.2741
    Quadrupole Moments (Debye-Ang)
        XX     -96.0386     XY       0.0981     YY     -82.2740
        XZ      -0.9241     YZ     -13.5188     ZZ     -95.2162

 Total job time:  54.25s(wall), 1944.84s(cpu)
        *  Thank you very much for using Q-Chem.  Have a nice day.  *
