 Q-Chem 5.4, Q-Chem, Inc., Pleasanton, CA (2021)
 Q-Chem 5.4.0 for Intel X86 EM64T Linux

User input:
--------------------------------------------------------------
$molecule
0 1
C	-0.374646	-0.753180	1.021216
S	0.007454	0.061020	2.531916
C	0.672254	1.489220	1.748816
C	0.009154	0.069920	-0.043484
C	0.594754	1.329320	0.342916
C	-0.017446	0.009120	-1.464884
C	0.517054	1.155520	-2.085684
S	1.041254	2.287520	-0.944484
C	0.628854	1.384120	-3.538784
O	0.236954	0.536820	-4.329084
O	1.174054	2.545720	-3.983184
F	-0.484746	-1.002280	-2.225084
C	1.334854	2.866520	-5.313784
H	1.802354	3.867720	-5.349084
H	0.362754	2.890220	-5.854384
H	1.984754	2.133220	-5.840684
C	-0.374646	-2.188380	1.021216
H	-1.196446	-2.197380	1.721816
H	-0.912246	-2.872280	0.381116
H	0.238354	-2.712780	1.739316
H	1.061154	2.323020	2.342716
$end

$rem
JOBTYPE		SP
EXCHANGE	HF
CORRELATION	pRIMP2
BASIS		cc-pvtz
METHOD		rimp2
AUX_BASIS	rimp2-cc-pvtz
SOLVENT_METHOD	PCM
PURECART	11111
SYMMETRY	false
MEM_TOTAL	110000
SCF_CONVERGENCE = 6
THRESH=10
GUI = 2
$end

$solvent
dielectric 4.90
$end
--------------------------------------------------------------

             Standard Nuclear Orientation (Angstroms)
    I     Atom           X                Y                Z
 ----------------------------------------------------------------
    1      C      -0.3746460000    -0.7531800000     1.0212160000
    2      S       0.0074540000     0.0610200000     2.5319160000
    3      C       0.6722540000     1.4892200000     1.7488160000
    4      C       0.0091540000     0.0699200000    -0.0434840000
    5      C       0.5947540000     1.3293200000     0.3429160000
    6      C      -0.0174460000     0.0091200000    -1.4648840000
    7      C       0.5170540000     1.1555200000    -2.0856840000
    8      S       1.0412540000     2.2875200000    -0.9444840000
    9      C       0.6288540000     1.3841200000    -3.5387840000
   10      O       0.2369540000     0.5368200000    -4.3290840000
   11      O       1.1740540000     2.5457200000    -3.9831840000
   12      F      -0.4847460000    -1.0022800000    -2.2250840000
   13      C       1.3348540000     2.8665200000    -5.3137840000
   14      H       1.8023540000     3.8677200000    -5.3490840000
   15      H       0.3627540000     2.8902200000    -5.8543840000
   16      H       1.9847540000     2.1332200000    -5.8406840000
   17      C      -0.3746460000    -2.1883800000     1.0212160000
   18      H      -1.1964460000    -2.1973800000     1.7218160000
   19      H      -0.9122460000    -2.8722800000     0.3811160000
   20      H       0.2383540000    -2.7127800000     1.7393160000
   21      H       1.0611540000     2.3230200000     2.3427160000
 ----------------------------------------------------------------

   11   -1389.2401900708      5.04e-07  Convergence criterion met
 Total energy in the final basis set =    -1389.2401900708
        RIMP2         total energy =     -1391.7484765559 a.u.

                    Orbital Energies (a.u.)
 --------------------------------------------------------------

 Alpha MOs
 -- Occupied --
-92.0077 -91.9895 -26.3330 -20.6101 -20.5469 -11.4074 -11.3751 -11.3071
-11.2914 -11.2909 -11.2875 -11.2842 -11.2688 -11.2282  -9.0065  -8.9937
 -6.6873  -6.6867  -6.6862  -6.6750  -6.6744  -6.6730  -1.6460  -1.4697
 -1.3647  -1.2269  -1.1473  -1.0654  -1.0288  -1.0050  -0.9681  -0.9100
 -0.8638  -0.7962  -0.7842  -0.7673  -0.7261  -0.7140  -0.6949  -0.6769
 -0.6758  -0.6678  -0.6095  -0.6039  -0.5935  -0.5870  -0.5836  -0.5609
 -0.5357  -0.5255  -0.5096  -0.4872  -0.4800  -0.4610  -0.4583  -0.4575
 -0.3901  -0.3463  -0.2768

          Ground-State Mulliken Net Atomic Charges

     Atom                 Charge (a.u.)
  ----------------------------------------
      1 C                    -0.015788
      2 S                     0.084137
      3 C                    -0.247410
      4 C                    -0.049128
      5 C                    -0.015746
      6 C                     0.370335
      7 C                    -0.162731
      8 S                     0.028473
      9 C                     0.457620
     10 O                    -0.454981
     11 O                    -0.298477
     12 F                    -0.211417
     13 C                    -0.054787
     14 H                     0.116144
     15 H                     0.083851
     16 H                     0.083820
     17 C                    -0.370625
     18 H                     0.129910
     19 H                     0.164825
     20 H                     0.150412
     21 H                     0.211563
  ----------------------------------------
  Sum of atomic charges =     0.000000

                    Cartesian Multipole Moments
 -----------------------------------------------------------------
    Charge (ESU x 10^10)
                -0.0000
    Dipole Moment (Debye)
         X       0.6810      Y       0.7926      Z       4.0005
       Tot       4.1347
    Quadrupole Moments (Debye-Ang)
        XX     -94.3116     XY       5.2799     YY     -84.0950
        XZ      -4.7307     YZ     -11.8815     ZZ     -95.2407

 Total job time:  53.41s(wall), 1925.44s(cpu)
        *  Thank you very much for using Q-Chem.  Have a nice day.  *
