 Q-Chem 5.4, Q-Chem, Inc., Pleasanton, CA (2021)
 Q-Chem 5.4.0 for Intel X86 EM64T Linux

User input:
--------------------------------------------------------------
$molecule
0 1
C	-0.000402	-0.836989	1.024825
S	0.001798	0.062411	2.535525
C	0.000798	1.637711	1.752425
C	-0.000402	0.071211	-0.039875
C	-0.001902	1.460011	0.346525
C	0.001198	0.004811	-1.461275
C	0.001098	1.269711	-2.082075
S	-0.002202	2.517211	-0.940875
C	0.005798	1.524111	-3.535175
O	0.008798	0.590611	-4.325475
O	0.008998	2.807311	-3.979575
F	0.005098	-1.109289	-2.221475
C	0.019198	3.166011	-5.310175
H	0.019798	4.271011	-5.345475
H	-0.871802	2.776711	-5.850775
H	0.918098	2.776111	-5.837075
C	-0.000402	-2.272189	1.024825
H	-0.547702	-2.281189	0.093825
H	0.723298	-2.956089	0.606625
H	-0.814002	-2.796589	1.503825
H	0.000798	2.557811	2.346325
$end

$rem
JOBTYPE		SP
EXCHANGE	HF
CORRELATION	pRIMP2
BASIS		cc-pvtz
METHOD		rimp2
AUX_BASIS	rimp2-cc-pvtz
SOLVENT_METHOD	PCM
PURECART	11111
SYMMETRY	false
MEM_TOTAL	110000
SCF_CONVERGENCE = 6
THRESH=10
GUI = 2
$end

$solvent
dielectric 4.90
$end
--------------------------------------------------------------

             Standard Nuclear Orientation (Angstroms)
    I     Atom           X                Y                Z
 ----------------------------------------------------------------
    1      C      -0.0004020000    -0.8369890000     1.0248250000
    2      S       0.0017980000     0.0624110000     2.5355250000
    3      C       0.0007980000     1.6377110000     1.7524250000
    4      C      -0.0004020000     0.0712110000    -0.0398750000
    5      C      -0.0019020000     1.4600110000     0.3465250000
    6      C       0.0011980000     0.0048110000    -1.4612750000
    7      C       0.0010980000     1.2697110000    -2.0820750000
    8      S      -0.0022020000     2.5172110000    -0.9408750000
    9      C       0.0057980000     1.5241110000    -3.5351750000
   10      O       0.0087980000     0.5906110000    -4.3254750000
   11      O       0.0089980000     2.8073110000    -3.9795750000
   12      F       0.0050980000    -1.1092890000    -2.2214750000
   13      C       0.0191980000     3.1660110000    -5.3101750000
   14      H       0.0197980000     4.2710110000    -5.3454750000
   15      H      -0.8718020000     2.7767110000    -5.8507750000
   16      H       0.9180980000     2.7761110000    -5.8370750000
   17      C      -0.0004020000    -2.2721890000     1.0248250000
   18      H      -0.5477020000    -2.2811890000     0.0938250000
   19      H       0.7232980000    -2.9560890000     0.6066250000
   20      H      -0.8140020000    -2.7965890000     1.5038250000
   21      H       0.0007980000     2.5578110000     2.3463250000
 ----------------------------------------------------------------

   11   -1389.2552163056      4.81e-07  Convergence criterion met
 Total energy in the final basis set =    -1389.2552163056
        RIMP2         total energy =     -1391.7613487724 a.u.

                    Orbital Energies (a.u.)
 --------------------------------------------------------------

 Alpha MOs
 -- Occupied --
-92.0052 -91.9901 -26.3352 -20.6105 -20.5473 -11.4079 -11.3766 -11.3119
-11.2916 -11.2913 -11.2878 -11.2809 -11.2716 -11.2297  -9.0040  -8.9943
 -6.6847  -6.6841  -6.6837  -6.6756  -6.6749  -6.6736  -1.6483  -1.4701
 -1.3651  -1.2274  -1.1453  -1.0678  -1.0269  -1.0065  -0.9683  -0.9116
 -0.8634  -0.7957  -0.7858  -0.7667  -0.7264  -0.7161  -0.6975  -0.6786
 -0.6773  -0.6686  -0.6097  -0.6043  -0.5956  -0.5873  -0.5803  -0.5680
 -0.5439  -0.5244  -0.5052  -0.4820  -0.4763  -0.4633  -0.4600  -0.4559
 -0.3946  -0.3456  -0.2798

          Ground-State Mulliken Net Atomic Charges

     Atom                 Charge (a.u.)
  ----------------------------------------
      1 C                     0.050773
      2 S                     0.081049
      3 C                    -0.259615
      4 C                    -0.099588
      5 C                    -0.011510
      6 C                     0.385646
      7 C                    -0.156331
      8 S                     0.028247
      9 C                     0.458579
     10 O                    -0.455701
     11 O                    -0.298410
     12 F                    -0.214472
     13 C                    -0.054997
     14 H                     0.116306
     15 H                     0.083911
     16 H                     0.083871
     17 C                    -0.374903
     18 H                     0.123111
     19 H                     0.155737
     20 H                     0.148095
     21 H                     0.210205
  ----------------------------------------
  Sum of atomic charges =     0.000000

                    Cartesian Multipole Moments
 -----------------------------------------------------------------
    Charge (ESU x 10^10)
                -0.0000
    Dipole Moment (Debye)
         X      -0.3610      Y       0.8878      Z       2.9559
       Tot       3.1074
    Quadrupole Moments (Debye-Ang)
        XX     -96.0427     XY       0.9247     YY     -82.0060
        XZ      -0.7100     YZ     -10.8356     ZZ     -97.6203

 Total job time:  55.05s(wall), 1941.77s(cpu)
        *  Thank you very much for using Q-Chem.  Have a nice day.  *
