 Q-Chem 5.4, Q-Chem, Inc., Pleasanton, CA (2021)
 Q-Chem 5.4.0 for Intel X86 EM64T Linux

User input:
--------------------------------------------------------------
$molecule
0 1
C	-0.682223	-0.518946	1.021608
S	0.008177	0.057454	2.532308
C	1.214277	1.070954	1.749208
C	0.013477	0.064854	-0.043092
C	1.076377	0.958754	0.343308
C	-0.036323	0.020954	-1.464492
C	0.932577	0.834054	-2.085292
S	1.886077	1.638454	-0.944092
C	1.130477	0.994054	-3.538392
O	0.417277	0.391754	-4.328692
O	2.115577	1.816354	-3.982792
F	-0.887223	-0.698246	-2.224692
C	2.396877	2.039154	-5.313392
H	3.243677	2.748954	-5.348692
H	1.525877	2.471454	-5.853992
H	2.675877	1.099854	-5.840292
C	-0.682223	-1.954146	1.021608
H	0.150477	-1.963146	1.709308
H	-1.219223	-2.638046	1.662108
H	-0.081523	-2.478546	0.293208
H	1.919077	1.662254	2.343108
$end

$rem
JOBTYPE		SP
EXCHANGE	HF
CORRELATION	pRIMP2
BASIS		cc-pvtz
METHOD		rimp2
AUX_BASIS	rimp2-cc-pvtz
SOLVENT_METHOD	PCM
PURECART	11111
SYMMETRY	false
MEM_TOTAL	110000
SCF_CONVERGENCE = 6
THRESH=10
GUI = 2
$end

$solvent
dielectric 4.90
$end
--------------------------------------------------------------

             Standard Nuclear Orientation (Angstroms)
    I     Atom           X                Y                Z
 ----------------------------------------------------------------
    1      C      -0.6822230000    -0.5189460000     1.0216080000
    2      S       0.0081770000     0.0574540000     2.5323080000
    3      C       1.2142770000     1.0709540000     1.7492080000
    4      C       0.0134770000     0.0648540000    -0.0430920000
    5      C       1.0763770000     0.9587540000     0.3433080000
    6      C      -0.0363230000     0.0209540000    -1.4644920000
    7      C       0.9325770000     0.8340540000    -2.0852920000
    8      S       1.8860770000     1.6384540000    -0.9440920000
    9      C       1.1304770000     0.9940540000    -3.5383920000
   10      O       0.4172770000     0.3917540000    -4.3286920000
   11      O       2.1155770000     1.8163540000    -3.9827920000
   12      F      -0.8872230000    -0.6982460000    -2.2246920000
   13      C       2.3968770000     2.0391540000    -5.3133920000
   14      H       3.2436770000     2.7489540000    -5.3486920000
   15      H       1.5258770000     2.4714540000    -5.8539920000
   16      H       2.6758770000     1.0998540000    -5.8402920000
   17      C      -0.6822230000    -1.9541460000     1.0216080000
   18      H       0.1504770000    -1.9631460000     1.7093080000
   19      H      -1.2192230000    -2.6380460000     1.6621080000
   20      H      -0.0815230000    -2.4785460000     0.2932080000
   21      H       1.9190770000     1.6622540000     2.3431080000
 ----------------------------------------------------------------

   11   -1389.1979230353      6.76e-07  Convergence criterion met
 Total energy in the final basis set =    -1389.1979230353
        RIMP2         total energy =     -1391.7163527030 a.u.

                    Orbital Energies (a.u.)
 --------------------------------------------------------------

 Alpha MOs
 -- Occupied --
-91.9988 -91.9943 -26.3336 -20.6128 -20.5515 -11.4113 -11.3755 -11.3005
-11.2999 -11.2928 -11.2906 -11.2889 -11.2787 -11.2213  -8.9994  -8.9984
 -6.6800  -6.6796  -6.6792  -6.6790  -6.6789  -6.6776  -1.6465  -1.4726
 -1.3682  -1.2331  -1.1549  -1.0681  -1.0316  -1.0016  -0.9708  -0.9036
 -0.8672  -0.7983  -0.7863  -0.7718  -0.7288  -0.7151  -0.6965  -0.6791
 -0.6757  -0.6711  -0.6094  -0.6068  -0.6032  -0.5910  -0.5662  -0.5626
 -0.5403  -0.5275  -0.5154  -0.4909  -0.4814  -0.4621  -0.4616  -0.4396
 -0.3910  -0.3437  -0.2779

          Ground-State Mulliken Net Atomic Charges

     Atom                 Charge (a.u.)
  ----------------------------------------
      1 C                    -0.014745
      2 S                     0.079643
      3 C                    -0.206391
      4 C                    -0.078692
      5 C                    -0.024550
      6 C                     0.367154
      7 C                    -0.148117
      8 S                     0.040497
      9 C                     0.457615
     10 O                    -0.447392
     11 O                    -0.297433
     12 F                    -0.209462
     13 C                    -0.054579
     14 H                     0.116782
     15 H                     0.084761
     16 H                     0.084505
     17 C                    -0.381577
     18 H                     0.134337
     19 H                     0.146303
     20 H                     0.138036
     21 H                     0.213306
  ----------------------------------------
  Sum of atomic charges =     0.000000

                    Cartesian Multipole Moments
 -----------------------------------------------------------------
    Charge (ESU x 10^10)
                -0.0000
    Dipole Moment (Debye)
         X       3.5386      Y       0.8788      Z       3.4146
       Tot       4.9953
    Quadrupole Moments (Debye-Ang)
        XX     -91.6623     XY       4.4432     YY     -89.1067
        XZ      -7.5430     YZ      -8.9373     ZZ     -93.8554

 Total job time:  60.69s(wall), 2047.20s(cpu)
        *  Thank you very much for using Q-Chem.  Have a nice day.  *
