 Q-Chem 5.4, Q-Chem, Inc., Pleasanton, CA (2021)
 Q-Chem 5.4.0 for Intel X86 EM64T Linux

User input:
--------------------------------------------------------------
$molecule
0 1
C	-0.081403	-0.833466	1.022765
S	-0.000803	0.062334	2.533465
C	0.135397	1.631734	1.750365
C	-0.002303	0.071334	-0.041935
C	0.117297	1.454934	0.344465
C	-0.006403	0.005034	-1.463335
C	0.103697	1.265034	-2.084135
S	0.209097	2.508134	-0.942935
C	0.130497	1.518134	-3.537235
O	0.052097	0.587934	-4.327535
O	0.245597	2.796134	-3.981635
F	-0.099603	-1.105166	-2.223535
C	0.286997	3.152634	-5.312235
H	0.383897	4.253334	-5.347535
H	-0.634503	2.842434	-5.852835
H	1.148497	2.685834	-5.839135
C	-0.081403	-2.268666	1.022765
H	0.983597	-2.277666	1.201965
H	-0.226203	-2.952566	1.845965
H	0.074697	-2.793066	0.091565
H	0.215697	2.548234	2.344265
$end

$rem
JOBTYPE		SP
EXCHANGE	HF
CORRELATION	pRIMP2
BASIS		cc-pvtz
METHOD		rimp2
AUX_BASIS	rimp2-cc-pvtz
SOLVENT_METHOD	PCM
PURECART	11111
SYMMETRY	false
MEM_TOTAL	110000
SCF_CONVERGENCE = 6
THRESH=10
GUI = 2
$end

$solvent
dielectric 4.90
$end
--------------------------------------------------------------

             Standard Nuclear Orientation (Angstroms)
    I     Atom           X                Y                Z
 ----------------------------------------------------------------
    1      C      -0.0814030000    -0.8334660000     1.0227650000
    2      S      -0.0008030000     0.0623340000     2.5334650000
    3      C       0.1353970000     1.6317340000     1.7503650000
    4      C      -0.0023030000     0.0713340000    -0.0419350000
    5      C       0.1172970000     1.4549340000     0.3444650000
    6      C      -0.0064030000     0.0050340000    -1.4633350000
    7      C       0.1036970000     1.2650340000    -2.0841350000
    8      S       0.2090970000     2.5081340000    -0.9429350000
    9      C       0.1304970000     1.5181340000    -3.5372350000
   10      O       0.0520970000     0.5879340000    -4.3275350000
   11      O       0.2455970000     2.7961340000    -3.9816350000
   12      F      -0.0996030000    -1.1051660000    -2.2235350000
   13      C       0.2869970000     3.1526340000    -5.3122350000
   14      H       0.3838970000     4.2533340000    -5.3475350000
   15      H      -0.6345030000     2.8424340000    -5.8528350000
   16      H       1.1484970000     2.6858340000    -5.8391350000
   17      C      -0.0814030000    -2.2686660000     1.0227650000
   18      H       0.9835970000    -2.2776660000     1.2019650000
   19      H      -0.2262030000    -2.9525660000     1.8459650000
   20      H       0.0746970000    -2.7930660000     0.0915650000
   21      H       0.2156970000     2.5482340000     2.3442650000
 ----------------------------------------------------------------

   11   -1389.2574945070      4.12e-07  Convergence criterion met
 Total energy in the final basis set =    -1389.2574945070
        RIMP2         total energy =     -1391.7587355468 a.u.

                    Orbital Energies (a.u.)
 --------------------------------------------------------------

 Alpha MOs
 -- Occupied --
-92.0053 -91.9872 -26.3344 -20.6089 -20.5444 -11.4054 -11.3769 -11.3223
-11.2912 -11.2869 -11.2859 -11.2736 -11.2666 -11.2372  -9.0043  -8.9915
 -6.6851  -6.6845  -6.6840  -6.6728  -6.6721  -6.6707  -1.6473  -1.4683
 -1.3629  -1.2260  -1.1470  -1.0676  -1.0271  -1.0064  -0.9672  -0.9113
 -0.8622  -0.7959  -0.7842  -0.7657  -0.7259  -0.7149  -0.6962  -0.6771
 -0.6759  -0.6667  -0.6105  -0.6024  -0.5970  -0.5873  -0.5849  -0.5589
 -0.5304  -0.5280  -0.5188  -0.4943  -0.4778  -0.4622  -0.4583  -0.4559
 -0.3908  -0.3469  -0.2716

          Ground-State Mulliken Net Atomic Charges

     Atom                 Charge (a.u.)
  ----------------------------------------
      1 C                     0.048401
      2 S                     0.077860
      3 C                    -0.278578
      4 C                    -0.099035
      5 C                    -0.013188
      6 C                     0.398273
      7 C                    -0.170647
      8 S                     0.020879
      9 C                     0.460792
     10 O                    -0.460044
     11 O                    -0.299191
     12 F                    -0.214192
     13 C                    -0.055096
     14 H                     0.115895
     15 H                     0.083566
     16 H                     0.083332
     17 C                    -0.382896
     18 H                     0.153239
     19 H                     0.170409
     20 H                     0.150582
     21 H                     0.209637
  ----------------------------------------
  Sum of atomic charges =     0.000000

                    Cartesian Multipole Moments
 -----------------------------------------------------------------
    Charge (ESU x 10^10)
                -0.0000
    Dipole Moment (Debye)
         X       0.9507      Y       0.0206      Z       3.9075
       Tot       4.0215
    Quadrupole Moments (Debye-Ang)
        XX     -96.6497     XY      -0.9070     YY     -81.6878
        XZ      -0.2942     YZ     -13.0504     ZZ     -96.8459

 Total job time:  55.12s(wall), 1947.01s(cpu)
        *  Thank you very much for using Q-Chem.  Have a nice day.  *
