 Q-Chem 5.4, Q-Chem, Inc., Pleasanton, CA (2021)
 Q-Chem 5.4.0 for Intel X86 EM64T Linux

User input:
--------------------------------------------------------------
$molecule
0 1
C	-0.442845	-0.717327	1.024233
S	0.008755	0.060473	2.534933
C	0.795555	1.425273	1.751833
C	0.011255	0.069273	-0.040467
C	0.704355	1.272673	0.345933
C	-0.020545	0.010873	-1.461867
C	0.611755	1.106373	-2.082667
S	1.232655	2.188373	-0.941467
C	0.743055	1.324373	-3.535767
O	0.278855	0.514473	-4.326067
O	1.387455	2.434073	-3.980167
F	-0.574145	-0.955927	-2.222067
C	1.575655	2.739673	-5.310767
H	2.128655	3.696273	-5.346067
H	0.609355	2.847873	-5.851367
H	2.159055	1.952473	-5.837667
C	-0.442845	-2.152527	1.024233
H	-1.275545	-2.161527	0.336533
H	0.094155	-2.836427	0.383733
H	-1.043545	-2.676927	1.752633
H	1.255555	2.221973	2.345733
$end

$rem
JOBTYPE		SP
EXCHANGE	HF
CORRELATION	pRIMP2
BASIS		cc-pvtz
METHOD		rimp2
AUX_BASIS	rimp2-cc-pvtz
SOLVENT_METHOD	PCM
PURECART	11111
SYMMETRY	false
MEM_TOTAL	110000
SCF_CONVERGENCE = 6
THRESH=10
GUI = 2
$end

$solvent
dielectric 4.90
$end
--------------------------------------------------------------

             Standard Nuclear Orientation (Angstroms)
    I     Atom           X                Y                Z
 ----------------------------------------------------------------
    1      C      -0.4428450000    -0.7173270000     1.0242330000
    2      S       0.0087550000     0.0604730000     2.5349330000
    3      C       0.7955550000     1.4252730000     1.7518330000
    4      C       0.0112550000     0.0692730000    -0.0404670000
    5      C       0.7043550000     1.2726730000     0.3459330000
    6      C      -0.0205450000     0.0108730000    -1.4618670000
    7      C       0.6117550000     1.1063730000    -2.0826670000
    8      S       1.2326550000     2.1883730000    -0.9414670000
    9      C       0.7430550000     1.3243730000    -3.5357670000
   10      O       0.2788550000     0.5144730000    -4.3260670000
   11      O       1.3874550000     2.4340730000    -3.9801670000
   12      F      -0.5741450000    -0.9559270000    -2.2220670000
   13      C       1.5756550000     2.7396730000    -5.3107670000
   14      H       2.1286550000     3.6962730000    -5.3460670000
   15      H       0.6093550000     2.8478730000    -5.8513670000
   16      H       2.1590550000     1.9524730000    -5.8376670000
   17      C      -0.4428450000    -2.1525270000     1.0242330000
   18      H      -1.2755450000    -2.1615270000     0.3365330000
   19      H       0.0941550000    -2.8364270000     0.3837330000
   20      H      -1.0435450000    -2.6769270000     1.7526330000
   21      H       1.2555550000     2.2219730000     2.3457330000
 ----------------------------------------------------------------

   11   -1389.2358929871      5.43e-07  Convergence criterion met
 Total energy in the final basis set =    -1389.2358929871
        RIMP2         total energy =     -1391.7475062100 a.u.

                    Orbital Energies (a.u.)
 --------------------------------------------------------------

 Alpha MOs
 -- Occupied --
-92.0040 -91.9916 -26.3344 -20.6108 -20.5481 -11.4085 -11.3759 -11.3030
-11.2930 -11.2924 -11.2879 -11.2862 -11.2731 -11.2264  -9.0030  -8.9957
 -6.6838  -6.6830  -6.6827  -6.6770  -6.6763  -6.6750  -1.6475  -1.4705
 -1.3657  -1.2283  -1.1464  -1.0670  -1.0273  -1.0051  -0.9686  -0.9107
 -0.8639  -0.7957  -0.7857  -0.7674  -0.7264  -0.7155  -0.6963  -0.6777
 -0.6775  -0.6690  -0.6075  -0.6047  -0.5966  -0.5889  -0.5759  -0.5631
 -0.5420  -0.5242  -0.5089  -0.4881  -0.4806  -0.4609  -0.4592  -0.4500
 -0.3898  -0.3454  -0.2778

          Ground-State Mulliken Net Atomic Charges

     Atom                 Charge (a.u.)
  ----------------------------------------
      1 C                     0.013584
      2 S                     0.092014
      3 C                    -0.244023
      4 C                    -0.094595
      5 C                    -0.014212
      6 C                     0.368106
      7 C                    -0.157079
      8 S                     0.034886
      9 C                     0.457274
     10 O                    -0.453826
     11 O                    -0.298388
     12 F                    -0.211966
     13 C                    -0.054831
     14 H                     0.116398
     15 H                     0.084032
     16 H                     0.083994
     17 C                    -0.375411
     18 H                     0.132740
     19 H                     0.166964
     20 H                     0.144489
     21 H                     0.209853
  ----------------------------------------
  Sum of atomic charges =     0.000000

                    Cartesian Multipole Moments
 -----------------------------------------------------------------
    Charge (ESU x 10^10)
                -0.0000
    Dipole Moment (Debye)
         X       0.9902      Y       0.9045      Z       3.0177
       Tot       3.3023
    Quadrupole Moments (Debye-Ang)
        XX     -93.5256     XY       5.7696     YY     -84.8650
        XZ      -5.9710     YZ      -9.5279     ZZ     -96.8148

 Total job time:  54.08s(wall), 1923.44s(cpu)
        *  Thank you very much for using Q-Chem.  Have a nice day.  *
