 Q-Chem 5.4, Q-Chem, Inc., Pleasanton, CA (2021)
 Q-Chem 5.4.0 for Intel X86 EM64T Linux

User input:
--------------------------------------------------------------
$molecule
0 1
C	-0.768898	-0.392188	1.020573
S	0.011102	0.055612	2.531273
C	1.374902	0.844212	1.748173
C	0.017602	0.061912	-0.044127
C	1.219602	0.757612	0.342273
C	-0.038998	0.027312	-1.465527
C	1.056302	0.659812	-2.086327
S	2.135002	1.286512	-0.945127
C	1.279002	0.783012	-3.539427
O	0.472102	0.313712	-4.329727
O	2.391902	1.421812	-3.983827
F	-1.001898	-0.533088	-2.225727
C	2.707602	1.592412	-5.314427
H	3.664802	2.144312	-5.349727
H	1.924902	2.169312	-5.855027
H	2.819302	0.618912	-5.841327
C	-0.768898	-1.827388	1.020573
H	-0.760398	-1.836388	2.100473
H	-1.604798	-2.511288	1.020973
H	0.175202	-2.351788	1.012573
H	2.171702	1.304112	2.342073
$end

$rem
JOBTYPE		SP
EXCHANGE	HF
CORRELATION	pRIMP2
BASIS		cc-pvtz
METHOD		rimp2
AUX_BASIS	rimp2-cc-pvtz
SOLVENT_METHOD	PCM
PURECART	11111
SYMMETRY	false
MEM_TOTAL	110000
SCF_CONVERGENCE = 6
THRESH=10
GUI = 2
$end

$solvent
dielectric 4.90
$end
--------------------------------------------------------------

             Standard Nuclear Orientation (Angstroms)
    I     Atom           X                Y                Z
 ----------------------------------------------------------------
    1      C      -0.7688980000    -0.3921880000     1.0205730000
    2      S       0.0111020000     0.0556120000     2.5312730000
    3      C       1.3749020000     0.8442120000     1.7481730000
    4      C       0.0176020000     0.0619120000    -0.0441270000
    5      C       1.2196020000     0.7576120000     0.3422730000
    6      C      -0.0389980000     0.0273120000    -1.4655270000
    7      C       1.0563020000     0.6598120000    -2.0863270000
    8      S       2.1350020000     1.2865120000    -0.9451270000
    9      C       1.2790020000     0.7830120000    -3.5394270000
   10      O       0.4721020000     0.3137120000    -4.3297270000
   11      O       2.3919020000     1.4218120000    -3.9838270000
   12      F      -1.0018980000    -0.5330880000    -2.2257270000
   13      C       2.7076020000     1.5924120000    -5.3144270000
   14      H       3.6648020000     2.1443120000    -5.3497270000
   15      H       1.9249020000     2.1693120000    -5.8550270000
   16      H       2.8193020000     0.6189120000    -5.8413270000
   17      C      -0.7688980000    -1.8273880000     1.0205730000
   18      H      -0.7603980000    -1.8363880000     2.1004730000
   19      H      -1.6047980000    -2.5112880000     1.0209730000
   20      H       0.1752020000    -2.3517880000     1.0125730000
   21      H       2.1717020000     1.3041120000     2.3420730000
 ----------------------------------------------------------------

   11   -1389.1748491368      8.87e-07  Convergence criterion met
 Total energy in the final basis set =    -1389.1748491368
        RIMP2         total energy =     -1391.6992889262 a.u.

                    Orbital Energies (a.u.)
 --------------------------------------------------------------

 Alpha MOs
 -- Occupied --
-92.0051 -91.9998 -26.3319 -20.6143 -20.5547 -11.4139 -11.3721 -11.3163
-11.3067 -11.2928 -11.2896 -11.2826 -11.2635 -11.2143  -9.0050  -9.0035
 -6.6856  -6.6847  -6.6845  -6.6845  -6.6841  -6.6828  -1.6450  -1.4744
 -1.3704  -1.2352  -1.1568  -1.0685  -1.0341  -1.0004  -0.9724  -0.9004
 -0.8701  -0.7994  -0.7868  -0.7746  -0.7299  -0.7141  -0.6973  -0.6803
 -0.6738  -0.6732  -0.6108  -0.6086  -0.6024  -0.5903  -0.5743  -0.5613
 -0.5315  -0.5286  -0.5097  -0.4868  -0.4697  -0.4644  -0.4630  -0.4400
 -0.3880  -0.3370  -0.2928

          Ground-State Mulliken Net Atomic Charges

     Atom                 Charge (a.u.)
  ----------------------------------------
      1 C                    -0.122791
      2 S                     0.105213
      3 C                    -0.167923
      4 C                    -0.015718
      5 C                    -0.030740
      6 C                     0.354777
      7 C                    -0.133181
      8 S                     0.057450
      9 C                     0.456138
     10 O                    -0.441479
     11 O                    -0.296645
     12 F                    -0.210723
     13 C                    -0.054755
     14 H                     0.117126
     15 H                     0.085364
     16 H                     0.085044
     17 C                    -0.365176
     18 H                     0.111524
     19 H                     0.131906
     20 H                     0.117435
     21 H                     0.217154
  ----------------------------------------
  Sum of atomic charges =     0.000000

                    Cartesian Multipole Moments
 -----------------------------------------------------------------
    Charge (ESU x 10^10)
                -0.0000
    Dipole Moment (Debye)
         X       4.5128      Y       1.2665      Z       3.4337
       Tot       5.8103
    Quadrupole Moments (Debye-Ang)
        XX     -88.9767     XY       5.2778     YY     -91.4134
        XZ      -8.3802     YZ      -6.9851     ZZ     -91.7885

 Total job time:  54.25s(wall), 1987.27s(cpu)
        *  Thank you very much for using Q-Chem.  Have a nice day.  *
