 Q-Chem 5.4, Q-Chem, Inc., Pleasanton, CA (2021)
 Q-Chem 5.4.0 for Intel X86 EM64T Linux

User input:
--------------------------------------------------------------
$molecule
0 1
C	-0.000163	-0.836989	1.021216
S	0.002037	0.062411	2.531916
C	0.001037	1.637711	1.748816
C	-0.000163	0.071211	-0.043484
C	-0.001663	1.460011	0.342916
C	0.001437	0.004811	-1.464884
C	0.001337	1.269711	-2.085684
S	-0.001963	2.517211	-0.944484
C	0.006037	1.524111	-3.538784
O	0.009037	0.590611	-4.329084
O	0.009237	2.807311	-3.983184
F	0.005337	-1.109289	-2.225084
C	0.019437	3.166011	-5.313784
H	0.020037	4.271011	-5.349084
H	-0.871563	2.776711	-5.854384
H	0.918337	2.776111	-5.840684
C	-0.000163	-2.272189	1.021216
H	-0.821963	-2.281189	1.721816
H	-0.537763	-2.956089	0.381116
H	0.612837	-2.796589	1.739316
H	0.001037	2.557811	2.342716
$end

$rem
JOBTYPE		SP
EXCHANGE	HF
CORRELATION	pRIMP2
BASIS		cc-pvtz
METHOD		rimp2
AUX_BASIS	rimp2-cc-pvtz
SOLVENT_METHOD	PCM
PURECART	11111
SYMMETRY	false
MEM_TOTAL	110000
SCF_CONVERGENCE = 6
THRESH=10
GUI = 2
$end

$solvent
dielectric 4.90
$end
--------------------------------------------------------------

             Standard Nuclear Orientation (Angstroms)
    I     Atom           X                Y                Z
 ----------------------------------------------------------------
    1      C      -0.0001630000    -0.8369890000     1.0212160000
    2      S       0.0020370000     0.0624110000     2.5319160000
    3      C       0.0010370000     1.6377110000     1.7488160000
    4      C      -0.0001630000     0.0712110000    -0.0434840000
    5      C      -0.0016630000     1.4600110000     0.3429160000
    6      C       0.0014370000     0.0048110000    -1.4648840000
    7      C       0.0013370000     1.2697110000    -2.0856840000
    8      S      -0.0019630000     2.5172110000    -0.9444840000
    9      C       0.0060370000     1.5241110000    -3.5387840000
   10      O       0.0090370000     0.5906110000    -4.3290840000
   11      O       0.0092370000     2.8073110000    -3.9831840000
   12      F       0.0053370000    -1.1092890000    -2.2250840000
   13      C       0.0194370000     3.1660110000    -5.3137840000
   14      H       0.0200370000     4.2710110000    -5.3490840000
   15      H      -0.8715630000     2.7767110000    -5.8543840000
   16      H       0.9183370000     2.7761110000    -5.8406840000
   17      C      -0.0001630000    -2.2721890000     1.0212160000
   18      H      -0.8219630000    -2.2811890000     1.7218160000
   19      H      -0.5377630000    -2.9560890000     0.3811160000
   20      H       0.6128370000    -2.7965890000     1.7393160000
   21      H       0.0010370000     2.5578110000     2.3427160000
 ----------------------------------------------------------------

   11   -1389.2546548014      4.34e-07  Convergence criterion met
 Total energy in the final basis set =    -1389.2546548014
        RIMP2         total energy =     -1391.7575418829 a.u.

                    Orbital Energies (a.u.)
 --------------------------------------------------------------

 Alpha MOs
 -- Occupied --
-92.0069 -91.9878 -26.3334 -20.6095 -20.5456 -11.4063 -11.3760 -11.3160
-11.2908 -11.2883 -11.2872 -11.2784 -11.2673 -11.2327  -9.0058  -8.9921
 -6.6867  -6.6861  -6.6855  -6.6734  -6.6727  -6.6714  -1.6463  -1.4690
 -1.3638  -1.2260  -1.1468  -1.0660  -1.0286  -1.0059  -0.9676  -0.9107
 -0.8631  -0.7962  -0.7838  -0.7664  -0.7258  -0.7141  -0.6959  -0.6771
 -0.6763  -0.6670  -0.6099  -0.6031  -0.5962  -0.5861  -0.5790  -0.5626
 -0.5408  -0.5250  -0.5111  -0.4892  -0.4788  -0.4618  -0.4587  -0.4567
 -0.3927  -0.3467  -0.2753

          Ground-State Mulliken Net Atomic Charges

     Atom                 Charge (a.u.)
  ----------------------------------------
      1 C                     0.037706
      2 S                     0.078564
      3 C                    -0.265631
      4 C                    -0.088145
      5 C                    -0.015777
      6 C                     0.398964
      7 C                    -0.168477
      8 S                     0.022581
      9 C                     0.459977
     10 O                    -0.457667
     11 O                    -0.298803
     12 F                    -0.213682
     13 C                    -0.055018
     14 H                     0.115997
     15 H                     0.083659
     16 H                     0.083662
     17 C                    -0.375965
     18 H                     0.133534
     19 H                     0.167541
     20 H                     0.145923
     21 H                     0.211058
  ----------------------------------------
  Sum of atomic charges =     0.000000

                    Cartesian Multipole Moments
 -----------------------------------------------------------------
    Charge (ESU x 10^10)
                -0.0000
    Dipole Moment (Debye)
         X      -0.5479      Y       0.5058      Z       4.1418
       Tot       4.2084
    Quadrupole Moments (Debye-Ang)
        XX     -96.3145     XY       1.5092     YY     -81.9413
        XZ      -0.2722     YZ     -13.3639     ZZ     -95.7504

 Total job time:  63.38s(wall), 2549.44s(cpu)
        *  Thank you very much for using Q-Chem.  Have a nice day.  *
