 Q-Chem 5.4, Q-Chem, Inc., Pleasanton, CA (2021)
 Q-Chem 5.4.0 for Intel X86 EM64T Linux

User input:
--------------------------------------------------------------
$molecule
0 1
C	-0.233134	-0.806326	1.021608
S	0.001766	0.061874	2.532308
C	0.408466	1.583774	1.749208
C	0.001866	0.070974	-0.043092
C	0.359866	1.412774	0.343308
C	-0.013634	0.006374	-1.464492
C	0.313566	1.228174	-2.085292
S	0.633166	2.434074	-0.944092
C	0.383966	1.472774	-3.538392
O	0.145166	0.570274	-4.328692
O	0.719166	2.711374	-3.982792
F	-0.298234	-1.070726	-2.224692
C	0.821866	3.055274	-5.313392
H	1.108366	4.122374	-5.348692
H	-0.139534	2.909774	-5.853992
H	1.589166	2.445874	-5.840292
C	-0.233134	-2.241526	1.021608
H	0.599566	-2.250526	1.709308
H	-0.770134	-2.925426	1.662108
H	0.367566	-2.765926	0.293208
H	0.646666	2.472474	2.343108
$end

$rem
JOBTYPE		SP
EXCHANGE	HF
CORRELATION	pRIMP2
BASIS		cc-pvtz
METHOD		rimp2
AUX_BASIS	rimp2-cc-pvtz
SOLVENT_METHOD	PCM
PURECART	11111
SYMMETRY	false
MEM_TOTAL	110000
SCF_CONVERGENCE = 6
THRESH=10
GUI = 2
$end

$solvent
dielectric 4.90
$end
--------------------------------------------------------------

             Standard Nuclear Orientation (Angstroms)
    I     Atom           X                Y                Z
 ----------------------------------------------------------------
    1      C      -0.2331340000    -0.8063260000     1.0216080000
    2      S       0.0017660000     0.0618740000     2.5323080000
    3      C       0.4084660000     1.5837740000     1.7492080000
    4      C       0.0018660000     0.0709740000    -0.0430920000
    5      C       0.3598660000     1.4127740000     0.3433080000
    6      C      -0.0136340000     0.0063740000    -1.4644920000
    7      C       0.3135660000     1.2281740000    -2.0852920000
    8      S       0.6331660000     2.4340740000    -0.9440920000
    9      C       0.3839660000     1.4727740000    -3.5383920000
   10      O       0.1451660000     0.5702740000    -4.3286920000
   11      O       0.7191660000     2.7113740000    -3.9827920000
   12      F      -0.2982340000    -1.0707260000    -2.2246920000
   13      C       0.8218660000     3.0552740000    -5.3133920000
   14      H       1.1083660000     4.1223740000    -5.3486920000
   15      H      -0.1395340000     2.9097740000    -5.8539920000
   16      H       1.5891660000     2.4458740000    -5.8402920000
   17      C      -0.2331340000    -2.2415260000     1.0216080000
   18      H       0.5995660000    -2.2505260000     1.7093080000
   19      H      -0.7701340000    -2.9254260000     1.6621080000
   20      H       0.3675660000    -2.7659260000     0.2932080000
   21      H       0.6466660000     2.4724740000     2.3431080000
 ----------------------------------------------------------------

   11   -1389.2508998669      4.45e-07  Convergence criterion met
 Total energy in the final basis set =    -1389.2508998669
        RIMP2         total energy =     -1391.7549458598 a.u.

                    Orbital Energies (a.u.)
 --------------------------------------------------------------

 Alpha MOs
 -- Occupied --
-92.0046 -91.9883 -26.3336 -20.6098 -20.5462 -11.4068 -11.3762 -11.3149
-11.2909 -11.2893 -11.2873 -11.2796 -11.2691 -11.2322  -9.0038  -8.9926
 -6.6847  -6.6841  -6.6835  -6.6739  -6.6732  -6.6718  -1.6465  -1.4693
 -1.3642  -1.2268  -1.1476  -1.0663  -1.0286  -1.0054  -0.9679  -0.9099
 -0.8634  -0.7964  -0.7842  -0.7669  -0.7262  -0.7143  -0.6957  -0.6767
 -0.6765  -0.6674  -0.6099  -0.6034  -0.5988  -0.5864  -0.5784  -0.5621
 -0.5409  -0.5250  -0.5113  -0.4896  -0.4787  -0.4607  -0.4583  -0.4561
 -0.3934  -0.3463  -0.2754

          Ground-State Mulliken Net Atomic Charges

     Atom                 Charge (a.u.)
  ----------------------------------------
      1 C                     0.057441
      2 S                     0.078068
      3 C                    -0.263172
      4 C                    -0.111626
      5 C                    -0.013124
      6 C                     0.390908
      7 C                    -0.168312
      8 S                     0.025002
      9 C                     0.459559
     10 O                    -0.456527
     11 O                    -0.298648
     12 F                    -0.212240
     13 C                    -0.054879
     14 H                     0.116091
     15 H                     0.083858
     16 H                     0.083615
     17 C                    -0.376124
     18 H                     0.139897
     19 H                     0.161774
     20 H                     0.147983
     21 H                     0.210456
  ----------------------------------------
  Sum of atomic charges =     0.000000

                    Cartesian Multipole Moments
 -----------------------------------------------------------------
    Charge (ESU x 10^10)
                -0.0000
    Dipole Moment (Debye)
         X       1.2193      Y       0.5172      Z       4.0342
       Tot       4.2461
    Quadrupole Moments (Debye-Ang)
        XX     -95.9700     XY       1.2343     YY     -82.7332
        XZ      -2.5886     YZ     -13.1461     ZZ     -95.6847

 Total job time:  57.34s(wall), 2157.51s(cpu)
        *  Thank you very much for using Q-Chem.  Have a nice day.  *
