 Q-Chem 5.4, Q-Chem, Inc., Pleasanton, CA (2021)
 Q-Chem 5.4.0 for Intel X86 EM64T Linux

User input:
--------------------------------------------------------------
$molecule
0 1
C	-0.442647	-0.717327	1.023873
S	0.008953	0.060473	2.534573
C	0.795753	1.425273	1.751473
C	0.011453	0.069273	-0.040827
C	0.704553	1.272673	0.345573
C	-0.020347	0.010873	-1.462227
C	0.611953	1.106373	-2.083027
S	1.232853	2.188373	-0.941827
C	0.743253	1.324373	-3.536127
O	0.279053	0.514473	-4.326427
O	1.387653	2.434073	-3.980527
F	-0.573947	-0.955927	-2.222427
C	1.575853	2.739673	-5.311127
H	2.128853	3.696273	-5.346427
H	0.609553	2.847873	-5.851727
H	2.159253	1.952473	-5.838027
C	-0.442647	-2.152527	1.023873
H	-1.382147	-2.161527	0.491273
H	-0.025047	-2.836427	0.299773
H	-0.907747	-2.676927	1.845473
H	1.255753	2.221973	2.345373
$end

$rem
JOBTYPE		SP
EXCHANGE	HF
CORRELATION	pRIMP2
BASIS		cc-pvtz
METHOD		rimp2
AUX_BASIS	rimp2-cc-pvtz
SOLVENT_METHOD	PCM
PURECART	11111
SYMMETRY	false
MEM_TOTAL	110000
SCF_CONVERGENCE = 6
THRESH=10
GUI = 2
$end

$solvent
dielectric 4.90
$end
--------------------------------------------------------------

             Standard Nuclear Orientation (Angstroms)
    I     Atom           X                Y                Z
 ----------------------------------------------------------------
    1      C      -0.4426470000    -0.7173270000     1.0238730000
    2      S       0.0089530000     0.0604730000     2.5345730000
    3      C       0.7957530000     1.4252730000     1.7514730000
    4      C       0.0114530000     0.0692730000    -0.0408270000
    5      C       0.7045530000     1.2726730000     0.3455730000
    6      C      -0.0203470000     0.0108730000    -1.4622270000
    7      C       0.6119530000     1.1063730000    -2.0830270000
    8      S       1.2328530000     2.1883730000    -0.9418270000
    9      C       0.7432530000     1.3243730000    -3.5361270000
   10      O       0.2790530000     0.5144730000    -4.3264270000
   11      O       1.3876530000     2.4340730000    -3.9805270000
   12      F      -0.5739470000    -0.9559270000    -2.2224270000
   13      C       1.5758530000     2.7396730000    -5.3111270000
   14      H       2.1288530000     3.6962730000    -5.3464270000
   15      H       0.6095530000     2.8478730000    -5.8517270000
   16      H       2.1592530000     1.9524730000    -5.8380270000
   17      C      -0.4426470000    -2.1525270000     1.0238730000
   18      H      -1.3821470000    -2.1615270000     0.4912730000
   19      H      -0.0250470000    -2.8364270000     0.2997730000
   20      H      -0.9077470000    -2.6769270000     1.8454730000
   21      H       1.2557530000     2.2219730000     2.3453730000
 ----------------------------------------------------------------

   11   -1389.2349395235      5.30e-07  Convergence criterion met
 Total energy in the final basis set =    -1389.2349395235
        RIMP2         total energy =     -1391.7460112370 a.u.

                    Orbital Energies (a.u.)
 --------------------------------------------------------------

 Alpha MOs
 -- Occupied --
-92.0045 -91.9909 -26.3343 -20.6105 -20.5474 -11.4079 -11.3758 -11.3053
-11.2923 -11.2917 -11.2877 -11.2842 -11.2717 -11.2274  -9.0035  -8.9950
 -6.6843  -6.6836  -6.6832  -6.6763  -6.6757  -6.6743  -1.6473  -1.4701
 -1.3651  -1.2278  -1.1465  -1.0668  -1.0272  -1.0052  -0.9683  -0.9107
 -0.8636  -0.7957  -0.7853  -0.7671  -0.7262  -0.7154  -0.6961  -0.6776
 -0.6772  -0.6685  -0.6076  -0.6043  -0.5958  -0.5883  -0.5776  -0.5612
 -0.5407  -0.5236  -0.5109  -0.4914  -0.4802  -0.4606  -0.4586  -0.4513
 -0.3883  -0.3455  -0.2756

          Ground-State Mulliken Net Atomic Charges

     Atom                 Charge (a.u.)
  ----------------------------------------
      1 C                     0.020039
      2 S                     0.093507
      3 C                    -0.250880
      4 C                    -0.098591
      5 C                    -0.010767
      6 C                     0.367694
      7 C                    -0.159675
      8 S                     0.033946
      9 C                     0.457134
     10 O                    -0.454895
     11 O                    -0.298578
     12 F                    -0.211695
     13 C                    -0.054842
     14 H                     0.116307
     15 H                     0.083907
     16 H                     0.083878
     17 C                    -0.377736
     18 H                     0.138083
     19 H                     0.169132
     20 H                     0.144546
     21 H                     0.209485
  ----------------------------------------
  Sum of atomic charges =     0.000000

                    Cartesian Multipole Moments
 -----------------------------------------------------------------
    Charge (ESU x 10^10)
                -0.0000
    Dipole Moment (Debye)
         X       0.8315      Y       0.7292      Z       3.1823
       Tot       3.3690
    Quadrupole Moments (Debye-Ang)
        XX     -93.6050     XY       5.9360     YY     -84.8180
        XZ      -6.0741     YZ      -9.8022     ZZ     -96.7416

 Total job time:  53.38s(wall), 1938.42s(cpu)
        *  Thank you very much for using Q-Chem.  Have a nice day.  *
