 Q-Chem 5.4, Q-Chem, Inc., Pleasanton, CA (2021)
 Q-Chem 5.4.0 for Intel X86 EM64T Linux

User input:
--------------------------------------------------------------
$molecule
0 1
C	-0.079610	-0.833466	1.025213
S	0.000990	0.062334	2.535913
C	0.137190	1.631734	1.752813
C	-0.000510	0.071334	-0.039487
C	0.119090	1.454934	0.346913
C	-0.004610	0.005034	-1.460887
C	0.105490	1.265034	-2.081687
S	0.210890	2.508134	-0.940487
C	0.132290	1.518134	-3.534787
O	0.053890	0.587934	-4.325087
O	0.247390	2.796134	-3.979187
F	-0.097810	-1.105166	-2.221087
C	0.288790	3.152634	-5.309787
H	0.385690	4.253334	-5.345087
H	-0.632710	2.842434	-5.850387
H	1.150290	2.685834	-5.836687
C	-0.079610	-2.268666	1.025213
H	0.281790	-2.277666	0.007513
H	0.705990	-2.952566	1.310713
H	-0.969510	-2.793066	0.709813
H	0.217490	2.548234	2.346713
$end

$rem
JOBTYPE		SP
EXCHANGE	HF
CORRELATION	pRIMP2
BASIS		cc-pvtz
METHOD		rimp2
AUX_BASIS	rimp2-cc-pvtz
SOLVENT_METHOD	PCM
PURECART	11111
SYMMETRY	false
MEM_TOTAL	110000
SCF_CONVERGENCE = 6
THRESH=10
GUI = 2
$end

$solvent
dielectric 4.90
$end
--------------------------------------------------------------

             Standard Nuclear Orientation (Angstroms)
    I     Atom           X                Y                Z
 ----------------------------------------------------------------
    1      C      -0.0796100000    -0.8334660000     1.0252130000
    2      S       0.0009900000     0.0623340000     2.5359130000
    3      C       0.1371900000     1.6317340000     1.7528130000
    4      C      -0.0005100000     0.0713340000    -0.0394870000
    5      C       0.1190900000     1.4549340000     0.3469130000
    6      C      -0.0046100000     0.0050340000    -1.4608870000
    7      C       0.1054900000     1.2650340000    -2.0816870000
    8      S       0.2108900000     2.5081340000    -0.9404870000
    9      C       0.1322900000     1.5181340000    -3.5347870000
   10      O       0.0538900000     0.5879340000    -4.3250870000
   11      O       0.2473900000     2.7961340000    -3.9791870000
   12      F      -0.0978100000    -1.1051660000    -2.2210870000
   13      C       0.2887900000     3.1526340000    -5.3097870000
   14      H       0.3856900000     4.2533340000    -5.3450870000
   15      H      -0.6327100000     2.8424340000    -5.8503870000
   16      H       1.1502900000     2.6858340000    -5.8366870000
   17      C      -0.0796100000    -2.2686660000     1.0252130000
   18      H       0.2817900000    -2.2776660000     0.0075130000
   19      H       0.7059900000    -2.9525660000     1.3107130000
   20      H      -0.9695100000    -2.7930660000     0.7098130000
   21      H       0.2174900000     2.5482340000     2.3467130000
 ----------------------------------------------------------------

   11   -1389.2539339882      4.92e-07  Convergence criterion met
 Total energy in the final basis set =    -1389.2539339882
        RIMP2         total energy =     -1391.7609086248 a.u.

                    Orbital Energies (a.u.)
 --------------------------------------------------------------

 Alpha MOs
 -- Occupied --
-92.0044 -91.9906 -26.3356 -20.6108 -20.5479 -11.4083 -11.3767 -11.3103
-11.2923 -11.2916 -11.2879 -11.2822 -11.2730 -11.2286  -9.0032  -8.9948
 -6.6840  -6.6834  -6.6830  -6.6761  -6.6754  -6.6740  -1.6488  -1.4704
 -1.3655  -1.2279  -1.1453  -1.0680  -1.0269  -1.0064  -0.9685  -0.9116
 -0.8636  -0.7959  -0.7864  -0.7669  -0.7267  -0.7166  -0.6975  -0.6783
 -0.6775  -0.6691  -0.6091  -0.6046  -0.5975  -0.5879  -0.5818  -0.5679
 -0.5437  -0.5247  -0.5046  -0.4818  -0.4720  -0.4639  -0.4603  -0.4549
 -0.3960  -0.3453  -0.2814

          Ground-State Mulliken Net Atomic Charges

     Atom                 Charge (a.u.)
  ----------------------------------------
      1 C                     0.047505
      2 S                     0.082173
      3 C                    -0.255863
      4 C                    -0.098439
      5 C                    -0.012353
      6 C                     0.378749
      7 C                    -0.149982
      8 S                     0.029723
      9 C                     0.458033
     10 O                    -0.454806
     11 O                    -0.298242
     12 F                    -0.214147
     13 C                    -0.055070
     14 H                     0.116424
     15 H                     0.084073
     16 H                     0.083918
     17 C                    -0.372954
     18 H                     0.120523
     19 H                     0.161078
     20 H                     0.139467
     21 H                     0.210190
  ----------------------------------------
  Sum of atomic charges =     0.000000

                    Cartesian Multipole Moments
 -----------------------------------------------------------------
    Charge (ESU x 10^10)
                -0.0000
    Dipole Moment (Debye)
         X       0.4613      Y       1.0111      Z       2.8409
       Tot       3.0506
    Quadrupole Moments (Debye-Ang)
        XX     -95.8943     XY       0.2409     YY     -82.1180
        XZ      -0.4806     YZ     -10.7215     ZZ     -97.6626

 Total job time:  54.11s(wall), 1956.24s(cpu)
        *  Thank you very much for using Q-Chem.  Have a nice day.  *
