 Q-Chem 5.4, Q-Chem, Inc., Pleasanton, CA (2021)
 Q-Chem 5.4.0 for Intel X86 EM64T Linux

User input:
--------------------------------------------------------------
$molecule
0 1
C	-0.446769	-0.717327	1.021608
S	0.004831	0.060473	2.532308
C	0.791631	1.425273	1.749208
C	0.007331	0.069273	-0.043092
C	0.700431	1.272673	0.343308
C	-0.024469	0.010873	-1.464492
C	0.607831	1.106373	-2.085292
S	1.228731	2.188373	-0.944092
C	0.739131	1.324373	-3.538392
O	0.274931	0.514473	-4.328692
O	1.383531	2.434073	-3.982792
F	-0.578069	-0.955927	-2.224692
C	1.571731	2.739673	-5.313392
H	2.124731	3.696273	-5.348692
H	0.605431	2.847873	-5.853992
H	2.155131	1.952473	-5.840292
C	-0.446769	-2.152527	1.021608
H	0.385931	-2.161527	1.709308
H	-0.983769	-2.836427	1.662108
H	0.153931	-2.676927	0.293208
H	1.251631	2.221973	2.343108
$end

$rem
JOBTYPE		SP
EXCHANGE	HF
CORRELATION	pRIMP2
BASIS		cc-pvtz
METHOD		rimp2
AUX_BASIS	rimp2-cc-pvtz
SOLVENT_METHOD	PCM
PURECART	11111
SYMMETRY	false
MEM_TOTAL	110000
SCF_CONVERGENCE = 6
THRESH=10
GUI = 2
$end

$solvent
dielectric 4.90
$end
--------------------------------------------------------------

             Standard Nuclear Orientation (Angstroms)
    I     Atom           X                Y                Z
 ----------------------------------------------------------------
    1      C      -0.4467690000    -0.7173270000     1.0216080000
    2      S       0.0048310000     0.0604730000     2.5323080000
    3      C       0.7916310000     1.4252730000     1.7492080000
    4      C       0.0073310000     0.0692730000    -0.0430920000
    5      C       0.7004310000     1.2726730000     0.3433080000
    6      C      -0.0244690000     0.0108730000    -1.4644920000
    7      C       0.6078310000     1.1063730000    -2.0852920000
    8      S       1.2287310000     2.1883730000    -0.9440920000
    9      C       0.7391310000     1.3243730000    -3.5383920000
   10      O       0.2749310000     0.5144730000    -4.3286920000
   11      O       1.3835310000     2.4340730000    -3.9827920000
   12      F      -0.5780690000    -0.9559270000    -2.2246920000
   13      C       1.5717310000     2.7396730000    -5.3133920000
   14      H       2.1247310000     3.6962730000    -5.3486920000
   15      H       0.6054310000     2.8478730000    -5.8539920000
   16      H       2.1551310000     1.9524730000    -5.8402920000
   17      C      -0.4467690000    -2.1525270000     1.0216080000
   18      H       0.3859310000    -2.1615270000     1.7093080000
   19      H      -0.9837690000    -2.8364270000     1.6621080000
   20      H       0.1539310000    -2.6769270000     0.2932080000
   21      H       1.2516310000     2.2219730000     2.3431080000
 ----------------------------------------------------------------

   11   -1389.2361960116      4.96e-07  Convergence criterion met
 Total energy in the final basis set =    -1389.2361960116
        RIMP2         total energy =     -1391.7443977720 a.u.

                    Orbital Energies (a.u.)
 --------------------------------------------------------------

 Alpha MOs
 -- Occupied --
-92.0024 -91.9897 -26.3336 -20.6106 -20.5476 -11.4080 -11.3761 -11.3089
-11.2921 -11.2913 -11.2877 -11.2847 -11.2716 -11.2292  -9.0021  -8.9939
 -6.6828  -6.6822  -6.6817  -6.6752  -6.6746  -6.6732  -1.6465  -1.4702
 -1.3652  -1.2284  -1.1496  -1.0665  -1.0293  -1.0041  -0.9686  -0.9080
 -0.8644  -0.7968  -0.7847  -0.7682  -0.7268  -0.7145  -0.6956  -0.6772
 -0.6763  -0.6683  -0.6094  -0.6044  -0.6003  -0.5878  -0.5731  -0.5628
 -0.5416  -0.5256  -0.5124  -0.4899  -0.4793  -0.4606  -0.4587  -0.4521
 -0.3931  -0.3457  -0.2758

          Ground-State Mulliken Net Atomic Charges

     Atom                 Charge (a.u.)
  ----------------------------------------
      1 C                     0.053974
      2 S                     0.076992
      3 C                    -0.248918
      4 C                    -0.119189
      5 C                    -0.011740
      6 C                     0.376457
      7 C                    -0.163253
      8 S                     0.029474
      9 C                     0.458442
     10 O                    -0.453995
     11 O                    -0.298408
     12 F                    -0.210378
     13 C                    -0.054834
     14 H                     0.116298
     15 H                     0.084080
     16 H                     0.083899
     17 C                    -0.377778
     18 H                     0.143339
     19 H                     0.157375
     20 H                     0.147480
     21 H                     0.210683
  ----------------------------------------
  Sum of atomic charges =     0.000000

                    Cartesian Multipole Moments
 -----------------------------------------------------------------
    Charge (ESU x 10^10)
                -0.0000
    Dipole Moment (Debye)
         X       1.9882      Y       0.6356      Z       3.8657
       Tot       4.3933
    Quadrupole Moments (Debye-Ang)
        XX     -94.5709     XY       3.2259     YY     -84.9087
        XZ      -5.1222     YZ     -11.8386     ZZ     -95.2459

 Total job time:  54.24s(wall), 1944.01s(cpu)
        *  Thank you very much for using Q-Chem.  Have a nice day.  *
