 Q-Chem 5.4, Q-Chem, Inc., Pleasanton, CA (2021)
 Q-Chem 5.4.0 for Intel X86 EM64T Linux

User input:
--------------------------------------------------------------
$molecule
0 1
C	-0.767691	-0.392188	1.020760
S	0.012309	0.055612	2.531460
C	1.376109	0.844212	1.748360
C	0.018809	0.061912	-0.043940
C	1.220809	0.757612	0.342460
C	-0.037791	0.027312	-1.465340
C	1.057509	0.659812	-2.086140
S	2.136209	1.286512	-0.944940
C	1.280209	0.783012	-3.539240
O	0.473309	0.313712	-4.329540
O	2.393109	1.421812	-3.983640
F	-1.000691	-0.533088	-2.225540
C	2.708809	1.592412	-5.314240
H	3.666009	2.144312	-5.349540
H	1.926109	2.169312	-5.854840
H	2.820509	0.618912	-5.841140
C	-0.767691	-1.827388	1.020760
H	-1.300291	-1.836388	1.960260
H	-1.491791	-2.511288	0.603160
H	0.053909	-2.351788	1.485860
H	2.172909	1.304112	2.342260
$end

$rem
JOBTYPE		SP
EXCHANGE	HF
CORRELATION	pRIMP2
BASIS		cc-pvtz
METHOD		rimp2
AUX_BASIS	rimp2-cc-pvtz
SOLVENT_METHOD	PCM
PURECART	11111
SYMMETRY	false
MEM_TOTAL	110000
SCF_CONVERGENCE = 6
THRESH=10
GUI = 2
$end

$solvent
dielectric 4.90
$end
--------------------------------------------------------------

             Standard Nuclear Orientation (Angstroms)
    I     Atom           X                Y                Z
 ----------------------------------------------------------------
    1      C      -0.7676910000    -0.3921880000     1.0207600000
    2      S       0.0123090000     0.0556120000     2.5314600000
    3      C       1.3761090000     0.8442120000     1.7483600000
    4      C       0.0188090000     0.0619120000    -0.0439400000
    5      C       1.2208090000     0.7576120000     0.3424600000
    6      C      -0.0377910000     0.0273120000    -1.4653400000
    7      C       1.0575090000     0.6598120000    -2.0861400000
    8      S       2.1362090000     1.2865120000    -0.9449400000
    9      C       1.2802090000     0.7830120000    -3.5392400000
   10      O       0.4733090000     0.3137120000    -4.3295400000
   11      O       2.3931090000     1.4218120000    -3.9836400000
   12      F      -1.0006910000    -0.5330880000    -2.2255400000
   13      C       2.7088090000     1.5924120000    -5.3142400000
   14      H       3.6660090000     2.1443120000    -5.3495400000
   15      H       1.9261090000     2.1693120000    -5.8548400000
   16      H       2.8205090000     0.6189120000    -5.8411400000
   17      C      -0.7676910000    -1.8273880000     1.0207600000
   18      H      -1.3002910000    -1.8363880000     1.9602600000
   19      H      -1.4917910000    -2.5112880000     0.6031600000
   20      H       0.0539090000    -2.3517880000     1.4858600000
   21      H       2.1729090000     1.3041120000     2.3422600000
 ----------------------------------------------------------------

   11   -1389.1812103308      9.08e-07  Convergence criterion met
 Total energy in the final basis set =    -1389.1812103308
        RIMP2         total energy =     -1391.7046506935 a.u.

                    Orbital Energies (a.u.)
 --------------------------------------------------------------

 Alpha MOs
 -- Occupied --
-92.0065 -92.0000 -26.3319 -20.6142 -20.5545 -11.4137 -11.3722 -11.3166
-11.3063 -11.2939 -11.2896 -11.2813 -11.2624 -11.2155  -9.0060  -9.0037
 -6.6866  -6.6857  -6.6856  -6.6849  -6.6843  -6.6830  -1.6450  -1.4743
 -1.3703  -1.2347  -1.1551  -1.0681  -1.0333  -1.0009  -0.9721  -0.9025
 -0.8694  -0.7988  -0.7869  -0.7739  -0.7296  -0.7141  -0.6970  -0.6802
 -0.6733  -0.6727  -0.6114  -0.6090  -0.6005  -0.5893  -0.5785  -0.5614
 -0.5297  -0.5278  -0.5089  -0.4854  -0.4664  -0.4632  -0.4609  -0.4510
 -0.3820  -0.3425  -0.2911

          Ground-State Mulliken Net Atomic Charges

     Atom                 Charge (a.u.)
  ----------------------------------------
      1 C                    -0.141922
      2 S                     0.106880
      3 C                    -0.165381
      4 C                     0.007402
      5 C                    -0.034094
      6 C                     0.351060
      7 C                    -0.132994
      8 S                     0.057853
      9 C                     0.456745
     10 O                    -0.441831
     11 O                    -0.296730
     12 F                    -0.211046
     13 C                    -0.054752
     14 H                     0.117120
     15 H                     0.085316
     16 H                     0.085024
     17 C                    -0.371813
     18 H                     0.105047
     19 H                     0.141010
     20 H                     0.119281
     21 H                     0.217825
  ----------------------------------------
  Sum of atomic charges =     0.000000

                    Cartesian Multipole Moments
 -----------------------------------------------------------------
    Charge (ESU x 10^10)
                -0.0000
    Dipole Moment (Debye)
         X       4.2654      Y       1.2894      Z       3.2869
       Tot       5.5372
    Quadrupole Moments (Debye-Ang)
        XX     -88.6008     XY       6.0149     YY     -91.2457
        XZ      -8.1926     YZ      -6.5043     ZZ     -92.2023

 Total job time:  56.25s(wall), 2073.91s(cpu)
        *  Thank you very much for using Q-Chem.  Have a nice day.  *
