 Q-Chem 5.4, Q-Chem, Inc., Pleasanton, CA (2021)
 Q-Chem 5.4.0 for Intel X86 EM64T Linux

User input:
--------------------------------------------------------------
$molecule
0 1
C	-0.008451	-0.837383	1.023176
S	-0.006251	0.062017	2.533876
C	-0.007251	1.637317	1.750776
C	-0.008451	0.070817	-0.041524
C	-0.009951	1.459617	0.344876
C	-0.006851	0.004417	-1.462924
C	-0.006951	1.269317	-2.083724
S	-0.010251	2.516817	-0.942524
C	-0.002251	1.523717	-3.536824
O	0.000749	0.590217	-4.327124
O	0.000949	2.806917	-3.981224
F	-0.002951	-1.109683	-2.223124
C	0.011149	3.165617	-5.311824
H	0.011749	4.270617	-5.347124
H	-0.879851	2.776317	-5.852424
H	0.910049	2.775717	-5.838724
C	0.116649	-2.267083	1.023176
H	1.193249	-2.181883	1.014676
H	0.176549	-2.948383	1.859076
H	0.154349	-2.790183	0.079076
H	-0.007251	2.557417	2.344676
$end

$rem
JOBTYPE		SP
EXCHANGE	HF
CORRELATION	pRIMP2
BASIS		cc-pvtz
METHOD		rimp2
AUX_BASIS	rimp2-cc-pvtz
SOLVENT_METHOD	PCM
PURECART	11111
SYMMETRY	false
MEM_TOTAL	110000
SCF_CONVERGENCE = 6
THRESH=10
GUI = 2
$end

$solvent
dielectric 4.90
$end
--------------------------------------------------------------

             Standard Nuclear Orientation (Angstroms)
    I     Atom           X                Y                Z
 ----------------------------------------------------------------
    1      C      -0.0084510000    -0.8373830000     1.0231760000
    2      S      -0.0062510000     0.0620170000     2.5338760000
    3      C      -0.0072510000     1.6373170000     1.7507760000
    4      C      -0.0084510000     0.0708170000    -0.0415240000
    5      C      -0.0099510000     1.4596170000     0.3448760000
    6      C      -0.0068510000     0.0044170000    -1.4629240000
    7      C      -0.0069510000     1.2693170000    -2.0837240000
    8      S      -0.0102510000     2.5168170000    -0.9425240000
    9      C      -0.0022510000     1.5237170000    -3.5368240000
   10      O       0.0007490000     0.5902170000    -4.3271240000
   11      O       0.0009490000     2.8069170000    -3.9812240000
   12      F      -0.0029510000    -1.1096830000    -2.2231240000
   13      C       0.0111490000     3.1656170000    -5.3118240000
   14      H       0.0117490000     4.2706170000    -5.3471240000
   15      H      -0.8798510000     2.7763170000    -5.8524240000
   16      H       0.9100490000     2.7757170000    -5.8387240000
   17      C       0.1166490000    -2.2670830000     1.0231760000
   18      H       1.1932490000    -2.1818830000     1.0146760000
   19      H       0.1765490000    -2.9483830000     1.8590760000
   20      H       0.1543490000    -2.7901830000     0.0790760000
   21      H      -0.0072510000     2.5574170000     2.3446760000
 ----------------------------------------------------------------

   11   -1389.2577222476      4.11e-07  Convergence criterion met
 Total energy in the final basis set =    -1389.2577222476
        RIMP2         total energy =     -1391.7590153190 a.u.

                    Orbital Energies (a.u.)
 --------------------------------------------------------------

 Alpha MOs
 -- Occupied --
-92.0057 -91.9873 -26.3346 -20.6088 -20.5443 -11.4053 -11.3769 -11.3230
-11.2914 -11.2869 -11.2856 -11.2727 -11.2663 -11.2376  -9.0046  -8.9915
 -6.6854  -6.6848  -6.6843  -6.6729  -6.6722  -6.6708  -1.6475  -1.4682
 -1.3628  -1.2259  -1.1470  -1.0679  -1.0268  -1.0066  -0.9672  -0.9114
 -0.8621  -0.7958  -0.7843  -0.7655  -0.7258  -0.7151  -0.6965  -0.6772
 -0.6759  -0.6667  -0.6106  -0.6023  -0.5961  -0.5891  -0.5847  -0.5591
 -0.5315  -0.5255  -0.5191  -0.4949  -0.4778  -0.4625  -0.4584  -0.4559
 -0.3903  -0.3469  -0.2714

          Ground-State Mulliken Net Atomic Charges

     Atom                 Charge (a.u.)
  ----------------------------------------
      1 C                     0.051020
      2 S                     0.080871
      3 C                    -0.281779
      4 C                    -0.100559
      5 C                    -0.010907
      6 C                     0.396162
      7 C                    -0.171688
      8 S                     0.021095
      9 C                     0.460811
     10 O                    -0.460422
     11 O                    -0.299301
     12 F                    -0.214344
     13 C                    -0.055009
     14 H                     0.115865
     15 H                     0.083491
     16 H                     0.083290
     17 C                    -0.385018
     18 H                     0.154535
     19 H                     0.171296
     20 H                     0.151351
     21 H                     0.209241
  ----------------------------------------
  Sum of atomic charges =     0.000000

                    Cartesian Multipole Moments
 -----------------------------------------------------------------
    Charge (ESU x 10^10)
                -0.0000
    Dipole Moment (Debye)
         X       0.9563      Y       0.0549      Z       3.8056
       Tot       3.9243
    Quadrupole Moments (Debye-Ang)
        XX     -96.3910     XY      -2.2459     YY     -81.9426
        XZ       0.9443     YZ     -12.7402     ZZ     -97.1526

 Total job time:  66.24s(wall), 2556.14s(cpu)
        *  Thank you very much for using Q-Chem.  Have a nice day.  *
