 Q-Chem 5.4, Q-Chem, Inc., Pleasanton, CA (2021)
 Q-Chem 5.4.0 for Intel X86 EM64T Linux

User input:
--------------------------------------------------------------
$molecule
0 1
C	-0.444651	-0.717327	1.020565
S	0.006949	0.060473	2.531265
C	0.793749	1.425273	1.748165
C	0.009449	0.069273	-0.044135
C	0.702549	1.272673	0.342265
C	-0.022351	0.010873	-1.465535
C	0.609949	1.106373	-2.086335
S	1.230849	2.188373	-0.945135
C	0.741249	1.324373	-3.539435
O	0.277049	0.514473	-4.329735
O	1.385649	2.434073	-3.983835
F	-0.575951	-0.955927	-2.225735
C	1.573849	2.739673	-5.314435
H	2.126849	3.696273	-5.349735
H	0.607549	2.847873	-5.855035
H	2.157249	1.952473	-5.841335
C	-0.444651	-2.152527	1.020565
H	-0.623851	-2.161527	2.085565
H	-1.267851	-2.836427	0.875765
H	0.486549	-2.676927	1.176665
H	1.253749	2.221973	2.342065
$end

$rem
JOBTYPE		SP
EXCHANGE	HF
CORRELATION	pRIMP2
BASIS		cc-pvtz
METHOD		rimp2
AUX_BASIS	rimp2-cc-pvtz
SOLVENT_METHOD	PCM
PURECART	11111
SYMMETRY	false
MEM_TOTAL	110000
SCF_CONVERGENCE = 6
THRESH=10
GUI = 2
$end

$solvent
dielectric 4.90
$end
--------------------------------------------------------------

             Standard Nuclear Orientation (Angstroms)
    I     Atom           X                Y                Z
 ----------------------------------------------------------------
    1      C      -0.4446510000    -0.7173270000     1.0205650000
    2      S       0.0069490000     0.0604730000     2.5312650000
    3      C       0.7937490000     1.4252730000     1.7481650000
    4      C       0.0094490000     0.0692730000    -0.0441350000
    5      C       0.7025490000     1.2726730000     0.3422650000
    6      C      -0.0223510000     0.0108730000    -1.4655350000
    7      C       0.6099490000     1.1063730000    -2.0863350000
    8      S       1.2308490000     2.1883730000    -0.9451350000
    9      C       0.7412490000     1.3243730000    -3.5394350000
   10      O       0.2770490000     0.5144730000    -4.3297350000
   11      O       1.3856490000     2.4340730000    -3.9838350000
   12      F      -0.5759510000    -0.9559270000    -2.2257350000
   13      C       1.5738490000     2.7396730000    -5.3144350000
   14      H       2.1268490000     3.6962730000    -5.3497350000
   15      H       0.6075490000     2.8478730000    -5.8550350000
   16      H       2.1572490000     1.9524730000    -5.8413350000
   17      C      -0.4446510000    -2.1525270000     1.0205650000
   18      H      -0.6238510000    -2.1615270000     2.0855650000
   19      H      -1.2678510000    -2.8364270000     0.8757650000
   20      H       0.4865490000    -2.6769270000     1.1766650000
   21      H       1.2537490000     2.2219730000     2.3420650000
 ----------------------------------------------------------------

   11   -1389.2351028515      5.62e-07  Convergence criterion met
 Total energy in the final basis set =    -1389.2351028515
        RIMP2         total energy =     -1391.7468148451 a.u.

                    Orbital Energies (a.u.)
 --------------------------------------------------------------

 Alpha MOs
 -- Occupied --
-92.0092 -91.9919 -26.3326 -20.6112 -20.5489 -11.4090 -11.3742 -11.2972
-11.2948 -11.2922 -11.2908 -11.2880 -11.2712 -11.2250  -9.0080  -8.9960
 -6.6887  -6.6881  -6.6877  -6.6773  -6.6766  -6.6753  -1.6456  -1.4709
 -1.3661  -1.2283  -1.1485  -1.0650  -1.0304  -1.0039  -0.9692  -0.9080
 -0.8654  -0.7970  -0.7845  -0.7691  -0.7268  -0.7139  -0.6953  -0.6777
 -0.6751  -0.6690  -0.6091  -0.6051  -0.5969  -0.5883  -0.5768  -0.5649
 -0.5407  -0.5256  -0.5057  -0.4824  -0.4684  -0.4633  -0.4605  -0.4586
 -0.3939  -0.3453  -0.2842

          Ground-State Mulliken Net Atomic Charges

     Atom                 Charge (a.u.)
  ----------------------------------------
      1 C                     0.007726
      2 S                     0.090817
      3 C                    -0.237789
      4 C                    -0.083133
      5 C                    -0.006942
      6 C                     0.359920
      7 C                    -0.153945
      8 S                     0.036943
      9 C                     0.456269
     10 O                    -0.451394
     11 O                    -0.298094
     12 F                    -0.210791
     13 C                    -0.054862
     14 H                     0.116424
     15 H                     0.084241
     16 H                     0.084187
     17 C                    -0.353430
     18 H                     0.108307
     19 H                     0.151422
     20 H                     0.141079
     21 H                     0.213046
  ----------------------------------------
  Sum of atomic charges =     0.000000

                    Cartesian Multipole Moments
 -----------------------------------------------------------------
    Charge (ESU x 10^10)
                -0.0000
    Dipole Moment (Debye)
         X       1.6156      Y       1.3306      Z       3.9864
       Tot       4.5024
    Quadrupole Moments (Debye-Ang)
        XX     -93.5530     XY       4.8319     YY     -85.1791
        XZ      -5.3249     YZ     -11.5410     ZZ     -94.3345

 Total job time:  58.34s(wall), 2244.99s(cpu)
        *  Thank you very much for using Q-Chem.  Have a nice day.  *
