 Q-Chem 5.4, Q-Chem, Inc., Pleasanton, CA (2021)
 Q-Chem 5.4.0 for Intel X86 EM64T Linux

User input:
--------------------------------------------------------------
$molecule
0 1
C	-0.229777	-0.806326	1.024825
S	0.005123	0.061874	2.535525
C	0.411823	1.583774	1.752425
C	0.005223	0.070974	-0.039875
C	0.363223	1.412774	0.346525
C	-0.010277	0.006374	-1.461275
C	0.316923	1.228174	-2.082075
S	0.636523	2.434074	-0.940875
C	0.387323	1.472774	-3.535175
O	0.148523	0.570274	-4.325475
O	0.722523	2.711374	-3.979575
F	-0.294877	-1.070726	-2.221475
C	0.825223	3.055274	-5.310175
H	1.111723	4.122374	-5.345475
H	-0.136177	2.909774	-5.850775
H	1.592523	2.445874	-5.837075
C	-0.229777	-2.241526	1.024825
H	-0.777077	-2.250526	0.093825
H	0.493923	-2.925426	0.606625
H	-1.043377	-2.765926	1.503825
H	0.650023	2.472474	2.346325
$end

$rem
JOBTYPE		SP
EXCHANGE	HF
CORRELATION	pRIMP2
BASIS		cc-pvtz
METHOD		rimp2
AUX_BASIS	rimp2-cc-pvtz
SOLVENT_METHOD	PCM
PURECART	11111
SYMMETRY	false
MEM_TOTAL	110000
SCF_CONVERGENCE = 6
THRESH=10
GUI = 2
$end

$solvent
dielectric 4.90
$end
--------------------------------------------------------------

             Standard Nuclear Orientation (Angstroms)
    I     Atom           X                Y                Z
 ----------------------------------------------------------------
    1      C      -0.2297770000    -0.8063260000     1.0248250000
    2      S       0.0051230000     0.0618740000     2.5355250000
    3      C       0.4118230000     1.5837740000     1.7524250000
    4      C       0.0052230000     0.0709740000    -0.0398750000
    5      C       0.3632230000     1.4127740000     0.3465250000
    6      C      -0.0102770000     0.0063740000    -1.4612750000
    7      C       0.3169230000     1.2281740000    -2.0820750000
    8      S       0.6365230000     2.4340740000    -0.9408750000
    9      C       0.3873230000     1.4727740000    -3.5351750000
   10      O       0.1485230000     0.5702740000    -4.3254750000
   11      O       0.7225230000     2.7113740000    -3.9795750000
   12      F      -0.2948770000    -1.0707260000    -2.2214750000
   13      C       0.8252230000     3.0552740000    -5.3101750000
   14      H       1.1117230000     4.1223740000    -5.3454750000
   15      H      -0.1361770000     2.9097740000    -5.8507750000
   16      H       1.5925230000     2.4458740000    -5.8370750000
   17      C      -0.2297770000    -2.2415260000     1.0248250000
   18      H      -0.7770770000    -2.2505260000     0.0938250000
   19      H       0.4939230000    -2.9254260000     0.6066250000
   20      H      -1.0433770000    -2.7659260000     1.5038250000
   21      H       0.6500230000     2.4724740000     2.3463250000
 ----------------------------------------------------------------

   11   -1389.2506266427      5.03e-07  Convergence criterion met
 Total energy in the final basis set =    -1389.2506266427
        RIMP2         total energy =     -1391.7585442199 a.u.

                    Orbital Energies (a.u.)
 --------------------------------------------------------------

 Alpha MOs
 -- Occupied --
-92.0042 -91.9908 -26.3351 -20.6108 -20.5479 -11.4083 -11.3764 -11.3080
-11.2925 -11.2919 -11.2879 -11.2836 -11.2730 -11.2280  -9.0031  -8.9950
 -6.6839  -6.6832  -6.6829  -6.6762  -6.6756  -6.6742  -1.6482  -1.4704
 -1.3655  -1.2278  -1.1453  -1.0675  -1.0271  -1.0061  -0.9685  -0.9115
 -0.8637  -0.7958  -0.7860  -0.7670  -0.7265  -0.7161  -0.6972  -0.6784
 -0.6775  -0.6690  -0.6085  -0.6046  -0.5967  -0.5883  -0.5775  -0.5678
 -0.5440  -0.5245  -0.5058  -0.4820  -0.4780  -0.4614  -0.4599  -0.4533
 -0.3946  -0.3454  -0.2805

          Ground-State Mulliken Net Atomic Charges

     Atom                 Charge (a.u.)
  ----------------------------------------
      1 C                     0.034365
      2 S                     0.084670
      3 C                    -0.252752
      4 C                    -0.101978
      5 C                    -0.011536
      6 C                     0.380398
      7 C                    -0.156884
      8 S                     0.030963
      9 C                     0.458496
     10 O                    -0.454527
     11 O                    -0.298223
     12 F                    -0.213673
     13 C                    -0.054885
     14 H                     0.116374
     15 H                     0.084029
     16 H                     0.083917
     17 C                    -0.364025
     18 H                     0.121164
     19 H                     0.157018
     20 H                     0.146897
     21 H                     0.210190
  ----------------------------------------
  Sum of atomic charges =     0.000000

                    Cartesian Multipole Moments
 -----------------------------------------------------------------
    Charge (ESU x 10^10)
                -0.0000
    Dipole Moment (Debye)
         X       0.3862      Y       1.0143      Z       2.8858
       Tot       3.0831
    Quadrupole Moments (Debye-Ang)
        XX     -95.2403     XY       3.4396     YY     -82.7975
        XZ      -3.3175     YZ     -10.3536     ZZ     -97.4437

 Total job time:  54.19s(wall), 1933.36s(cpu)
        *  Thank you very much for using Q-Chem.  Have a nice day.  *
