 Q-Chem 5.4, Q-Chem, Inc., Pleasanton, CA (2021)
 Q-Chem 5.4.0 for Intel X86 EM64T Linux

User input:
--------------------------------------------------------------
$molecule
0 1
C	-0.768080	-0.392188	1.020627
S	0.011920	0.055612	2.531327
C	1.375720	0.844212	1.748227
C	0.018420	0.061912	-0.044073
C	1.220420	0.757612	0.342327
C	-0.038180	0.027312	-1.465473
C	1.057120	0.659812	-2.086273
S	2.135820	1.286512	-0.945073
C	1.279820	0.783012	-3.539373
O	0.472920	0.313712	-4.329673
O	2.392720	1.421812	-3.983773
F	-1.001080	-0.533088	-2.225673
C	2.708420	1.592412	-5.314373
H	3.665620	2.144312	-5.349673
H	1.925720	2.169312	-5.854973
H	2.820120	0.618912	-5.841273
C	-0.768080	-1.827388	1.020627
H	-1.129480	-1.836388	2.038327
H	-1.553680	-2.511288	0.735127
H	0.121820	-2.351788	1.336027
H	2.172520	1.304112	2.342127
$end

$rem
JOBTYPE		SP
EXCHANGE	HF
CORRELATION	pRIMP2
BASIS		cc-pvtz
METHOD		rimp2
AUX_BASIS	rimp2-cc-pvtz
SOLVENT_METHOD	PCM
PURECART	11111
SYMMETRY	false
MEM_TOTAL	110000
SCF_CONVERGENCE = 6
THRESH=10
GUI = 2
$end

$solvent
dielectric 4.90
$end
--------------------------------------------------------------

             Standard Nuclear Orientation (Angstroms)
    I     Atom           X                Y                Z
 ----------------------------------------------------------------
    1      C      -0.7680800000    -0.3921880000     1.0206270000
    2      S       0.0119200000     0.0556120000     2.5313270000
    3      C       1.3757200000     0.8442120000     1.7482270000
    4      C       0.0184200000     0.0619120000    -0.0440730000
    5      C       1.2204200000     0.7576120000     0.3423270000
    6      C      -0.0381800000     0.0273120000    -1.4654730000
    7      C       1.0571200000     0.6598120000    -2.0862730000
    8      S       2.1358200000     1.2865120000    -0.9450730000
    9      C       1.2798200000     0.7830120000    -3.5393730000
   10      O       0.4729200000     0.3137120000    -4.3296730000
   11      O       2.3927200000     1.4218120000    -3.9837730000
   12      F      -1.0010800000    -0.5330880000    -2.2256730000
   13      C       2.7084200000     1.5924120000    -5.3143730000
   14      H       3.6656200000     2.1443120000    -5.3496730000
   15      H       1.9257200000     2.1693120000    -5.8549730000
   16      H       2.8201200000     0.6189120000    -5.8412730000
   17      C      -0.7680800000    -1.8273880000     1.0206270000
   18      H      -1.1294800000    -1.8363880000     2.0383270000
   19      H      -1.5536800000    -2.5112880000     0.7351270000
   20      H       0.1218200000    -2.3517880000     1.3360270000
   21      H       2.1725200000     1.3041120000     2.3421270000
 ----------------------------------------------------------------

   11   -1389.1810650078      9.03e-07  Convergence criterion met
 Total energy in the final basis set =    -1389.1810650078
        RIMP2         total energy =     -1391.7046075104 a.u.

                    Orbital Energies (a.u.)
 --------------------------------------------------------------

 Alpha MOs
 -- Occupied --
-92.0065 -92.0001 -26.3318 -20.6142 -20.5545 -11.4137 -11.3721 -11.3167
-11.3064 -11.2936 -11.2896 -11.2816 -11.2626 -11.2158  -9.0060  -9.0037
 -6.6866  -6.6857  -6.6856  -6.6849  -6.6843  -6.6830  -1.6450  -1.4743
 -1.3703  -1.2349  -1.1556  -1.0683  -1.0335  -1.0008  -0.9722  -0.9018
 -0.8696  -0.7990  -0.7869  -0.7741  -0.7297  -0.7141  -0.6971  -0.6802
 -0.6732  -0.6730  -0.6114  -0.6089  -0.6012  -0.5895  -0.5776  -0.5614
 -0.5296  -0.5287  -0.5089  -0.4857  -0.4649  -0.4633  -0.4597  -0.4511
 -0.3846  -0.3410  -0.2928

          Ground-State Mulliken Net Atomic Charges

     Atom                 Charge (a.u.)
  ----------------------------------------
      1 C                    -0.133236
      2 S                     0.107667
      3 C                    -0.166858
      4 C                    -0.001637
      5 C                    -0.032284
      6 C                     0.349758
      7 C                    -0.132722
      8 S                     0.058217
      9 C                     0.456376
     10 O                    -0.441752
     11 O                    -0.296725
     12 F                    -0.210898
     13 C                    -0.054757
     14 H                     0.117114
     15 H                     0.085325
     16 H                     0.085030
     17 C                    -0.364142
     18 H                     0.102878
     19 H                     0.138106
     20 H                     0.116831
     21 H                     0.217710
  ----------------------------------------
  Sum of atomic charges =     0.000000

                    Cartesian Multipole Moments
 -----------------------------------------------------------------
    Charge (ESU x 10^10)
                -0.0000
    Dipole Moment (Debye)
         X       4.3473      Y       1.2965      Z       3.3478
       Tot       5.6381
    Quadrupole Moments (Debye-Ang)
        XX     -88.6763     XY       5.8241     YY     -91.2614
        XZ      -8.2544     YZ      -6.6442     ZZ     -92.0914

 Total job time:  60.30s(wall), 2093.92s(cpu)
        *  Thank you very much for using Q-Chem.  Have a nice day.  *
