 Q-Chem 5.4, Q-Chem, Inc., Pleasanton, CA (2021)
 Q-Chem 5.4.0 for Intel X86 EM64T Linux

User input:
--------------------------------------------------------------
$molecule
0 1
C	-0.768799	-0.392188	1.025276
S	0.011201	0.055612	2.535976
C	1.375001	0.844212	1.752876
C	0.017701	0.061912	-0.039424
C	1.219701	0.757612	0.346976
C	-0.038899	0.027312	-1.460824
C	1.056401	0.659812	-2.081624
S	2.135101	1.286512	-0.940424
C	1.279101	0.783012	-3.534724
O	0.472201	0.313712	-4.325024
O	2.392001	1.421812	-3.979124
F	-1.001799	-0.533088	-2.221024
C	2.707701	1.592412	-5.309724
H	3.664901	2.144312	-5.345024
H	1.925001	2.169312	-5.850324
H	2.819401	0.618912	-5.836624
C	-0.768799	-1.827388	1.025276
H	-0.589599	-1.836388	-0.039724
H	0.054401	-2.511288	1.170076
H	-1.699999	-2.351788	0.869176
H	2.171801	1.304112	2.346776
$end

$rem
JOBTYPE		SP
EXCHANGE	HF
CORRELATION	pRIMP2
BASIS		cc-pvtz
METHOD		rimp2
AUX_BASIS	rimp2-cc-pvtz
SOLVENT_METHOD	PCM
PURECART	11111
SYMMETRY	false
MEM_TOTAL	110000
SCF_CONVERGENCE = 6
THRESH=10
GUI = 2
$end

$solvent
dielectric 4.90
$end
--------------------------------------------------------------

             Standard Nuclear Orientation (Angstroms)
    I     Atom           X                Y                Z
 ----------------------------------------------------------------
    1      C      -0.7687990000    -0.3921880000     1.0252760000
    2      S       0.0112010000     0.0556120000     2.5359760000
    3      C       1.3750010000     0.8442120000     1.7528760000
    4      C       0.0177010000     0.0619120000    -0.0394240000
    5      C       1.2197010000     0.7576120000     0.3469760000
    6      C      -0.0388990000     0.0273120000    -1.4608240000
    7      C       1.0564010000     0.6598120000    -2.0816240000
    8      S       2.1351010000     1.2865120000    -0.9404240000
    9      C       1.2791010000     0.7830120000    -3.5347240000
   10      O       0.4722010000     0.3137120000    -4.3250240000
   11      O       2.3920010000     1.4218120000    -3.9791240000
   12      F      -1.0017990000    -0.5330880000    -2.2210240000
   13      C       2.7077010000     1.5924120000    -5.3097240000
   14      H       3.6649010000     2.1443120000    -5.3450240000
   15      H       1.9250010000     2.1693120000    -5.8503240000
   16      H       2.8194010000     0.6189120000    -5.8366240000
   17      C      -0.7687990000    -1.8273880000     1.0252760000
   18      H      -0.5895990000    -1.8363880000    -0.0397240000
   19      H       0.0544010000    -2.5112880000     1.1700760000
   20      H      -1.6999990000    -2.3517880000     0.8691760000
   21      H       2.1718010000     1.3041120000     2.3467760000
 ----------------------------------------------------------------

   11   -1389.1755393108      9.27e-07  Convergence criterion met
 Total energy in the final basis set =    -1389.1755393108
        RIMP2         total energy =     -1391.7018449807 a.u.

                    Orbital Energies (a.u.)
 --------------------------------------------------------------

 Alpha MOs
 -- Occupied --
-92.0042 -92.0023 -26.3343 -20.6150 -20.5557 -11.4149 -11.3736 -11.3156
-11.3084 -11.2944 -11.2901 -11.2841 -11.2621 -11.2133  -9.0058  -9.0036
 -6.6870  -6.6864  -6.6851  -6.6842  -6.6833  -6.6832  -1.6477  -1.4752
 -1.3713  -1.2369  -1.1545  -1.0735  -1.0308  -1.0004  -0.9724  -0.9048
 -0.8677  -0.7974  -0.7894  -0.7732  -0.7301  -0.7169  -0.6987  -0.6811
 -0.6768  -0.6743  -0.6101  -0.6068  -0.6039  -0.5884  -0.5826  -0.5628
 -0.5322  -0.5272  -0.5118  -0.4870  -0.4695  -0.4644  -0.4628  -0.4342
 -0.3853  -0.3391  -0.2942

          Ground-State Mulliken Net Atomic Charges

     Atom                 Charge (a.u.)
  ----------------------------------------
      1 C                    -0.142514
      2 S                     0.110215
      3 C                    -0.168570
      4 C                    -0.001300
      5 C                    -0.034845
      6 C                     0.339093
      7 C                    -0.124957
      8 S                     0.065558
      9 C                     0.456614
     10 O                    -0.441014
     11 O                    -0.296592
     12 F                    -0.211769
     13 C                    -0.054709
     14 H                     0.117350
     15 H                     0.085529
     16 H                     0.085115
     17 C                    -0.355354
     18 H                     0.107209
     19 H                     0.136236
     20 H                     0.112703
     21 H                     0.216001
  ----------------------------------------
  Sum of atomic charges =     0.000000

                    Cartesian Multipole Moments
 -----------------------------------------------------------------
    Charge (ESU x 10^10)
                -0.0000
    Dipole Moment (Debye)
         X       4.7324      Y       1.3443      Z       2.2061
       Tot       5.3916
    Quadrupole Moments (Debye-Ang)
        XX     -88.9050     XY       4.8233     YY     -91.3919
        XZ      -7.4852     YZ      -4.8764     ZZ     -94.1410

 Total job time:  54.43s(wall), 1966.79s(cpu)
        *  Thank you very much for using Q-Chem.  Have a nice day.  *
