 Q-Chem 5.4, Q-Chem, Inc., Pleasanton, CA (2021)
 Q-Chem 5.4.0 for Intel X86 EM64T Linux

User input:
--------------------------------------------------------------
$molecule
0 1
C	-0.229011	-0.806326	1.023873
S	0.005889	0.061874	2.534573
C	0.412589	1.583774	1.751473
C	0.005989	0.070974	-0.040827
C	0.363989	1.412774	0.345573
C	-0.009511	0.006374	-1.462227
C	0.317689	1.228174	-2.083027
S	0.637289	2.434074	-0.941827
C	0.388089	1.472774	-3.536127
O	0.149289	0.570274	-4.326427
O	0.723289	2.711374	-3.980527
F	-0.294111	-1.070726	-2.222427
C	0.825989	3.055274	-5.311127
H	1.112489	4.122374	-5.346427
H	-0.135411	2.909774	-5.851727
H	1.593289	2.445874	-5.838027
C	-0.229011	-2.241526	1.023873
H	-1.168511	-2.250526	0.491273
H	0.188589	-2.925426	0.299773
H	-0.694111	-2.765926	1.845473
H	0.650789	2.472474	2.345373
$end

$rem
JOBTYPE		SP
EXCHANGE	HF
CORRELATION	pRIMP2
BASIS		cc-pvtz
METHOD		rimp2
AUX_BASIS	rimp2-cc-pvtz
SOLVENT_METHOD	PCM
PURECART	11111
SYMMETRY	false
MEM_TOTAL	110000
SCF_CONVERGENCE = 6
THRESH=10
GUI = 2
$end

$solvent
dielectric 4.90
$end
--------------------------------------------------------------

             Standard Nuclear Orientation (Angstroms)
    I     Atom           X                Y                Z
 ----------------------------------------------------------------
    1      C      -0.2290110000    -0.8063260000     1.0238730000
    2      S       0.0058890000     0.0618740000     2.5345730000
    3      C       0.4125890000     1.5837740000     1.7514730000
    4      C       0.0059890000     0.0709740000    -0.0408270000
    5      C       0.3639890000     1.4127740000     0.3455730000
    6      C      -0.0095110000     0.0063740000    -1.4622270000
    7      C       0.3176890000     1.2281740000    -2.0830270000
    8      S       0.6372890000     2.4340740000    -0.9418270000
    9      C       0.3880890000     1.4727740000    -3.5361270000
   10      O       0.1492890000     0.5702740000    -4.3264270000
   11      O       0.7232890000     2.7113740000    -3.9805270000
   12      F      -0.2941110000    -1.0707260000    -2.2224270000
   13      C       0.8259890000     3.0552740000    -5.3111270000
   14      H       1.1124890000     4.1223740000    -5.3464270000
   15      H      -0.1354110000     2.9097740000    -5.8517270000
   16      H       1.5932890000     2.4458740000    -5.8380270000
   17      C      -0.2290110000    -2.2415260000     1.0238730000
   18      H      -1.1685110000    -2.2505260000     0.4912730000
   19      H       0.1885890000    -2.9254260000     0.2997730000
   20      H      -0.6941110000    -2.7659260000     1.8454730000
   21      H       0.6507890000     2.4724740000     2.3453730000
 ----------------------------------------------------------------

   11   -1389.2506275611      4.62e-07  Convergence criterion met
 Total energy in the final basis set =    -1389.2506275611
        RIMP2         total energy =     -1391.7562081201 a.u.

                    Orbital Energies (a.u.)
 --------------------------------------------------------------

 Alpha MOs
 -- Occupied --
-92.0061 -91.9890 -26.3346 -20.6096 -20.5458 -11.4065 -11.3763 -11.3149
-11.2917 -11.2885 -11.2873 -11.2776 -11.2686 -11.2321  -9.0048  -8.9932
 -6.6856  -6.6850  -6.6845  -6.6745  -6.6738  -6.6725  -1.6476  -1.4691
 -1.3639  -1.2265  -1.1459  -1.0672  -1.0268  -1.0064  -0.9677  -0.9116
 -0.8628  -0.7956  -0.7848  -0.7660  -0.7258  -0.7153  -0.6968  -0.6782
 -0.6765  -0.6676  -0.6091  -0.6033  -0.5940  -0.5865  -0.5826  -0.5619
 -0.5411  -0.5233  -0.5104  -0.4919  -0.4791  -0.4608  -0.4583  -0.4560
 -0.3901  -0.3461  -0.2745

          Ground-State Mulliken Net Atomic Charges

     Atom                 Charge (a.u.)
  ----------------------------------------
      1 C                     0.046900
      2 S                     0.089160
      3 C                    -0.270326
      4 C                    -0.109666
      5 C                    -0.007186
      6 C                     0.381981
      7 C                    -0.166190
      8 S                     0.026762
      9 C                     0.458985
     10 O                    -0.457868
     11 O                    -0.298844
     12 F                    -0.213353
     13 C                    -0.054894
     14 H                     0.116085
     15 H                     0.083645
     16 H                     0.083580
     17 C                    -0.373428
     18 H                     0.140168
     19 H                     0.169036
     20 H                     0.146441
     21 H                     0.209012
  ----------------------------------------
  Sum of atomic charges =     0.000000

                    Cartesian Multipole Moments
 -----------------------------------------------------------------
    Charge (ESU x 10^10)
                -0.0000
    Dipole Moment (Debye)
         X      -0.0210      Y       0.4495      Z       3.3354
       Tot       3.3656
    Quadrupole Moments (Debye-Ang)
        XX     -95.5165     XY       4.1307     YY     -82.6181
        XZ      -3.6936     YZ     -11.1156     ZZ     -97.3459

 Total job time:  55.47s(wall), 2028.50s(cpu)
        *  Thank you very much for using Q-Chem.  Have a nice day.  *
