 Q-Chem 5.4, Q-Chem, Inc., Pleasanton, CA (2021)
 Q-Chem 5.4.0 for Intel X86 EM64T Linux

User input:
--------------------------------------------------------------
$molecule
0 1
C	-0.303582	-0.782911	1.020958
S	0.006118	0.061489	2.531658
C	0.543918	1.542189	1.748558
C	0.007018	0.070589	-0.043742
C	0.480618	1.376089	0.342658
C	-0.014082	0.007589	-1.465142
C	0.418318	1.196189	-2.085942
S	0.841918	2.369589	-0.944742
C	0.509818	1.433689	-3.539042
O	0.193318	0.555489	-4.329342
O	0.951718	2.638389	-3.983442
F	-0.391482	-1.040711	-2.225342
C	1.083918	2.971989	-5.314042
H	1.462418	4.010189	-5.349342
H	0.113518	2.910889	-5.854642
H	1.795218	2.298089	-5.840942
C	-0.303582	-2.218111	1.020958
H	-0.991282	-2.227111	1.853658
H	-0.944082	-2.902011	0.483958
H	0.424818	-2.742511	1.621658
H	0.858618	2.406689	2.342458
$end

$rem
JOBTYPE		SP
EXCHANGE	HF
CORRELATION	pRIMP2
BASIS		cc-pvtz
METHOD		rimp2
AUX_BASIS	rimp2-cc-pvtz
SOLVENT_METHOD	PCM
PURECART	11111
SYMMETRY	false
MEM_TOTAL	110000
SCF_CONVERGENCE = 6
THRESH=10
GUI = 2
$end

$solvent
dielectric 4.90
$end
--------------------------------------------------------------

             Standard Nuclear Orientation (Angstroms)
    I     Atom           X                Y                Z
 ----------------------------------------------------------------
    1      C      -0.3035820000    -0.7829110000     1.0209580000
    2      S       0.0061180000     0.0614890000     2.5316580000
    3      C       0.5439180000     1.5421890000     1.7485580000
    4      C       0.0070180000     0.0705890000    -0.0437420000
    5      C       0.4806180000     1.3760890000     0.3426580000
    6      C      -0.0140820000     0.0075890000    -1.4651420000
    7      C       0.4183180000     1.1961890000    -2.0859420000
    8      S       0.8419180000     2.3695890000    -0.9447420000
    9      C       0.5098180000     1.4336890000    -3.5390420000
   10      O       0.1933180000     0.5554890000    -4.3293420000
   11      O       0.9517180000     2.6383890000    -3.9834420000
   12      F      -0.3914820000    -1.0407110000    -2.2253420000
   13      C       1.0839180000     2.9719890000    -5.3140420000
   14      H       1.4624180000     4.0101890000    -5.3493420000
   15      H       0.1135180000     2.9108890000    -5.8546420000
   16      H       1.7952180000     2.2980890000    -5.8409420000
   17      C      -0.3035820000    -2.2181110000     1.0209580000
   18      H      -0.9912820000    -2.2271110000     1.8536580000
   19      H      -0.9440820000    -2.9020110000     0.4839580000
   20      H       0.4248180000    -2.7425110000     1.6216580000
   21      H       0.8586180000     2.4066890000     2.3424580000
 ----------------------------------------------------------------

   11   -1389.2453863424      4.92e-07  Convergence criterion met
 Total energy in the final basis set =    -1389.2453863424
        RIMP2         total energy =     -1391.7525668488 a.u.

                    Orbital Energies (a.u.)
 --------------------------------------------------------------

 Alpha MOs
 -- Occupied --
-92.0084 -91.9895 -26.3330 -20.6101 -20.5469 -11.4074 -11.3751 -11.3078
-11.2914 -11.2909 -11.2875 -11.2839 -11.2686 -11.2287  -9.0071  -8.9937
 -6.6879  -6.6874  -6.6869  -6.6750  -6.6743  -6.6730  -1.6459  -1.4697
 -1.3647  -1.2268  -1.1471  -1.0652  -1.0291  -1.0052  -0.9682  -0.9100
 -0.8639  -0.7963  -0.7841  -0.7673  -0.7261  -0.7139  -0.6951  -0.6769
 -0.6760  -0.6678  -0.6097  -0.6039  -0.5947  -0.5871  -0.5812  -0.5626
 -0.5390  -0.5251  -0.5077  -0.4835  -0.4801  -0.4619  -0.4591  -0.4576
 -0.3920  -0.3464  -0.2784

          Ground-State Mulliken Net Atomic Charges

     Atom                 Charge (a.u.)
  ----------------------------------------
      1 C                    -0.001563
      2 S                     0.084565
      3 C                    -0.250330
      4 C                    -0.058896
      5 C                    -0.013523
      6 C                     0.371030
      7 C                    -0.161879
      8 S                     0.028074
      9 C                     0.457829
     10 O                    -0.454832
     11 O                    -0.298449
     12 F                    -0.211774
     13 C                    -0.054822
     14 H                     0.116113
     15 H                     0.083930
     16 H                     0.083795
     17 C                    -0.365553
     18 H                     0.123324
     19 H                     0.165029
     20 H                     0.146344
     21 H                     0.211587
  ----------------------------------------
  Sum of atomic charges =     0.000000

                    Cartesian Multipole Moments
 -----------------------------------------------------------------
    Charge (ESU x 10^10)
                -0.0000
    Dipole Moment (Debye)
         X       0.5431      Y       0.8929      Z       4.0691
       Tot       4.2011
    Quadrupole Moments (Debye-Ang)
        XX     -94.8551     XY       4.4514     YY     -83.4465
        XZ      -3.8055     YZ     -12.4459     ZZ     -95.1608

 Total job time:  56.28s(wall), 2099.44s(cpu)
        *  Thank you very much for using Q-Chem.  Have a nice day.  *
