 Q-Chem 5.4, Q-Chem, Inc., Pleasanton, CA (2021)
 Q-Chem 5.4.0 for Intel X86 EM64T Linux

User input:
--------------------------------------------------------------
$molecule
0 1
C	-0.307251	-0.782911	1.022765
S	0.002449	0.061489	2.533465
C	0.540249	1.542189	1.750365
C	0.003349	0.070589	-0.041935
C	0.476949	1.376089	0.344465
C	-0.017751	0.007589	-1.463335
C	0.414649	1.196189	-2.084135
S	0.838249	2.369589	-0.942935
C	0.506149	1.433689	-3.537235
O	0.189649	0.555489	-4.327535
O	0.948049	2.638389	-3.981635
F	-0.395151	-1.040711	-2.223535
C	1.080249	2.971989	-5.312235
H	1.458749	4.010189	-5.347535
H	0.109849	2.910889	-5.852835
H	1.791549	2.298089	-5.839135
C	-0.307251	-2.218111	1.022765
H	0.757749	-2.227111	1.201965
H	-0.452051	-2.902011	1.845965
H	-0.151151	-2.742511	0.091565
H	0.854949	2.406689	2.344265
$end

$rem
JOBTYPE		SP
EXCHANGE	HF
CORRELATION	pRIMP2
BASIS		cc-pvtz
METHOD		rimp2
AUX_BASIS	rimp2-cc-pvtz
SOLVENT_METHOD	PCM
PURECART	11111
SYMMETRY	false
MEM_TOTAL	110000
SCF_CONVERGENCE = 6
THRESH=10
GUI = 2
$end

$solvent
dielectric 4.90
$end
--------------------------------------------------------------

             Standard Nuclear Orientation (Angstroms)
    I     Atom           X                Y                Z
 ----------------------------------------------------------------
    1      C      -0.3072510000    -0.7829110000     1.0227650000
    2      S       0.0024490000     0.0614890000     2.5334650000
    3      C       0.5402490000     1.5421890000     1.7503650000
    4      C       0.0033490000     0.0705890000    -0.0419350000
    5      C       0.4769490000     1.3760890000     0.3444650000
    6      C      -0.0177510000     0.0075890000    -1.4633350000
    7      C       0.4146490000     1.1961890000    -2.0841350000
    8      S       0.8382490000     2.3695890000    -0.9429350000
    9      C       0.5061490000     1.4336890000    -3.5372350000
   10      O       0.1896490000     0.5554890000    -4.3275350000
   11      O       0.9480490000     2.6383890000    -3.9816350000
   12      F      -0.3951510000    -1.0407110000    -2.2235350000
   13      C       1.0802490000     2.9719890000    -5.3122350000
   14      H       1.4587490000     4.0101890000    -5.3475350000
   15      H       0.1098490000     2.9108890000    -5.8528350000
   16      H       1.7915490000     2.2980890000    -5.8391350000
   17      C      -0.3072510000    -2.2181110000     1.0227650000
   18      H       0.7577490000    -2.2271110000     1.2019650000
   19      H      -0.4520510000    -2.9020110000     1.8459650000
   20      H      -0.1511510000    -2.7425110000     0.0915650000
   21      H       0.8549490000     2.4066890000     2.3442650000
 ----------------------------------------------------------------

   11   -1389.2514137678      4.30e-07  Convergence criterion met
 Total energy in the final basis set =    -1389.2514137678
        RIMP2         total energy =     -1391.7546230973 a.u.

                    Orbital Energies (a.u.)
 --------------------------------------------------------------

 Alpha MOs
 -- Occupied --
-92.0045 -91.9879 -26.3343 -20.6092 -20.5450 -11.4059 -11.3768 -11.3202
-11.2916 -11.2871 -11.2871 -11.2759 -11.2673 -11.2367  -9.0036  -8.9921
 -6.6845  -6.6839  -6.6833  -6.6735  -6.6728  -6.6714  -1.6472  -1.4686
 -1.3634  -1.2269  -1.1484  -1.0677  -1.0273  -1.0057  -0.9675  -0.9102
 -0.8626  -0.7960  -0.7844  -0.7662  -0.7261  -0.7149  -0.6962  -0.6771
 -0.6761  -0.6671  -0.6102  -0.6028  -0.5997  -0.5857  -0.5833  -0.5593
 -0.5316  -0.5276  -0.5187  -0.4944  -0.4782  -0.4613  -0.4582  -0.4562
 -0.3907  -0.3470  -0.2719

          Ground-State Mulliken Net Atomic Charges

     Atom                 Charge (a.u.)
  ----------------------------------------
      1 C                     0.068534
      2 S                     0.080378
      3 C                    -0.274617
      4 C                    -0.121658
      5 C                    -0.010191
      6 C                     0.379079
      7 C                    -0.168154
      8 S                     0.025351
      9 C                     0.458778
     10 O                    -0.458665
     11 O                    -0.299147
     12 F                    -0.211957
     13 C                    -0.054796
     14 H                     0.115901
     15 H                     0.083674
     16 H                     0.083331
     17 C                    -0.374950
     18 H                     0.154910
     19 H                     0.167528
     20 H                     0.147197
     21 H                     0.209476
  ----------------------------------------
  Sum of atomic charges =     0.000000

                    Cartesian Multipole Moments
 -----------------------------------------------------------------
    Charge (ESU x 10^10)
                -0.0000
    Dipole Moment (Debye)
         X       1.5045      Y       0.0744      Z       3.8339
       Tot       4.1192
    Quadrupole Moments (Debye-Ang)
        XX     -96.0024     XY       1.5698     YY     -82.9509
        XZ      -3.0535     YZ     -12.3189     ZZ     -96.6986

 Total job time:  55.00s(wall), 1938.18s(cpu)
        *  Thank you very much for using Q-Chem.  Have a nice day.  *
