 Q-Chem 5.4, Q-Chem, Inc., Pleasanton, CA (2021)
 Q-Chem 5.4.0 for Intel X86 EM64T Linux

User input:
--------------------------------------------------------------
$molecule
0 1
C	-0.154076	-0.823218	1.021216
S	0.004324	0.062182	2.531916
C	0.276824	1.613782	1.748816
C	0.003624	0.071182	-0.043484
C	0.243324	1.439182	0.342916
C	-0.006276	0.005582	-1.464884
C	0.213224	1.251182	-2.085684
S	0.426524	2.480282	-0.944484
C	0.262024	1.500982	-3.538784
O	0.102824	0.581182	-4.329084
O	0.488024	2.764082	-3.983184
F	-0.195876	-1.092318	-2.225084
C	0.560324	3.115582	-5.313784
H	0.752724	4.203682	-5.349084
H	-0.384776	2.886882	-5.854384
H	1.377824	2.575482	-5.840684
C	-0.154076	-2.258418	1.021216
H	-0.975876	-2.267418	1.721816
H	-0.691676	-2.942318	0.381116
H	0.458924	-2.782818	1.739316
H	0.436624	2.519782	2.342716
$end

$rem
JOBTYPE		SP
EXCHANGE	HF
CORRELATION	pRIMP2
BASIS		cc-pvtz
METHOD		rimp2
AUX_BASIS	rimp2-cc-pvtz
SOLVENT_METHOD	PCM
PURECART	11111
SYMMETRY	false
MEM_TOTAL	110000
SCF_CONVERGENCE = 6
THRESH=10
GUI = 2
$end

$solvent
dielectric 4.90
$end
--------------------------------------------------------------

             Standard Nuclear Orientation (Angstroms)
    I     Atom           X                Y                Z
 ----------------------------------------------------------------
    1      C      -0.1540760000    -0.8232180000     1.0212160000
    2      S       0.0043240000     0.0621820000     2.5319160000
    3      C       0.2768240000     1.6137820000     1.7488160000
    4      C       0.0036240000     0.0711820000    -0.0434840000
    5      C       0.2433240000     1.4391820000     0.3429160000
    6      C      -0.0062760000     0.0055820000    -1.4648840000
    7      C       0.2132240000     1.2511820000    -2.0856840000
    8      S       0.4265240000     2.4802820000    -0.9444840000
    9      C       0.2620240000     1.5009820000    -3.5387840000
   10      O       0.1028240000     0.5811820000    -4.3290840000
   11      O       0.4880240000     2.7640820000    -3.9831840000
   12      F      -0.1958760000    -1.0923180000    -2.2250840000
   13      C       0.5603240000     3.1155820000    -5.3137840000
   14      H       0.7527240000     4.2036820000    -5.3490840000
   15      H      -0.3847760000     2.8868820000    -5.8543840000
   16      H       1.3778240000     2.5754820000    -5.8406840000
   17      C      -0.1540760000    -2.2584180000     1.0212160000
   18      H      -0.9758760000    -2.2674180000     1.7218160000
   19      H      -0.6916760000    -2.9423180000     0.3811160000
   20      H       0.4589240000    -2.7828180000     1.7393160000
   21      H       0.4366240000     2.5197820000     2.3427160000
 ----------------------------------------------------------------

   11   -1389.2521062628      4.49e-07  Convergence criterion met
 Total energy in the final basis set =    -1389.2521062628
        RIMP2         total energy =     -1391.7561079316 a.u.

                    Orbital Energies (a.u.)
 --------------------------------------------------------------

 Alpha MOs
 -- Occupied --
-92.0075 -91.9881 -26.3333 -20.6095 -20.5458 -11.4065 -11.3758 -11.3142
-11.2910 -11.2887 -11.2872 -11.2794 -11.2674 -11.2317  -9.0063  -8.9924
 -6.6871  -6.6866  -6.6860  -6.6737  -6.6730  -6.6717  -1.6462  -1.4690
 -1.3639  -1.2261  -1.1467  -1.0658  -1.0286  -1.0058  -0.9677  -0.9108
 -0.8632  -0.7962  -0.7839  -0.7665  -0.7258  -0.7140  -0.6955  -0.6767
 -0.6764  -0.6672  -0.6099  -0.6032  -0.5950  -0.5863  -0.5813  -0.5618
 -0.5392  -0.5251  -0.5105  -0.4887  -0.4791  -0.4619  -0.4587  -0.4569
 -0.3920  -0.3466  -0.2757

          Ground-State Mulliken Net Atomic Charges

     Atom                 Charge (a.u.)
  ----------------------------------------
      1 C                     0.017363
      2 S                     0.078738
      3 C                    -0.260141
      4 C                    -0.067362
      5 C                    -0.017032
      6 C                     0.387947
      7 C                    -0.166990
      8 S                     0.023403
      9 C                     0.459126
     10 O                    -0.457086
     11 O                    -0.298691
     12 F                    -0.213070
     13 C                    -0.054953
     14 H                     0.115994
     15 H                     0.083658
     16 H                     0.083696
     17 C                    -0.372752
     18 H                     0.131696
     19 H                     0.168318
     20 H                     0.146920
     21 H                     0.211217
  ----------------------------------------
  Sum of atomic charges =     0.000000

                    Cartesian Multipole Moments
 -----------------------------------------------------------------
    Charge (ESU x 10^10)
                -0.0000
    Dipole Moment (Debye)
         X      -0.1100      Y       0.5783      Z       4.1203
       Tot       4.1621
    Quadrupole Moments (Debye-Ang)
        XX     -95.8647     XY       3.1982     YY     -82.3208
        XZ      -2.1484     YZ     -13.0860     ZZ     -95.6522

 Total job time:  53.51s(wall), 1946.18s(cpu)
        *  Thank you very much for using Q-Chem.  Have a nice day.  *
