 Q-Chem 5.4, Q-Chem, Inc., Pleasanton, CA (2021)
 Q-Chem 5.4.0 for Intel X86 EM64T Linux

User input:
--------------------------------------------------------------
$molecule
0 1
C	-0.679219	-0.518946	1.025038
S	0.011181	0.057454	2.535738
C	1.217281	1.070954	1.752638
C	0.016481	0.064854	-0.039662
C	1.079381	0.958754	0.346738
C	-0.033319	0.020954	-1.461062
C	0.935581	0.834054	-2.081862
S	1.889081	1.638454	-0.940662
C	1.133481	0.994054	-3.534962
O	0.420281	0.391754	-4.325262
O	2.118581	1.816354	-3.979362
F	-0.884219	-0.698246	-2.221262
C	2.399881	2.039154	-5.309962
H	3.246681	2.748954	-5.345262
H	1.528881	2.471454	-5.850562
H	2.678881	1.099854	-5.836862
C	-0.679219	-1.954146	1.025038
H	-1.056519	-1.963146	0.013138
H	0.106081	-2.638046	0.738838
H	-1.563619	-2.478546	1.355438
H	1.922081	1.662254	2.346538
$end

$rem
JOBTYPE		SP
EXCHANGE	HF
CORRELATION	pRIMP2
BASIS		cc-pvtz
METHOD		rimp2
AUX_BASIS	rimp2-cc-pvtz
SOLVENT_METHOD	PCM
PURECART	11111
SYMMETRY	false
MEM_TOTAL	110000
SCF_CONVERGENCE = 6
THRESH=10
GUI = 2
$end

$solvent
dielectric 4.90
$end
--------------------------------------------------------------

             Standard Nuclear Orientation (Angstroms)
    I     Atom           X                Y                Z
 ----------------------------------------------------------------
    1      C      -0.6792190000    -0.5189460000     1.0250380000
    2      S       0.0111810000     0.0574540000     2.5357380000
    3      C       1.2172810000     1.0709540000     1.7526380000
    4      C       0.0164810000     0.0648540000    -0.0396620000
    5      C       1.0793810000     0.9587540000     0.3467380000
    6      C      -0.0333190000     0.0209540000    -1.4610620000
    7      C       0.9355810000     0.8340540000    -2.0818620000
    8      S       1.8890810000     1.6384540000    -0.9406620000
    9      C       1.1334810000     0.9940540000    -3.5349620000
   10      O       0.4202810000     0.3917540000    -4.3252620000
   11      O       2.1185810000     1.8163540000    -3.9793620000
   12      F      -0.8842190000    -0.6982460000    -2.2212620000
   13      C       2.3998810000     2.0391540000    -5.3099620000
   14      H       3.2466810000     2.7489540000    -5.3452620000
   15      H       1.5288810000     2.4714540000    -5.8505620000
   16      H       2.6788810000     1.0998540000    -5.8368620000
   17      C      -0.6792190000    -1.9541460000     1.0250380000
   18      H      -1.0565190000    -1.9631460000     0.0131380000
   19      H       0.1060810000    -2.6380460000     0.7388380000
   20      H      -1.5636190000    -2.4785460000     1.3554380000
   21      H       1.9220810000     1.6622540000     2.3465380000
 ----------------------------------------------------------------

   11   -1389.2060439879      7.37e-07  Convergence criterion met
 Total energy in the final basis set =    -1389.2060439879
        RIMP2         total energy =     -1391.7268126186 a.u.

                    Orbital Energies (a.u.)
 --------------------------------------------------------------

 Alpha MOs
 -- Occupied --
-92.0016 -91.9984 -26.3346 -20.6137 -20.5532 -11.4129 -11.3750 -11.3066
-11.3032 -11.2941 -11.2894 -11.2819 -11.2756 -11.2175  -9.0022  -9.0012
 -6.6834  -6.6828  -6.6818  -6.6815  -6.6809  -6.6808  -1.6478  -1.4737
 -1.3695  -1.2333  -1.1500  -1.0697  -1.0292  -1.0022  -0.9710  -0.9077
 -0.8665  -0.7967  -0.7882  -0.7710  -0.7288  -0.7165  -0.6975  -0.6800
 -0.6766  -0.6728  -0.6084  -0.6050  -0.6024  -0.5916  -0.5744  -0.5637
 -0.5377  -0.5267  -0.5102  -0.4846  -0.4749  -0.4633  -0.4625  -0.4331
 -0.3921  -0.3434  -0.2892

          Ground-State Mulliken Net Atomic Charges

     Atom                 Charge (a.u.)
  ----------------------------------------
      1 C                    -0.083251
      2 S                     0.098968
      3 C                    -0.189282
      4 C                    -0.044699
      5 C                    -0.027077
      6 C                     0.359609
      7 C                    -0.136501
      8 S                     0.053492
      9 C                     0.456765
     10 O                    -0.445208
     11 O                    -0.297114
     12 F                    -0.211432
     13 C                    -0.054572
     14 H                     0.117024
     15 H                     0.084972
     16 H                     0.084770
     17 C                    -0.363532
     18 H                     0.105570
     19 H                     0.148822
     20 H                     0.129024
     21 H                     0.213654
  ----------------------------------------
  Sum of atomic charges =     0.000000

                    Cartesian Multipole Moments
 -----------------------------------------------------------------
    Charge (ESU x 10^10)
                -0.0000
    Dipole Moment (Debye)
         X       3.2976      Y       1.5098      Z       2.3818
       Tot       4.3390
    Quadrupole Moments (Debye-Ang)
        XX     -90.1230     XY       5.9595     YY     -89.1234
        XZ      -7.5005     YZ      -6.3375     ZZ     -95.3754

 Total job time:  55.20s(wall), 2008.62s(cpu)
        *  Thank you very much for using Q-Chem.  Have a nice day.  *
