 Q-Chem 5.4, Q-Chem, Inc., Pleasanton, CA (2021)
 Q-Chem 5.4.0 for Intel X86 EM64T Linux

User input:
--------------------------------------------------------------
$molecule
0 1
C	-0.767984	-0.392188	1.025187
S	0.012016	0.055612	2.535887
C	1.375816	0.844212	1.752787
C	0.018516	0.061912	-0.039513
C	1.220516	0.757612	0.346887
C	-0.038084	0.027312	-1.460913
C	1.057216	0.659812	-2.081713
S	2.135916	1.286512	-0.940513
C	1.279916	0.783012	-3.534813
O	0.473016	0.313712	-4.325113
O	2.392816	1.421812	-3.979213
F	-1.000984	-0.533088	-2.221113
C	2.708516	1.592412	-5.309813
H	3.665716	2.144312	-5.345113
H	1.925816	2.169312	-5.850413
H	2.820216	0.618912	-5.836713
C	-0.767984	-1.827388	1.025187
H	-0.963884	-1.836388	-0.036913
H	0.055116	-2.511288	0.879687
H	-1.696384	-2.351788	1.196987
H	2.172616	1.304112	2.346687
$end

$rem
JOBTYPE		SP
EXCHANGE	HF
CORRELATION	pRIMP2
BASIS		cc-pvtz
METHOD		rimp2
AUX_BASIS	rimp2-cc-pvtz
SOLVENT_METHOD	PCM
PURECART	11111
SYMMETRY	false
MEM_TOTAL	110000
SCF_CONVERGENCE = 6
THRESH=10
GUI = 2
$end

$solvent
dielectric 4.90
$end
--------------------------------------------------------------

             Standard Nuclear Orientation (Angstroms)
    I     Atom           X                Y                Z
 ----------------------------------------------------------------
    1      C      -0.7679840000    -0.3921880000     1.0251870000
    2      S       0.0120160000     0.0556120000     2.5358870000
    3      C       1.3758160000     0.8442120000     1.7527870000
    4      C       0.0185160000     0.0619120000    -0.0395130000
    5      C       1.2205160000     0.7576120000     0.3468870000
    6      C      -0.0380840000     0.0273120000    -1.4609130000
    7      C       1.0572160000     0.6598120000    -2.0817130000
    8      S       2.1359160000     1.2865120000    -0.9405130000
    9      C       1.2799160000     0.7830120000    -3.5348130000
   10      O       0.4730160000     0.3137120000    -4.3251130000
   11      O       2.3928160000     1.4218120000    -3.9792130000
   12      F      -1.0009840000    -0.5330880000    -2.2211130000
   13      C       2.7085160000     1.5924120000    -5.3098130000
   14      H       3.6657160000     2.1443120000    -5.3451130000
   15      H       1.9258160000     2.1693120000    -5.8504130000
   16      H       2.8202160000     0.6189120000    -5.8367130000
   17      C      -0.7679840000    -1.8273880000     1.0251870000
   18      H      -0.9638840000    -1.8363880000    -0.0369130000
   19      H       0.0551160000    -2.5112880000     0.8796870000
   20      H      -1.6963840000    -2.3517880000     1.1969870000
   21      H       2.1726160000     1.3041120000     2.3466870000
 ----------------------------------------------------------------

   11   -1389.1830775139      8.67e-07  Convergence criterion met
 Total energy in the final basis set =    -1389.1830775139
        RIMP2         total energy =     -1391.7076804638 a.u.

                    Orbital Energies (a.u.)
 --------------------------------------------------------------

 Alpha MOs
 -- Occupied --
-92.0022 -92.0020 -26.3345 -20.6150 -20.5556 -11.4149 -11.3742 -11.3168
-11.3082 -11.2950 -11.2901 -11.2854 -11.2612 -11.2144  -9.0058  -9.0018
 -6.6870  -6.6864  -6.6851  -6.6824  -6.6814  -6.6813  -1.6478  -1.4752
 -1.3713  -1.2366  -1.1537  -1.0726  -1.0307  -1.0008  -0.9723  -0.9056
 -0.8678  -0.7975  -0.7894  -0.7731  -0.7301  -0.7168  -0.6986  -0.6811
 -0.6765  -0.6745  -0.6102  -0.6061  -0.6050  -0.5906  -0.5765  -0.5629
 -0.5344  -0.5269  -0.5122  -0.4865  -0.4719  -0.4645  -0.4633  -0.4258
 -0.3898  -0.3412  -0.2948

          Ground-State Mulliken Net Atomic Charges

     Atom                 Charge (a.u.)
  ----------------------------------------
      1 C                    -0.138665
      2 S                     0.105615
      3 C                    -0.162713
      4 C                    -0.011828
      5 C                    -0.034906
      6 C                     0.350316
      7 C                    -0.125266
      8 S                     0.064468
      9 C                     0.456645
     10 O                    -0.441135
     11 O                    -0.296586
     12 F                    -0.211103
     13 C                    -0.054702
     14 H                     0.117337
     15 H                     0.085526
     16 H                     0.085125
     17 C                    -0.359871
     18 H                     0.099395
     19 H                     0.137080
     20 H                     0.119358
     21 H                     0.215912
  ----------------------------------------
  Sum of atomic charges =     0.000000

                    Cartesian Multipole Moments
 -----------------------------------------------------------------
    Charge (ESU x 10^10)
                -0.0000
    Dipole Moment (Debye)
         X       4.5473      Y       1.3831      Z       2.1677
       Tot       5.2240
    Quadrupole Moments (Debye-Ang)
        XX     -88.5364     XY       5.3580     YY     -91.2993
        XZ      -7.8640     YZ      -4.7847     ZZ     -94.3228

 Total job time:  53.35s(wall), 1949.25s(cpu)
        *  Thank you very much for using Q-Chem.  Have a nice day.  *
