 Q-Chem 5.4, Q-Chem, Inc., Pleasanton, CA (2021)
 Q-Chem 5.4.0 for Intel X86 EM64T Linux

User input:
--------------------------------------------------------------
$molecule
0 1
C	-0.080000	-0.833466	1.025081
S	0.000600	0.062334	2.535781
C	0.136800	1.631734	1.752681
C	-0.000900	0.071334	-0.039619
C	0.118700	1.454934	0.346781
C	-0.005000	0.005034	-1.461019
C	0.105100	1.265034	-2.081819
S	0.210500	2.508134	-0.940619
C	0.131900	1.518134	-3.534919
O	0.053500	0.587934	-4.325219
O	0.247000	2.796134	-3.979319
F	-0.098200	-1.105166	-2.221219
C	0.288400	3.152634	-5.309919
H	0.385300	4.253334	-5.345219
H	-0.633100	2.842434	-5.850519
H	1.149900	2.685834	-5.836819
C	-0.080000	-2.268666	1.025081
H	0.452600	-2.277666	0.085581
H	0.644100	-2.952566	1.442681
H	-0.901600	-2.793066	0.559981
H	0.217100	2.548234	2.346581
$end

$rem
JOBTYPE		SP
EXCHANGE	HF
CORRELATION	pRIMP2
BASIS		cc-pvtz
METHOD		rimp2
AUX_BASIS	rimp2-cc-pvtz
SOLVENT_METHOD	PCM
PURECART	11111
SYMMETRY	false
MEM_TOTAL	110000
SCF_CONVERGENCE = 6
THRESH=10
GUI = 2
$end

$solvent
dielectric 4.90
$end
--------------------------------------------------------------

             Standard Nuclear Orientation (Angstroms)
    I     Atom           X                Y                Z
 ----------------------------------------------------------------
    1      C      -0.0800000000    -0.8334660000     1.0250810000
    2      S       0.0006000000     0.0623340000     2.5357810000
    3      C       0.1368000000     1.6317340000     1.7526810000
    4      C      -0.0009000000     0.0713340000    -0.0396190000
    5      C       0.1187000000     1.4549340000     0.3467810000
    6      C      -0.0050000000     0.0050340000    -1.4610190000
    7      C       0.1051000000     1.2650340000    -2.0818190000
    8      S       0.2105000000     2.5081340000    -0.9406190000
    9      C       0.1319000000     1.5181340000    -3.5349190000
   10      O       0.0535000000     0.5879340000    -4.3252190000
   11      O       0.2470000000     2.7961340000    -3.9793190000
   12      F      -0.0982000000    -1.1051660000    -2.2212190000
   13      C       0.2884000000     3.1526340000    -5.3099190000
   14      H       0.3853000000     4.2533340000    -5.3452190000
   15      H      -0.6331000000     2.8424340000    -5.8505190000
   16      H       1.1499000000     2.6858340000    -5.8368190000
   17      C      -0.0800000000    -2.2686660000     1.0250810000
   18      H       0.4526000000    -2.2776660000     0.0855810000
   19      H       0.6441000000    -2.9525660000     1.4426810000
   20      H      -0.9016000000    -2.7930660000     0.5599810000
   21      H       0.2171000000     2.5482340000     2.3465810000
 ----------------------------------------------------------------

   11   -1389.2541989837      4.80e-07  Convergence criterion met
 Total energy in the final basis set =    -1389.2541989837
        RIMP2         total energy =     -1391.7605854982 a.u.

                    Orbital Energies (a.u.)
 --------------------------------------------------------------

 Alpha MOs
 -- Occupied --
-92.0051 -91.9902 -26.3353 -20.6105 -20.5473 -11.4078 -11.3766 -11.3125
-11.2917 -11.2912 -11.2877 -11.2803 -11.2717 -11.2299  -9.0038  -8.9944
 -6.6846  -6.6840  -6.6836  -6.6757  -6.6750  -6.6736  -1.6485  -1.4701
 -1.3651  -1.2275  -1.1455  -1.0681  -1.0267  -1.0065  -0.9683  -0.9116
 -0.8633  -0.7957  -0.7859  -0.7665  -0.7264  -0.7163  -0.6974  -0.6783
 -0.6773  -0.6687  -0.6095  -0.6042  -0.5968  -0.5876  -0.5837  -0.5665
 -0.5428  -0.5244  -0.5047  -0.4826  -0.4744  -0.4641  -0.4600  -0.4561
 -0.3944  -0.3455  -0.2796

          Ground-State Mulliken Net Atomic Charges

     Atom                 Charge (a.u.)
  ----------------------------------------
      1 C                     0.049682
      2 S                     0.082598
      3 C                    -0.261374
      4 C                    -0.097139
      5 C                    -0.011651
      6 C                     0.382002
      7 C                    -0.155843
      8 S                     0.028829
      9 C                     0.458302
     10 O                    -0.455807
     11 O                    -0.298414
     12 F                    -0.214210
     13 C                    -0.055062
     14 H                     0.116320
     15 H                     0.083979
     16 H                     0.083811
     17 C                    -0.377456
     18 H                     0.124993
     19 H                     0.164365
     20 H                     0.142195
     21 H                     0.209880
  ----------------------------------------
  Sum of atomic charges =     0.000000

                    Cartesian Multipole Moments
 -----------------------------------------------------------------
    Charge (ESU x 10^10)
                -0.0000
    Dipole Moment (Debye)
         X       0.5658      Y       0.8431      Z       2.9462
       Tot       3.1163
    Quadrupole Moments (Debye-Ang)
        XX     -96.0159     XY      -0.0488     YY     -82.0697
        XZ      -0.2965     YZ     -10.9347     ZZ     -97.6833

 Total job time:  53.31s(wall), 1927.37s(cpu)
        *  Thank you very much for using Q-Chem.  Have a nice day.  *
