 Q-Chem 5.4, Q-Chem, Inc., Pleasanton, CA (2021)
 Q-Chem 5.4.0 for Intel X86 EM64T Linux

User input:
--------------------------------------------------------------
$molecule
0 1
C	-0.305458	-0.782911	1.025213
S	0.004242	0.061489	2.535913
C	0.542042	1.542189	1.752813
C	0.005142	0.070589	-0.039487
C	0.478742	1.376089	0.346913
C	-0.015958	0.007589	-1.460887
C	0.416442	1.196189	-2.081687
S	0.840042	2.369589	-0.940487
C	0.507942	1.433689	-3.534787
O	0.191442	0.555489	-4.325087
O	0.949842	2.638389	-3.979187
F	-0.393358	-1.040711	-2.221087
C	1.082042	2.971989	-5.309787
H	1.460542	4.010189	-5.345087
H	0.111642	2.910889	-5.850387
H	1.793342	2.298089	-5.836687
C	-0.305458	-2.218111	1.025213
H	0.055942	-2.227111	0.007513
H	0.480142	-2.902011	1.310713
H	-1.195358	-2.742511	0.709813
H	0.856742	2.406689	2.346713
$end

$rem
JOBTYPE		SP
EXCHANGE	HF
CORRELATION	pRIMP2
BASIS		cc-pvtz
METHOD		rimp2
AUX_BASIS	rimp2-cc-pvtz
SOLVENT_METHOD	PCM
PURECART	11111
SYMMETRY	false
MEM_TOTAL	110000
SCF_CONVERGENCE = 6
THRESH=10
GUI = 2
$end

$solvent
dielectric 4.90
$end
--------------------------------------------------------------

             Standard Nuclear Orientation (Angstroms)
    I     Atom           X                Y                Z
 ----------------------------------------------------------------
    1      C      -0.3054580000    -0.7829110000     1.0252130000
    2      S       0.0042420000     0.0614890000     2.5359130000
    3      C       0.5420420000     1.5421890000     1.7528130000
    4      C       0.0051420000     0.0705890000    -0.0394870000
    5      C       0.4787420000     1.3760890000     0.3469130000
    6      C      -0.0159580000     0.0075890000    -1.4608870000
    7      C       0.4164420000     1.1961890000    -2.0816870000
    8      S       0.8400420000     2.3695890000    -0.9404870000
    9      C       0.5079420000     1.4336890000    -3.5347870000
   10      O       0.1914420000     0.5554890000    -4.3250870000
   11      O       0.9498420000     2.6383890000    -3.9791870000
   12      F      -0.3933580000    -1.0407110000    -2.2210870000
   13      C       1.0820420000     2.9719890000    -5.3097870000
   14      H       1.4605420000     4.0101890000    -5.3450870000
   15      H       0.1116420000     2.9108890000    -5.8503870000
   16      H       1.7933420000     2.2980890000    -5.8366870000
   17      C      -0.3054580000    -2.2181110000     1.0252130000
   18      H       0.0559420000    -2.2271110000     0.0075130000
   19      H       0.4801420000    -2.9020110000     1.3107130000
   20      H      -1.1953580000    -2.7425110000     0.7098130000
   21      H       0.8567420000     2.4066890000     2.3467130000
 ----------------------------------------------------------------

   11   -1389.2452818660      5.21e-07  Convergence criterion met
 Total energy in the final basis set =    -1389.2452818660
        RIMP2         total energy =     -1391.7549520346 a.u.

                    Orbital Energies (a.u.)
 --------------------------------------------------------------

 Alpha MOs
 -- Occupied --
-92.0049 -91.9916 -26.3354 -20.6111 -20.5485 -11.4089 -11.3762 -11.3061
-11.2937 -11.2919 -11.2881 -11.2849 -11.2734 -11.2268  -9.0037  -8.9957
 -6.6845  -6.6838  -6.6835  -6.6770  -6.6763  -6.6750  -1.6486  -1.4708
 -1.3660  -1.2285  -1.1461  -1.0682  -1.0271  -1.0055  -0.9689  -0.9108
 -0.8640  -0.7958  -0.7865  -0.7674  -0.7268  -0.7166  -0.6973  -0.6781
 -0.6778  -0.6695  -0.6079  -0.6049  -0.5975  -0.5889  -0.5838  -0.5658
 -0.5415  -0.5251  -0.5052  -0.4823  -0.4687  -0.4651  -0.4606  -0.4555
 -0.3947  -0.3449  -0.2821

          Ground-State Mulliken Net Atomic Charges

     Atom                 Charge (a.u.)
  ----------------------------------------
      1 C                     0.026109
      2 S                     0.087812
      3 C                    -0.249428
      4 C                    -0.089076
      5 C                    -0.011605
      6 C                     0.358470
      7 C                    -0.145651
      8 S                     0.034647
      9 C                     0.456838
     10 O                    -0.453287
     11 O                    -0.298133
     12 F                    -0.212669
     13 C                    -0.054796
     14 H                     0.116435
     15 H                     0.084196
     16 H                     0.083936
     17 C                    -0.367535
     18 H                     0.123283
     19 H                     0.163115
     20 H                     0.137112
     21 H                     0.210228
  ----------------------------------------
  Sum of atomic charges =     0.000000

                    Cartesian Multipole Moments
 -----------------------------------------------------------------
    Charge (ESU x 10^10)
                -0.0000
    Dipole Moment (Debye)
         X       1.2465      Y       1.1092      Z       2.8047
       Tot       3.2635
    Quadrupole Moments (Debye-Ang)
        XX     -94.9971     XY       2.6383     YY     -83.4633
        XZ      -3.0303     YZ     -10.0337     ZZ     -97.2922

 Total job time:  55.24s(wall), 1971.04s(cpu)
        *  Thank you very much for using Q-Chem.  Have a nice day.  *
