 Q-Chem 5.4, Q-Chem, Inc., Pleasanton, CA (2021)
 Q-Chem 5.4.0 for Intel X86 EM64T Linux

User input:
--------------------------------------------------------------
$molecule
0 1
C	-0.154005	-0.823218	1.024554
S	0.004395	0.062182	2.535254
C	0.276895	1.613782	1.752154
C	0.003695	0.071182	-0.040146
C	0.243395	1.439182	0.346254
C	-0.006205	0.005582	-1.461546
C	0.213295	1.251182	-2.082346
S	0.426595	2.480282	-0.941146
C	0.262095	1.500982	-3.535446
O	0.102895	0.581182	-4.325746
O	0.488095	2.764082	-3.979846
F	-0.195805	-1.092318	-2.221746
C	0.560395	3.115582	-5.310446
H	0.752795	4.203682	-5.345746
H	-0.384705	2.886882	-5.851046
H	1.377895	2.575482	-5.837346
C	-0.154005	-2.258418	1.024554
H	-0.854605	-2.267418	0.202754
H	0.486095	-2.942318	0.486954
H	-0.872105	-2.782818	1.637554
H	0.436695	2.519782	2.346054
$end

$rem
JOBTYPE		SP
EXCHANGE	HF
CORRELATION	pRIMP2
BASIS		cc-pvtz
METHOD		rimp2
AUX_BASIS	rimp2-cc-pvtz
SOLVENT_METHOD	PCM
PURECART	11111
SYMMETRY	false
MEM_TOTAL	110000
SCF_CONVERGENCE = 6
THRESH=10
GUI = 2
$end

$solvent
dielectric 4.90
$end
--------------------------------------------------------------

             Standard Nuclear Orientation (Angstroms)
    I     Atom           X                Y                Z
 ----------------------------------------------------------------
    1      C      -0.1540050000    -0.8232180000     1.0245540000
    2      S       0.0043950000     0.0621820000     2.5352540000
    3      C       0.2768950000     1.6137820000     1.7521540000
    4      C       0.0036950000     0.0711820000    -0.0401460000
    5      C       0.2433950000     1.4391820000     0.3462540000
    6      C      -0.0062050000     0.0055820000    -1.4615460000
    7      C       0.2132950000     1.2511820000    -2.0823460000
    8      S       0.4265950000     2.4802820000    -0.9411460000
    9      C       0.2620950000     1.5009820000    -3.5354460000
   10      O       0.1028950000     0.5811820000    -4.3257460000
   11      O       0.4880950000     2.7640820000    -3.9798460000
   12      F      -0.1958050000    -1.0923180000    -2.2217460000
   13      C       0.5603950000     3.1155820000    -5.3104460000
   14      H       0.7527950000     4.2036820000    -5.3457460000
   15      H      -0.3847050000     2.8868820000    -5.8510460000
   16      H       1.3778950000     2.5754820000    -5.8373460000
   17      C      -0.1540050000    -2.2584180000     1.0245540000
   18      H      -0.8546050000    -2.2674180000     0.2027540000
   19      H       0.4860950000    -2.9423180000     0.4869540000
   20      H      -0.8721050000    -2.7828180000     1.6375540000
   21      H       0.4366950000     2.5197820000     2.3460540000
 ----------------------------------------------------------------

   11   -1389.2533773451      4.78e-07  Convergence criterion met
 Total energy in the final basis set =    -1389.2533773451
        RIMP2         total energy =     -1391.7596403064 a.u.

                    Orbital Energies (a.u.)
 --------------------------------------------------------------

 Alpha MOs
 -- Occupied --
-92.0053 -91.9899 -26.3349 -20.6102 -20.5469 -11.4075 -11.3765 -11.3121
-11.2918 -11.2906 -11.2876 -11.2803 -11.2709 -11.2302  -9.0041  -8.9941
 -6.6848  -6.6842  -6.6838  -6.6754  -6.6747  -6.6734  -1.6480  -1.4698
 -1.3648  -1.2272  -1.1454  -1.0675  -1.0269  -1.0065  -0.9681  -0.9117
 -0.8632  -0.7956  -0.7855  -0.7665  -0.7262  -0.7158  -0.6973  -0.6785
 -0.6771  -0.6683  -0.6092  -0.6040  -0.5954  -0.5873  -0.5800  -0.5662
 -0.5435  -0.5241  -0.5062  -0.4847  -0.4790  -0.4616  -0.4595  -0.4556
 -0.3930  -0.3457  -0.2782

          Ground-State Mulliken Net Atomic Charges

     Atom                 Charge (a.u.)
  ----------------------------------------
      1 C                     0.046003
      2 S                     0.083819
      3 C                    -0.262070
      4 C                    -0.105026
      5 C                    -0.010262
      6 C                     0.386271
      7 C                    -0.160868
      8 S                     0.028124
      9 C                     0.459053
     10 O                    -0.456185
     11 O                    -0.298482
     12 F                    -0.214278
     13 C                    -0.054934
     14 H                     0.116211
     15 H                     0.083815
     16 H                     0.083816
     17 C                    -0.370751
     18 H                     0.127723
     19 H                     0.159386
     20 H                     0.148792
     21 H                     0.209845
  ----------------------------------------
  Sum of atomic charges =     0.000000

                    Cartesian Multipole Moments
 -----------------------------------------------------------------
    Charge (ESU x 10^10)
                 0.0000
    Dipole Moment (Debye)
         X      -0.0082      Y       0.7758      Z       3.0489
       Tot       3.1461
    Quadrupole Moments (Debye-Ang)
        XX     -95.7304     XY       2.9147     YY     -82.3098
        XZ      -2.6374     YZ     -10.8236     ZZ     -97.5314

 Total job time:  54.36s(wall), 1936.81s(cpu)
        *  Thank you very much for using Q-Chem.  Have a nice day.  *
