 Q-Chem 5.4, Q-Chem, Inc., Pleasanton, CA (2021)
 Q-Chem 5.4.0 for Intel X86 EM64T Linux

User input:
--------------------------------------------------------------
$molecule
0 1
C	-0.076929	-0.833466	1.021878
S	0.003671	0.062334	2.532578
C	0.139871	1.631734	1.749478
C	0.002171	0.071334	-0.042822
C	0.121771	1.454934	0.343578
C	-0.001929	0.005034	-1.464222
C	0.108171	1.265034	-2.085022
S	0.213571	2.508134	-0.943822
C	0.134971	1.518134	-3.538122
O	0.056571	0.587934	-4.328422
O	0.250071	2.796134	-3.982522
F	-0.095129	-1.105166	-2.224422
C	0.291471	3.152634	-5.313122
H	0.388371	4.253334	-5.348422
H	-0.630029	2.842434	-5.853722
H	1.152971	2.685834	-5.840022
C	-0.076929	-2.268666	1.021878
H	-1.088829	-2.277666	1.399178
H	-0.363129	-2.952566	0.236578
H	0.253471	-2.793066	1.906278
H	0.220171	2.548234	2.343378
$end

$rem
JOBTYPE		SP
EXCHANGE	HF
CORRELATION	pRIMP2
BASIS		cc-pvtz
METHOD		rimp2
AUX_BASIS	rimp2-cc-pvtz
SOLVENT_METHOD	PCM
PURECART	11111
SYMMETRY	false
MEM_TOTAL	110000
SCF_CONVERGENCE = 6
THRESH=10
GUI = 2
$end

$solvent
dielectric 4.90
$end
--------------------------------------------------------------

             Standard Nuclear Orientation (Angstroms)
    I     Atom           X                Y                Z
 ----------------------------------------------------------------
    1      C      -0.0769290000    -0.8334660000     1.0218780000
    2      S       0.0036710000     0.0623340000     2.5325780000
    3      C       0.1398710000     1.6317340000     1.7494780000
    4      C       0.0021710000     0.0713340000    -0.0428220000
    5      C       0.1217710000     1.4549340000     0.3435780000
    6      C      -0.0019290000     0.0050340000    -1.4642220000
    7      C       0.1081710000     1.2650340000    -2.0850220000
    8      S       0.2135710000     2.5081340000    -0.9438220000
    9      C       0.1349710000     1.5181340000    -3.5381220000
   10      O       0.0565710000     0.5879340000    -4.3284220000
   11      O       0.2500710000     2.7961340000    -3.9825220000
   12      F      -0.0951290000    -1.1051660000    -2.2244220000
   13      C       0.2914710000     3.1526340000    -5.3131220000
   14      H       0.3883710000     4.2533340000    -5.3484220000
   15      H      -0.6300290000     2.8424340000    -5.8537220000
   16      H       1.1529710000     2.6858340000    -5.8400220000
   17      C      -0.0769290000    -2.2686660000     1.0218780000
   18      H      -1.0888290000    -2.2776660000     1.3991780000
   19      H      -0.3631290000    -2.9525660000     0.2365780000
   20      H       0.2534710000    -2.7930660000     1.9062780000
   21      H       0.2201710000     2.5482340000     2.3433780000
 ----------------------------------------------------------------

   11   -1389.2553263288      4.20e-07  Convergence criterion met
 Total energy in the final basis set =    -1389.2553263288
        RIMP2         total energy =     -1391.7571438971 a.u.

                    Orbital Energies (a.u.)
 --------------------------------------------------------------

 Alpha MOs
 -- Occupied --
-92.0067 -91.9872 -26.3338 -20.6089 -20.5447 -11.4055 -11.3763 -11.3198
-11.2909 -11.2869 -11.2864 -11.2752 -11.2660 -11.2352  -9.0055  -8.9914
 -6.6864  -6.6858  -6.6852  -6.6728  -6.6721  -6.6707  -1.6467  -1.4684
 -1.3631  -1.2257  -1.1468  -1.0667  -1.0277  -1.0062  -0.9673  -0.9112
 -0.8624  -0.7959  -0.7838  -0.7657  -0.7256  -0.7143  -0.6961  -0.6774
 -0.6759  -0.6666  -0.6100  -0.6026  -0.5945  -0.5854  -0.5839  -0.5593
 -0.5348  -0.5272  -0.5171  -0.4932  -0.4783  -0.4618  -0.4583  -0.4561
 -0.3907  -0.3469  -0.2724

          Ground-State Mulliken Net Atomic Charges

     Atom                 Charge (a.u.)
  ----------------------------------------
      1 C                     0.035702
      2 S                     0.078318
      3 C                    -0.272831
      4 C                    -0.086671
      5 C                    -0.015820
      6 C                     0.401809
      7 C                    -0.172071
      8 S                     0.020970
      9 C                     0.460079
     10 O                    -0.459485
     11 O                    -0.299059
     12 F                    -0.213993
     13 C                    -0.055108
     14 H                     0.115890
     15 H                     0.083502
     16 H                     0.083491
     17 C                    -0.381536
     18 H                     0.145112
     19 H                     0.171693
     20 H                     0.149378
     21 H                     0.210631
  ----------------------------------------
  Sum of atomic charges =     0.000000

                    Cartesian Multipole Moments
 -----------------------------------------------------------------
    Charge (ESU x 10^10)
                -0.0000
    Dipole Moment (Debye)
         X      -0.5252      Y       0.1767      Z       4.0460
       Tot       4.0838
    Quadrupole Moments (Debye-Ang)
        XX     -96.3565     XY       2.7163     YY     -81.8302
        XZ      -1.5120     YZ     -12.9965     ZZ     -96.3867

 Total job time:  54.64s(wall), 1962.73s(cpu)
        *  Thank you very much for using Q-Chem.  Have a nice day.  *
