 Q-Chem 5.4, Q-Chem, Inc., Pleasanton, CA (2021)
 Q-Chem 5.4.0 for Intel X86 EM64T Linux

User input:
--------------------------------------------------------------
$molecule
0 1
C	-0.155050	-0.823218	1.025187
S	0.003350	0.062182	2.535887
C	0.275850	1.613782	1.752787
C	0.002650	0.071182	-0.039513
C	0.242350	1.439182	0.346887
C	-0.007250	0.005582	-1.460913
C	0.212250	1.251182	-2.081713
S	0.425550	2.480282	-0.940513
C	0.261050	1.500982	-3.534813
O	0.101850	0.581182	-4.325113
O	0.487050	2.764082	-3.979213
F	-0.196850	-1.092318	-2.221113
C	0.559350	3.115582	-5.309813
H	0.751750	4.203682	-5.345113
H	-0.385750	2.886882	-5.850413
H	1.376850	2.575482	-5.836713
C	-0.155050	-2.258418	1.025187
H	-0.350950	-2.267418	-0.036913
H	0.668050	-2.942318	0.879687
H	-1.083450	-2.782818	1.196987
H	0.435650	2.519782	2.346687
$end

$rem
JOBTYPE		SP
EXCHANGE	HF
CORRELATION	pRIMP2
BASIS		cc-pvtz
METHOD		rimp2
AUX_BASIS	rimp2-cc-pvtz
SOLVENT_METHOD	PCM
PURECART	11111
SYMMETRY	false
MEM_TOTAL	110000
SCF_CONVERGENCE = 6
THRESH=10
GUI = 2
$end

$solvent
dielectric 4.90
$end
--------------------------------------------------------------

             Standard Nuclear Orientation (Angstroms)
    I     Atom           X                Y                Z
 ----------------------------------------------------------------
    1      C      -0.1550500000    -0.8232180000     1.0251870000
    2      S       0.0033500000     0.0621820000     2.5358870000
    3      C       0.2758500000     1.6137820000     1.7527870000
    4      C       0.0026500000     0.0711820000    -0.0395130000
    5      C       0.2423500000     1.4391820000     0.3468870000
    6      C      -0.0072500000     0.0055820000    -1.4609130000
    7      C       0.2122500000     1.2511820000    -2.0817130000
    8      S       0.4255500000     2.4802820000    -0.9405130000
    9      C       0.2610500000     1.5009820000    -3.5348130000
   10      O       0.1018500000     0.5811820000    -4.3251130000
   11      O       0.4870500000     2.7640820000    -3.9792130000
   12      F      -0.1968500000    -1.0923180000    -2.2211130000
   13      C       0.5593500000     3.1155820000    -5.3098130000
   14      H       0.7517500000     4.2036820000    -5.3451130000
   15      H      -0.3857500000     2.8868820000    -5.8504130000
   16      H       1.3768500000     2.5754820000    -5.8367130000
   17      C      -0.1550500000    -2.2584180000     1.0251870000
   18      H      -0.3509500000    -2.2674180000    -0.0369130000
   19      H       0.6680500000    -2.9423180000     0.8796870000
   20      H      -1.0834500000    -2.7828180000     1.1969870000
   21      H       0.4356500000     2.5197820000     2.3466870000
 ----------------------------------------------------------------

   11   -1389.2526033914      5.08e-07  Convergence criterion met
 Total energy in the final basis set =    -1389.2526033914
        RIMP2         total energy =     -1391.7604476493 a.u.

                    Orbital Energies (a.u.)
 --------------------------------------------------------------

 Alpha MOs
 -- Occupied --
-92.0036 -91.9911 -26.3356 -20.6111 -20.5485 -11.4088 -11.3766 -11.3072
-11.2935 -11.2916 -11.2881 -11.2847 -11.2744 -11.2271  -9.0026  -8.9953
 -6.6833  -6.6827  -6.6824  -6.6765  -6.6759  -6.6745  -1.6489  -1.4708
 -1.3660  -1.2282  -1.1451  -1.0678  -1.0272  -1.0062  -0.9688  -0.9116
 -0.8639  -0.7960  -0.7867  -0.7674  -0.7269  -0.7167  -0.6974  -0.6784
 -0.6778  -0.6695  -0.6083  -0.6050  -0.5979  -0.5885  -0.5777  -0.5699
 -0.5445  -0.5249  -0.5050  -0.4814  -0.4724  -0.4626  -0.4606  -0.4521
 -0.3975  -0.3452  -0.2829

          Ground-State Mulliken Net Atomic Charges

     Atom                 Charge (a.u.)
  ----------------------------------------
      1 C                     0.038133
      2 S                     0.082291
      3 C                    -0.249750
      4 C                    -0.101474
      5 C                    -0.011019
      6 C                     0.377277
      7 C                    -0.147551
      8 S                     0.031348
      9 C                     0.458131
     10 O                    -0.453611
     11 O                    -0.298049
     12 F                    -0.214161
     13 C                    -0.054943
     14 H                     0.116469
     15 H                     0.084098
     16 H                     0.084048
     17 C                    -0.360518
     18 H                     0.113887
     19 H                     0.152293
     20 H                     0.142521
     21 H                     0.210582
  ----------------------------------------
  Sum of atomic charges =     0.000000

                    Cartesian Multipole Moments
 -----------------------------------------------------------------
    Charge (ESU x 10^10)
                -0.0000
    Dipole Moment (Debye)
         X       0.3810      Y       1.1858      Z       2.7526
       Tot       3.0213
    Quadrupole Moments (Debye-Ang)
        XX     -95.5362     XY       2.0439     YY     -82.4350
        XZ      -2.0364     YZ     -10.3567     ZZ     -97.5525

 Total job time:  55.41s(wall), 1949.88s(cpu)
        *  Thank you very much for using Q-Chem.  Have a nice day.  *
