 Q-Chem 5.4, Q-Chem, Inc., Pleasanton, CA (2021)
 Q-Chem 5.4.0 for Intel X86 EM64T Linux

User input:
--------------------------------------------------------------
$molecule
0 1
C	-0.157413	-0.823218	1.021287
S	0.000987	0.062182	2.531987
C	0.273487	1.613782	1.748887
C	0.000287	0.071182	-0.043413
C	0.239987	1.439182	0.342987
C	-0.009613	0.005582	-1.464813
C	0.209887	1.251182	-2.085613
S	0.423187	2.480282	-0.944413
C	0.258687	1.500982	-3.538713
O	0.099487	0.581182	-4.329013
O	0.484687	2.764082	-3.983113
F	-0.199213	-1.092318	-2.225013
C	0.556987	3.115582	-5.313713
H	0.749387	4.203682	-5.349013
H	-0.388113	2.886882	-5.854313
H	1.374487	2.575482	-5.840613
C	-0.157413	-2.258418	1.021287
H	0.543187	-2.267418	1.843087
H	-0.797513	-2.942318	1.558887
H	0.560687	-2.782818	0.408287
H	0.433287	2.519782	2.342787
$end

$rem
JOBTYPE		SP
EXCHANGE	HF
CORRELATION	pRIMP2
BASIS		cc-pvtz
METHOD		rimp2
AUX_BASIS	rimp2-cc-pvtz
SOLVENT_METHOD	PCM
PURECART	11111
SYMMETRY	false
MEM_TOTAL	110000
SCF_CONVERGENCE = 6
THRESH=10
GUI = 2
$end

$solvent
dielectric 4.90
$end
--------------------------------------------------------------

             Standard Nuclear Orientation (Angstroms)
    I     Atom           X                Y                Z
 ----------------------------------------------------------------
    1      C      -0.1574130000    -0.8232180000     1.0212870000
    2      S       0.0009870000     0.0621820000     2.5319870000
    3      C       0.2734870000     1.6137820000     1.7488870000
    4      C       0.0002870000     0.0711820000    -0.0434130000
    5      C       0.2399870000     1.4391820000     0.3429870000
    6      C      -0.0096130000     0.0055820000    -1.4648130000
    7      C       0.2098870000     1.2511820000    -2.0856130000
    8      S       0.4231870000     2.4802820000    -0.9444130000
    9      C       0.2586870000     1.5009820000    -3.5387130000
   10      O       0.0994870000     0.5811820000    -4.3290130000
   11      O       0.4846870000     2.7640820000    -3.9831130000
   12      F      -0.1992130000    -1.0923180000    -2.2250130000
   13      C       0.5569870000     3.1155820000    -5.3137130000
   14      H       0.7493870000     4.2036820000    -5.3490130000
   15      H      -0.3881130000     2.8868820000    -5.8543130000
   16      H       1.3744870000     2.5754820000    -5.8406130000
   17      C      -0.1574130000    -2.2584180000     1.0212870000
   18      H       0.5431870000    -2.2674180000     1.8430870000
   19      H      -0.7975130000    -2.9423180000     1.5588870000
   20      H       0.5606870000    -2.7828180000     0.4082870000
   21      H       0.4332870000     2.5197820000     2.3427870000
 ----------------------------------------------------------------

   11   -1389.2521383333      4.53e-07  Convergence criterion met
 Total energy in the final basis set =    -1389.2521383333
        RIMP2         total energy =     -1391.7565614033 a.u.

                    Orbital Energies (a.u.)
 --------------------------------------------------------------

 Alpha MOs
 -- Occupied --
-92.0061 -91.9887 -26.3333 -20.6099 -20.5465 -11.4070 -11.3759 -11.3129
-11.2910 -11.2899 -11.2874 -11.2807 -11.2691 -11.2308  -9.0051  -8.9929
 -6.6859  -6.6853  -6.6848  -6.6742  -6.6735  -6.6722  -1.6462  -1.4695
 -1.3644  -1.2267  -1.1471  -1.0658  -1.0290  -1.0055  -0.9680  -0.9101
 -0.8636  -0.7964  -0.7841  -0.7671  -0.7261  -0.7141  -0.6956  -0.6767
 -0.6764  -0.6675  -0.6096  -0.6036  -0.5982  -0.5866  -0.5782  -0.5636
 -0.5421  -0.5247  -0.5085  -0.4865  -0.4791  -0.4611  -0.4587  -0.4566
 -0.3942  -0.3462  -0.2774

          Ground-State Mulliken Net Atomic Charges

     Atom                 Charge (a.u.)
  ----------------------------------------
      1 C                     0.049849
      2 S                     0.080109
      3 C                    -0.261362
      4 C                    -0.099272
      5 C                    -0.013783
      6 C                     0.394902
      7 C                    -0.168031
      8 S                     0.025570
      9 C                     0.459817
     10 O                    -0.455953
     11 O                    -0.298542
     12 F                    -0.212988
     13 C                    -0.054918
     14 H                     0.116088
     15 H                     0.083867
     16 H                     0.083734
     17 C                    -0.376072
     18 H                     0.130617
     19 H                     0.158426
     20 H                     0.146920
     21 H                     0.211025
  ----------------------------------------
  Sum of atomic charges =     0.000000

                    Cartesian Multipole Moments
 -----------------------------------------------------------------
    Charge (ESU x 10^10)
                -0.0000
    Dipole Moment (Debye)
         X       0.9269      Y       0.7205      Z       4.0933
       Tot       4.2584
    Quadrupole Moments (Debye-Ang)
        XX     -96.0499     XY       0.6684     YY     -82.4396
        XZ      -1.7845     YZ     -13.4069     ZZ     -95.4207

 Total job time:  54.03s(wall), 1945.61s(cpu)
        *  Thank you very much for using Q-Chem.  Have a nice day.  *
