 Q-Chem 5.4, Q-Chem, Inc., Pleasanton, CA (2021)
 Q-Chem 5.4.0 for Intel X86 EM64T Linux

User input:
--------------------------------------------------------------
$molecule
0 1
C	-0.769206	-0.392188	1.025213
S	0.010794	0.055612	2.535913
C	1.374594	0.844212	1.752813
C	0.017294	0.061912	-0.039487
C	1.219294	0.757612	0.346913
C	-0.039306	0.027312	-1.460887
C	1.055994	0.659812	-2.081687
S	2.134694	1.286512	-0.940487
C	1.278694	0.783012	-3.534787
O	0.471794	0.313712	-4.325087
O	2.391594	1.421812	-3.979187
F	-1.002206	-0.533088	-2.221087
C	2.707294	1.592412	-5.309787
H	3.664494	2.144312	-5.345087
H	1.924594	2.169312	-5.850387
H	2.818994	0.618912	-5.836687
C	-0.769206	-1.827388	1.025213
H	-0.407806	-1.836388	0.007513
H	0.016394	-2.511288	1.310713
H	-1.659106	-2.351788	0.709813
H	2.171394	1.304112	2.346713
$end

$rem
JOBTYPE		SP
EXCHANGE	HF
CORRELATION	pRIMP2
BASIS		cc-pvtz
METHOD		rimp2
AUX_BASIS	rimp2-cc-pvtz
SOLVENT_METHOD	PCM
PURECART	11111
SYMMETRY	false
MEM_TOTAL	110000
SCF_CONVERGENCE = 6
THRESH=10
GUI = 2
$end

$solvent
dielectric 4.90
$end
--------------------------------------------------------------

             Standard Nuclear Orientation (Angstroms)
    I     Atom           X                Y                Z
 ----------------------------------------------------------------
    1      C      -0.7692060000    -0.3921880000     1.0252130000
    2      S       0.0107940000     0.0556120000     2.5359130000
    3      C       1.3745940000     0.8442120000     1.7528130000
    4      C       0.0172940000     0.0619120000    -0.0394870000
    5      C       1.2192940000     0.7576120000     0.3469130000
    6      C      -0.0393060000     0.0273120000    -1.4608870000
    7      C       1.0559940000     0.6598120000    -2.0816870000
    8      S       2.1346940000     1.2865120000    -0.9404870000
    9      C       1.2786940000     0.7830120000    -3.5347870000
   10      O       0.4717940000     0.3137120000    -4.3250870000
   11      O       2.3915940000     1.4218120000    -3.9791870000
   12      F      -1.0022060000    -0.5330880000    -2.2210870000
   13      C       2.7072940000     1.5924120000    -5.3097870000
   14      H       3.6644940000     2.1443120000    -5.3450870000
   15      H       1.9245940000     2.1693120000    -5.8503870000
   16      H       2.8189940000     0.6189120000    -5.8366870000
   17      C      -0.7692060000    -1.8273880000     1.0252130000
   18      H      -0.4078060000    -1.8363880000     0.0075130000
   19      H       0.0163940000    -2.5112880000     1.3107130000
   20      H      -1.6591060000    -2.3517880000     0.7098130000
   21      H       2.1713940000     1.3041120000     2.3467130000
 ----------------------------------------------------------------

   11   -1389.1713980057      9.75e-07  Convergence criterion met
 Total energy in the final basis set =    -1389.1713980057
        RIMP2         total energy =     -1391.6988661712 a.u.

                    Orbital Energies (a.u.)
 --------------------------------------------------------------

 Alpha MOs
 -- Occupied --
-92.0058 -92.0023 -26.3340 -20.6149 -20.5555 -11.4147 -11.3733 -11.3145
-11.3081 -11.2943 -11.2900 -11.2829 -11.2632 -11.2128  -9.0058  -9.0050
 -6.6870  -6.6864  -6.6856  -6.6852  -6.6847  -6.6846  -1.6473  -1.4751
 -1.3711  -1.2370  -1.1550  -1.0736  -1.0308  -1.0003  -0.9724  -0.9043
 -0.8676  -0.7972  -0.7891  -0.7731  -0.7300  -0.7167  -0.6986  -0.6810
 -0.6770  -0.6741  -0.6100  -0.6070  -0.6034  -0.5872  -0.5852  -0.5628
 -0.5312  -0.5272  -0.5115  -0.4874  -0.4697  -0.4643  -0.4628  -0.4397
 -0.3818  -0.3384  -0.2922

          Ground-State Mulliken Net Atomic Charges

     Atom                 Charge (a.u.)
  ----------------------------------------
      1 C                    -0.142342
      2 S                     0.114414
      3 C                    -0.173419
      4 C                    -0.000173
      5 C                    -0.034278
      6 C                     0.340140
      7 C                    -0.128870
      8 S                     0.066005
      9 C                     0.456954
     10 O                    -0.441310
     11 O                    -0.296675
     12 F                    -0.212628
     13 C                    -0.054722
     14 H                     0.117307
     15 H                     0.085490
     16 H                     0.085084
     17 C                    -0.359373
     18 H                     0.111229
     19 H                     0.138368
     20 H                     0.112765
     21 H                     0.216033
  ----------------------------------------
  Sum of atomic charges =     0.000000

                    Cartesian Multipole Moments
 -----------------------------------------------------------------
    Charge (ESU x 10^10)
                -0.0000
    Dipole Moment (Debye)
         X       4.7910      Y       1.2996      Z       2.2877
       Tot       5.4659
    Quadrupole Moments (Debye-Ang)
        XX     -89.1519     XY       4.5891     YY     -91.4314
        XZ      -7.3516     YZ      -4.9912     ZZ     -93.9720

 Total job time:  54.33s(wall), 1983.84s(cpu)
        *  Thank you very much for using Q-Chem.  Have a nice day.  *
