 Q-Chem 5.4, Q-Chem, Inc., Pleasanton, CA (2021)
 Q-Chem 5.4.0 for Intel X86 EM64T Linux

User input:
--------------------------------------------------------------
$molecule
0 1
C	-0.445370	-0.717327	1.025213
S	0.006230	0.060473	2.535913
C	0.793030	1.425273	1.752813
C	0.008730	0.069273	-0.039487
C	0.701830	1.272673	0.346913
C	-0.023070	0.010873	-1.460887
C	0.609230	1.106373	-2.081687
S	1.230130	2.188373	-0.940487
C	0.740530	1.324373	-3.534787
O	0.276330	0.514473	-4.325087
O	1.384930	2.434073	-3.979187
F	-0.576670	-0.955927	-2.221087
C	1.573130	2.739673	-5.309787
H	2.126130	3.696273	-5.345087
H	0.606830	2.847873	-5.850387
H	2.156530	1.952473	-5.836687
C	-0.445370	-2.152527	1.025213
H	-0.083970	-2.161527	0.007513
H	0.340230	-2.836427	1.310713
H	-1.335270	-2.676927	0.709813
H	1.253030	2.221973	2.346713
$end

$rem
JOBTYPE		SP
EXCHANGE	HF
CORRELATION	pRIMP2
BASIS		cc-pvtz
METHOD		rimp2
AUX_BASIS	rimp2-cc-pvtz
SOLVENT_METHOD	PCM
PURECART	11111
SYMMETRY	false
MEM_TOTAL	110000
SCF_CONVERGENCE = 6
THRESH=10
GUI = 2
$end

$solvent
dielectric 4.90
$end
--------------------------------------------------------------

             Standard Nuclear Orientation (Angstroms)
    I     Atom           X                Y                Z
 ----------------------------------------------------------------
    1      C      -0.4453700000    -0.7173270000     1.0252130000
    2      S       0.0062300000     0.0604730000     2.5359130000
    3      C       0.7930300000     1.4252730000     1.7528130000
    4      C       0.0087300000     0.0692730000    -0.0394870000
    5      C       0.7018300000     1.2726730000     0.3469130000
    6      C      -0.0230700000     0.0108730000    -1.4608870000
    7      C       0.6092300000     1.1063730000    -2.0816870000
    8      S       1.2301300000     2.1883730000    -0.9404870000
    9      C       0.7405300000     1.3243730000    -3.5347870000
   10      O       0.2763300000     0.5144730000    -4.3250870000
   11      O       1.3849300000     2.4340730000    -3.9791870000
   12      F      -0.5766700000    -0.9559270000    -2.2210870000
   13      C       1.5731300000     2.7396730000    -5.3097870000
   14      H       2.1261300000     3.6962730000    -5.3450870000
   15      H       0.6068300000     2.8478730000    -5.8503870000
   16      H       2.1565300000     1.9524730000    -5.8366870000
   17      C      -0.4453700000    -2.1525270000     1.0252130000
   18      H      -0.0839700000    -2.1615270000     0.0075130000
   19      H       0.3402300000    -2.8364270000     1.3107130000
   20      H      -1.3352700000    -2.6769270000     0.7098130000
   21      H       1.2530300000     2.2219730000     2.3467130000
 ----------------------------------------------------------------

   11   -1389.2341184435      5.67e-07  Convergence criterion met
 Total energy in the final basis set =    -1389.2341184435
        RIMP2         total energy =     -1391.7472582555 a.u.

                    Orbital Energies (a.u.)
 --------------------------------------------------------------

 Alpha MOs
 -- Occupied --
-92.0051 -91.9930 -26.3352 -20.6117 -20.5495 -11.4097 -11.3757 -11.3001
-11.2957 -11.2923 -11.2888 -11.2884 -11.2743 -11.2244  -9.0040  -8.9971
 -6.6847  -6.6840  -6.6837  -6.6783  -6.6777  -6.6763  -1.6484  -1.4714
 -1.3667  -1.2295  -1.1472  -1.0685  -1.0274  -1.0045  -0.9693  -0.9097
 -0.8645  -0.7959  -0.7868  -0.7682  -0.7271  -0.7166  -0.6971  -0.6783
 -0.6777  -0.6701  -0.6071  -0.6053  -0.5979  -0.5897  -0.5846  -0.5645
 -0.5391  -0.5257  -0.5060  -0.4829  -0.4673  -0.4644  -0.4609  -0.4552
 -0.3931  -0.3443  -0.2832

          Ground-State Mulliken Net Atomic Charges

     Atom                 Charge (a.u.)
  ----------------------------------------
      1 C                     0.000697
      2 S                     0.092870
      3 C                    -0.239687
      4 C                    -0.078657
      5 C                    -0.011024
      6 C                     0.347924
      7 C                    -0.143239
      8 S                     0.039952
      9 C                     0.456540
     10 O                    -0.451616
     11 O                    -0.298005
     12 F                    -0.211852
     13 C                    -0.054824
     14 H                     0.116610
     15 H                     0.084317
     16 H                     0.084173
     17 C                    -0.364652
     18 H                     0.123696
     19 H                     0.163850
     20 H                     0.132243
     21 H                     0.210683
  ----------------------------------------
  Sum of atomic charges =     0.000000

                    Cartesian Multipole Moments
 -----------------------------------------------------------------
    Charge (ESU x 10^10)
                -0.0000
    Dipole Moment (Debye)
         X       1.8830      Y       1.2211      Z       2.7443
       Tot       3.5451
    Quadrupole Moments (Debye-Ang)
        XX     -93.8500     XY       3.8403     YY     -85.0690
        XZ      -4.5466     YZ      -9.1390     ZZ     -96.8175

 Total job time:  65.15s(wall), 2669.93s(cpu)
        *  Thank you very much for using Q-Chem.  Have a nice day.  *
