 Q-Chem 5.4, Q-Chem, Inc., Pleasanton, CA (2021)
 Q-Chem 5.4.0 for Intel X86 EM64T Linux

User input:
--------------------------------------------------------------
$molecule
0 1
C	-0.376938	-0.753180	1.020653
S	0.005162	0.061020	2.531353
C	0.669962	1.489220	1.748253
C	0.006862	0.069920	-0.044047
C	0.592462	1.329320	0.342353
C	-0.019738	0.009120	-1.465447
C	0.514762	1.155520	-2.086247
S	1.038962	2.287520	-0.945047
C	0.626562	1.384120	-3.539347
O	0.234662	0.536820	-4.329647
O	1.171762	2.545720	-3.983747
F	-0.487038	-1.002280	-2.225647
C	1.332562	2.866520	-5.314347
H	1.800062	3.867720	-5.349647
H	0.360462	2.890220	-5.854947
H	1.982462	2.133220	-5.841247
C	-0.376938	-2.188380	1.020653
H	-0.181038	-2.197380	2.082753
H	-1.200038	-2.872280	1.166153
H	0.551462	-2.712780	0.848853
H	1.058862	2.323020	2.342153
$end

$rem
JOBTYPE		SP
EXCHANGE	HF
CORRELATION	pRIMP2
BASIS		cc-pvtz
METHOD		rimp2
AUX_BASIS	rimp2-cc-pvtz
SOLVENT_METHOD	PCM
PURECART	11111
SYMMETRY	false
MEM_TOTAL	110000
SCF_CONVERGENCE = 6
THRESH=10
GUI = 2
$end

$solvent
dielectric 4.90
$end
--------------------------------------------------------------

             Standard Nuclear Orientation (Angstroms)
    I     Atom           X                Y                Z
 ----------------------------------------------------------------
    1      C      -0.3769380000    -0.7531800000     1.0206530000
    2      S       0.0051620000     0.0610200000     2.5313530000
    3      C       0.6699620000     1.4892200000     1.7482530000
    4      C       0.0068620000     0.0699200000    -0.0440470000
    5      C       0.5924620000     1.3293200000     0.3423530000
    6      C      -0.0197380000     0.0091200000    -1.4654470000
    7      C       0.5147620000     1.1555200000    -2.0862470000
    8      S       1.0389620000     2.2875200000    -0.9450470000
    9      C       0.6265620000     1.3841200000    -3.5393470000
   10      O       0.2346620000     0.5368200000    -4.3296470000
   11      O       1.1717620000     2.5457200000    -3.9837470000
   12      F      -0.4870380000    -1.0022800000    -2.2256470000
   13      C       1.3325620000     2.8665200000    -5.3143470000
   14      H       1.8000620000     3.8677200000    -5.3496470000
   15      H       0.3604620000     2.8902200000    -5.8549470000
   16      H       1.9824620000     2.1332200000    -5.8412470000
   17      C      -0.3769380000    -2.1883800000     1.0206530000
   18      H      -0.1810380000    -2.1973800000     2.0827530000
   19      H      -1.2000380000    -2.8722800000     1.1661530000
   20      H       0.5514620000    -2.7127800000     0.8488530000
   21      H       1.0588620000     2.3230200000     2.3421530000
 ----------------------------------------------------------------

   11   -1389.2393789680      5.27e-07  Convergence criterion met
 Total energy in the final basis set =    -1389.2393789680
        RIMP2         total energy =     -1391.7492147038 a.u.

                    Orbital Energies (a.u.)
 --------------------------------------------------------------

 Alpha MOs
 -- Occupied --
-92.0082 -91.9911 -26.3329 -20.6109 -20.5484 -11.4086 -11.3747 -11.3014
-11.2938 -11.2916 -11.2881 -11.2879 -11.2711 -11.2258  -9.0071  -8.9952
 -6.6879  -6.6872  -6.6868  -6.6765  -6.6759  -6.6745  -1.6458  -1.4706
 -1.3658  -1.2279  -1.1482  -1.0651  -1.0302  -1.0042  -0.9690  -0.9083
 -0.8652  -0.7970  -0.7844  -0.7687  -0.7267  -0.7140  -0.6954  -0.6775
 -0.6756  -0.6686  -0.6088  -0.6048  -0.5979  -0.5881  -0.5721  -0.5683
 -0.5432  -0.5252  -0.5057  -0.4825  -0.4745  -0.4609  -0.4599  -0.4560
 -0.3954  -0.3451  -0.2831

          Ground-State Mulliken Net Atomic Charges

     Atom                 Charge (a.u.)
  ----------------------------------------
      1 C                     0.031815
      2 S                     0.085348
      3 C                    -0.243992
      4 C                    -0.095074
      5 C                    -0.008123
      6 C                     0.371473
      7 C                    -0.159520
      8 S                     0.033956
      9 C                     0.457116
     10 O                    -0.452270
     11 O                    -0.298133
     12 F                    -0.211359
     13 C                    -0.054772
     14 H                     0.116329
     15 H                     0.084175
     16 H                     0.084046
     17 C                    -0.363021
     18 H                     0.115896
     19 H                     0.149288
     20 H                     0.144327
     21 H                     0.212494
  ----------------------------------------
  Sum of atomic charges =     0.000000

                    Cartesian Multipole Moments
 -----------------------------------------------------------------
    Charge (ESU x 10^10)
                -0.0000
    Dipole Moment (Debye)
         X       1.4918      Y       1.2449      Z       4.0366
       Tot       4.4799
    Quadrupole Moments (Debye-Ang)
        XX     -94.3818     XY       3.6889     YY     -84.4110
        XZ      -4.5727     YZ     -12.2569     ZZ     -94.4980

 Total job time:  57.27s(wall), 2190.65s(cpu)
        *  Thank you very much for using Q-Chem.  Have a nice day.  *
