 Q-Chem 5.4, Q-Chem, Inc., Pleasanton, CA (2021)
 Q-Chem 5.4.0 for Intel X86 EM64T Linux

User input:
--------------------------------------------------------------
$molecule
0 1
C	-0.228825	-0.806326	1.022665
S	0.006075	0.061874	2.533365
C	0.412775	1.583774	1.750265
C	0.006175	0.070974	-0.042035
C	0.364175	1.412774	0.344365
C	-0.009325	0.006374	-1.463435
C	0.317875	1.228174	-2.084235
S	0.637475	2.434074	-0.943035
C	0.388275	1.472774	-3.537335
O	0.149475	0.570274	-4.327635
O	0.723475	2.711374	-3.981735
F	-0.293925	-1.070726	-2.223635
C	0.826175	3.055274	-5.312335
H	1.112675	4.122374	-5.347635
H	-0.135225	2.909774	-5.852935
H	1.593475	2.445874	-5.839235
C	-0.228825	-2.241526	1.022665
H	-1.308725	-2.250526	1.031165
H	-0.229225	-2.925426	0.186765
H	-0.220825	-2.765926	1.966765
H	0.650975	2.472474	2.344165
$end

$rem
JOBTYPE		SP
EXCHANGE	HF
CORRELATION	pRIMP2
BASIS		cc-pvtz
METHOD		rimp2
AUX_BASIS	rimp2-cc-pvtz
SOLVENT_METHOD	PCM
PURECART	11111
SYMMETRY	false
MEM_TOTAL	110000
SCF_CONVERGENCE = 6
THRESH=10
GUI = 2
$end

$solvent
dielectric 4.90
$end
--------------------------------------------------------------

             Standard Nuclear Orientation (Angstroms)
    I     Atom           X                Y                Z
 ----------------------------------------------------------------
    1      C      -0.2288250000    -0.8063260000     1.0226650000
    2      S       0.0060750000     0.0618740000     2.5333650000
    3      C       0.4127750000     1.5837740000     1.7502650000
    4      C       0.0061750000     0.0709740000    -0.0420350000
    5      C       0.3641750000     1.4127740000     0.3443650000
    6      C      -0.0093250000     0.0063740000    -1.4634350000
    7      C       0.3178750000     1.2281740000    -2.0842350000
    8      S       0.6374750000     2.4340740000    -0.9430350000
    9      C       0.3882750000     1.4727740000    -3.5373350000
   10      O       0.1494750000     0.5702740000    -4.3276350000
   11      O       0.7234750000     2.7113740000    -3.9817350000
   12      F      -0.2939250000    -1.0707260000    -2.2236350000
   13      C       0.8261750000     3.0552740000    -5.3123350000
   14      H       1.1126750000     4.1223740000    -5.3476350000
   15      H      -0.1352250000     2.9097740000    -5.8529350000
   16      H       1.5934750000     2.4458740000    -5.8392350000
   17      C      -0.2288250000    -2.2415260000     1.0226650000
   18      H      -1.3087250000    -2.2505260000     1.0311650000
   19      H      -0.2292250000    -2.9254260000     0.1867650000
   20      H      -0.2208250000    -2.7659260000     1.9667650000
   21      H       0.6509750000     2.4724740000     2.3441650000
 ----------------------------------------------------------------

   11   -1389.2500970400      4.39e-07  Convergence criterion met
 Total energy in the final basis set =    -1389.2500970400
        RIMP2         total energy =     -1391.7538177637 a.u.

                    Orbital Energies (a.u.)
 --------------------------------------------------------------

 Alpha MOs
 -- Occupied --
-92.0067 -91.9876 -26.3342 -20.6089 -20.5447 -11.4056 -11.3763 -11.3185
-11.2912 -11.2869 -11.2865 -11.2752 -11.2664 -11.2343  -9.0054  -8.9919
 -6.6863  -6.6857  -6.6851  -6.6732  -6.6725  -6.6712  -1.6471  -1.4684
 -1.3631  -1.2258  -1.1466  -1.0669  -1.0272  -1.0062  -0.9673  -0.9114
 -0.8624  -0.7958  -0.7841  -0.7657  -0.7256  -0.7148  -0.6962  -0.6776
 -0.6760  -0.6668  -0.6093  -0.6026  -0.5917  -0.5873  -0.5854  -0.5583
 -0.5334  -0.5249  -0.5197  -0.4949  -0.4785  -0.4608  -0.4577  -0.4562
 -0.3889  -0.3466  -0.2716

          Ground-State Mulliken Net Atomic Charges

     Atom                 Charge (a.u.)
  ----------------------------------------
      1 C                     0.043323
      2 S                     0.087723
      3 C                    -0.277372
      4 C                    -0.099306
      5 C                    -0.008658
      6 C                     0.387097
      7 C                    -0.171161
      8 S                     0.024280
      9 C                     0.458779
     10 O                    -0.459339
     11 O                    -0.299106
     12 F                    -0.213133
     13 C                    -0.054913
     14 H                     0.115903
     15 H                     0.083457
     16 H                     0.083414
     17 C                    -0.379674
     18 H                     0.147552
     19 H                     0.172652
     20 H                     0.148684
     21 H                     0.209799
  ----------------------------------------
  Sum of atomic charges =     0.000000

                    Cartesian Multipole Moments
 -----------------------------------------------------------------
    Charge (ESU x 10^10)
                -0.0000
    Dipole Moment (Debye)
         X      -0.2026      Y       0.1546      Z       3.8021
       Tot       3.8106
    Quadrupole Moments (Debye-Ang)
        XX     -95.6753     XY       4.4233     YY     -82.5011
        XZ      -3.5955     YZ     -12.0339     ZZ     -96.8115

 Total job time:  53.32s(wall), 1913.43s(cpu)
        *  Thank you very much for using Q-Chem.  Have a nice day.  *
