 Q-Chem 5.4, Q-Chem, Inc., Pleasanton, CA (2021)
 Q-Chem 5.4.0 for Intel X86 EM64T Linux

User input:
--------------------------------------------------------------
$molecule
0 1
C	-0.153416	-0.823218	1.023483
S	0.004984	0.062182	2.534183
C	0.277484	1.613782	1.751083
C	0.004284	0.071182	-0.041217
C	0.243984	1.439182	0.345183
C	-0.005616	0.005582	-1.462617
C	0.213884	1.251182	-2.083417
S	0.427184	2.480282	-0.942217
C	0.262684	1.500982	-3.536517
O	0.103484	0.581182	-4.326817
O	0.488684	2.764082	-3.980917
F	-0.195216	-1.092318	-2.222817
C	0.560984	3.115582	-5.311517
H	0.753384	4.203682	-5.346817
H	-0.384116	2.886882	-5.852117
H	1.378484	2.575482	-5.838417
C	-0.153416	-2.258418	1.023483
H	-1.171116	-2.267418	0.662083
H	0.132084	-2.942318	0.237883
H	-0.468816	-2.782818	1.913383
H	0.437284	2.519782	2.344983
$end

$rem
JOBTYPE		SP
EXCHANGE	HF
CORRELATION	pRIMP2
BASIS		cc-pvtz
METHOD		rimp2
AUX_BASIS	rimp2-cc-pvtz
SOLVENT_METHOD	PCM
PURECART	11111
SYMMETRY	false
MEM_TOTAL	110000
SCF_CONVERGENCE = 6
THRESH=10
GUI = 2
$end

$solvent
dielectric 4.90
$end
--------------------------------------------------------------

             Standard Nuclear Orientation (Angstroms)
    I     Atom           X                Y                Z
 ----------------------------------------------------------------
    1      C      -0.1534160000    -0.8232180000     1.0234830000
    2      S       0.0049840000     0.0621820000     2.5341830000
    3      C       0.2774840000     1.6137820000     1.7510830000
    4      C       0.0042840000     0.0711820000    -0.0412170000
    5      C       0.2439840000     1.4391820000     0.3451830000
    6      C      -0.0056160000     0.0055820000    -1.4626170000
    7      C       0.2138840000     1.2511820000    -2.0834170000
    8      S       0.4271840000     2.4802820000    -0.9422170000
    9      C       0.2626840000     1.5009820000    -3.5365170000
   10      O       0.1034840000     0.5811820000    -4.3268170000
   11      O       0.4886840000     2.7640820000    -3.9809170000
   12      F      -0.1952160000    -1.0923180000    -2.2228170000
   13      C       0.5609840000     3.1155820000    -5.3115170000
   14      H       0.7533840000     4.2036820000    -5.3468170000
   15      H      -0.3841160000     2.8868820000    -5.8521170000
   16      H       1.3784840000     2.5754820000    -5.8384170000
   17      C      -0.1534160000    -2.2584180000     1.0234830000
   18      H      -1.1711160000    -2.2674180000     0.6620830000
   19      H       0.1320840000    -2.9423180000     0.2378830000
   20      H      -0.4688160000    -2.7828180000     1.9133830000
   21      H       0.4372840000     2.5197820000     2.3449830000
 ----------------------------------------------------------------

   11   -1389.2538140110      4.38e-07  Convergence criterion met
 Total energy in the final basis set =    -1389.2538140110
        RIMP2         total energy =     -1391.7573722649 a.u.

                    Orbital Energies (a.u.)
 --------------------------------------------------------------

 Alpha MOs
 -- Occupied --
-92.0068 -91.9881 -26.3345 -20.6091 -20.5449 -11.4058 -11.3765 -11.3187
-11.2916 -11.2870 -11.2869 -11.2749 -11.2669 -11.2345  -9.0055  -8.9923
 -6.6863  -6.6857  -6.6852  -6.6736  -6.6730  -6.6716  -1.6475  -1.4686
 -1.3633  -1.2260  -1.1462  -1.0674  -1.0268  -1.0066  -0.9674  -0.9117
 -0.8624  -0.7956  -0.7844  -0.7656  -0.7256  -0.7152  -0.6969  -0.6781
 -0.6761  -0.6671  -0.6096  -0.6027  -0.5925  -0.5860  -0.5854  -0.5603
 -0.5390  -0.5230  -0.5142  -0.4940  -0.4786  -0.4615  -0.4583  -0.4563
 -0.3897  -0.3465  -0.2728

          Ground-State Mulliken Net Atomic Charges

     Atom                 Charge (a.u.)
  ----------------------------------------
      1 C                     0.051490
      2 S                     0.089125
      3 C                    -0.279495
      4 C                    -0.110180
      5 C                    -0.004556
      6 C                     0.389070
      7 C                    -0.170383
      8 S                     0.024210
      9 C                     0.459916
     10 O                    -0.459300
     11 O                    -0.299063
     12 F                    -0.213949
     13 C                    -0.054952
     14 H                     0.115933
     15 H                     0.083452
     16 H                     0.083498
     17 C                    -0.377272
     18 H                     0.145516
     19 H                     0.171281
     20 H                     0.146581
     21 H                     0.209078
  ----------------------------------------
  Sum of atomic charges =     0.000000

                    Cartesian Multipole Moments
 -----------------------------------------------------------------
    Charge (ESU x 10^10)
                -0.0000
    Dipole Moment (Debye)
         X      -0.3350      Y       0.2243      Z       3.5348
       Tot       3.5577
    Quadrupole Moments (Debye-Ang)
        XX     -96.0332     XY       3.5132     YY     -82.1054
        XZ      -2.8256     YZ     -11.6848     ZZ     -97.3391

 Total job time:  54.25s(wall), 1960.01s(cpu)
        *  Thank you very much for using Q-Chem.  Have a nice day.  *
