 Q-Chem 5.4, Q-Chem, Inc., Pleasanton, CA (2021)
 Q-Chem 5.4.0 for Intel X86 EM64T Linux

User input:
--------------------------------------------------------------
$molecule
0 1
C	-0.004152	-0.836989	1.022765
S	-0.001952	0.062411	2.533465
C	-0.002952	1.637711	1.750365
C	-0.004152	0.071211	-0.041935
C	-0.005652	1.460011	0.344465
C	-0.002552	0.004811	-1.463335
C	-0.002652	1.269711	-2.084135
S	-0.005952	2.517211	-0.942935
C	0.002048	1.524111	-3.537235
O	0.005048	0.590611	-4.327535
O	0.005248	2.807311	-3.981635
F	0.001348	-1.109289	-2.223535
C	0.015448	3.166011	-5.312235
H	0.016048	4.271011	-5.347535
H	-0.875552	2.776711	-5.852835
H	0.914348	2.776111	-5.839135
C	-0.004152	-2.272189	1.022765
H	1.060848	-2.281189	1.201965
H	-0.148952	-2.956089	1.845965
H	0.151948	-2.796589	0.091565
H	-0.002952	2.557811	2.344265
$end

$rem
JOBTYPE		SP
EXCHANGE	HF
CORRELATION	pRIMP2
BASIS		cc-pvtz
METHOD		rimp2
AUX_BASIS	rimp2-cc-pvtz
SOLVENT_METHOD	PCM
PURECART	11111
SYMMETRY	false
MEM_TOTAL	110000
SCF_CONVERGENCE = 6
THRESH=10
GUI = 2
$end

$solvent
dielectric 4.90
$end
--------------------------------------------------------------

             Standard Nuclear Orientation (Angstroms)
    I     Atom           X                Y                Z
 ----------------------------------------------------------------
    1      C      -0.0041520000    -0.8369890000     1.0227650000
    2      S      -0.0019520000     0.0624110000     2.5334650000
    3      C      -0.0029520000     1.6377110000     1.7503650000
    4      C      -0.0041520000     0.0712110000    -0.0419350000
    5      C      -0.0056520000     1.4600110000     0.3444650000
    6      C      -0.0025520000     0.0048110000    -1.4633350000
    7      C      -0.0026520000     1.2697110000    -2.0841350000
    8      S      -0.0059520000     2.5172110000    -0.9429350000
    9      C       0.0020480000     1.5241110000    -3.5372350000
   10      O       0.0050480000     0.5906110000    -4.3275350000
   11      O       0.0052480000     2.8073110000    -3.9816350000
   12      F       0.0013480000    -1.1092890000    -2.2235350000
   13      C       0.0154480000     3.1660110000    -5.3122350000
   14      H       0.0160480000     4.2710110000    -5.3475350000
   15      H      -0.8755520000     2.7767110000    -5.8528350000
   16      H       0.9143480000     2.7761110000    -5.8391350000
   17      C      -0.0041520000    -2.2721890000     1.0227650000
   18      H       1.0608480000    -2.2811890000     1.2019650000
   19      H      -0.1489520000    -2.9560890000     1.8459650000
   20      H       0.1519480000    -2.7965890000     0.0915650000
   21      H      -0.0029520000     2.5578110000     2.3442650000
 ----------------------------------------------------------------

   11   -1389.2572364261      4.14e-07  Convergence criterion met
 Total energy in the final basis set =    -1389.2572364261
        RIMP2         total energy =     -1391.7586130387 a.u.

                    Orbital Energies (a.u.)
 --------------------------------------------------------------

 Alpha MOs
 -- Occupied --
-92.0055 -91.9872 -26.3343 -20.6089 -20.5444 -11.4054 -11.3768 -11.3220
-11.2911 -11.2869 -11.2859 -11.2736 -11.2666 -11.2368  -9.0044  -8.9915
 -6.6853  -6.6847  -6.6841  -6.6728  -6.6721  -6.6707  -1.6473  -1.4683
 -1.3629  -1.2258  -1.1467  -1.0675  -1.0271  -1.0065  -0.9672  -0.9115
 -0.8622  -0.7959  -0.7842  -0.7656  -0.7258  -0.7149  -0.6961  -0.6770
 -0.6759  -0.6667  -0.6104  -0.6024  -0.5960  -0.5885  -0.5849  -0.5588
 -0.5298  -0.5280  -0.5188  -0.4944  -0.4779  -0.4620  -0.4583  -0.4559
 -0.3907  -0.3468  -0.2717

          Ground-State Mulliken Net Atomic Charges

     Atom                 Charge (a.u.)
  ----------------------------------------
      1 C                     0.043851
      2 S                     0.077056
      3 C                    -0.278179
      4 C                    -0.093790
      5 C                    -0.013027
      6 C                     0.401285
      7 C                    -0.170666
      8 S                     0.020473
      9 C                     0.460833
     10 O                    -0.460104
     11 O                    -0.299207
     12 F                    -0.214588
     13 C                    -0.055048
     14 H                     0.115875
     15 H                     0.083529
     16 H                     0.083330
     17 C                    -0.384753
     18 H                     0.151693
     19 H                     0.170732
     20 H                     0.150976
     21 H                     0.209730
  ----------------------------------------
  Sum of atomic charges =     0.000000

                    Cartesian Multipole Moments
 -----------------------------------------------------------------
    Charge (ESU x 10^10)
                -0.0000
    Dipole Moment (Debye)
         X       0.7727      Y       0.0382      Z       3.9129
       Tot       3.9886
    Quadrupole Moments (Debye-Ang)
        XX     -96.6118     XY      -1.7889     YY     -81.6097
        XZ       0.6573     YZ     -13.0818     ZZ     -96.8296

 Total job time:  55.33s(wall), 1989.23s(cpu)
        *  Thank you very much for using Q-Chem.  Have a nice day.  *
