 Q-Chem 5.4, Q-Chem, Inc., Pleasanton, CA (2021)
 Q-Chem 5.4.0 for Intel X86 EM64T Linux

User input:
--------------------------------------------------------------
$molecule
0 1
C	-0.080090	-0.833466	1.020802
S	0.000510	0.062334	2.531502
C	0.136710	1.631734	1.748402
C	-0.000990	0.071334	-0.043898
C	0.118610	1.454934	0.342502
C	-0.005090	0.005034	-1.465298
C	0.105010	1.265034	-2.086098
S	0.210410	2.508134	-0.944898
C	0.131810	1.518134	-3.539198
O	0.053410	0.587934	-4.329498
O	0.246910	2.796134	-3.983598
F	-0.098290	-1.105166	-2.225498
C	0.288310	3.152634	-5.314198
H	0.385210	4.253334	-5.349498
H	-0.633190	2.842434	-5.854798
H	1.149810	2.685834	-5.841098
C	-0.080090	-2.268666	1.020802
H	0.297210	-2.277666	2.032702
H	-0.865390	-2.952566	1.307002
H	0.804310	-2.793066	0.690402
H	0.217010	2.548234	2.342302
$end

$rem
JOBTYPE		SP
EXCHANGE	HF
CORRELATION	pRIMP2
BASIS		cc-pvtz
METHOD		rimp2
AUX_BASIS	rimp2-cc-pvtz
SOLVENT_METHOD	PCM
PURECART	11111
SYMMETRY	false
MEM_TOTAL	110000
SCF_CONVERGENCE = 6
THRESH=10
GUI = 2
$end

$solvent
dielectric 4.90
$end
--------------------------------------------------------------

             Standard Nuclear Orientation (Angstroms)
    I     Atom           X                Y                Z
 ----------------------------------------------------------------
    1      C      -0.0800900000    -0.8334660000     1.0208020000
    2      S       0.0005100000     0.0623340000     2.5315020000
    3      C       0.1367100000     1.6317340000     1.7484020000
    4      C      -0.0009900000     0.0713340000    -0.0438980000
    5      C       0.1186100000     1.4549340000     0.3425020000
    6      C      -0.0050900000     0.0050340000    -1.4652980000
    7      C       0.1050100000     1.2650340000    -2.0860980000
    8      S       0.2104100000     2.5081340000    -0.9448980000
    9      C       0.1318100000     1.5181340000    -3.5391980000
   10      O       0.0534100000     0.5879340000    -4.3294980000
   11      O       0.2469100000     2.7961340000    -3.9835980000
   12      F      -0.0982900000    -1.1051660000    -2.2254980000
   13      C       0.2883100000     3.1526340000    -5.3141980000
   14      H       0.3852100000     4.2533340000    -5.3494980000
   15      H      -0.6331900000     2.8424340000    -5.8547980000
   16      H       1.1498100000     2.6858340000    -5.8410980000
   17      C      -0.0800900000    -2.2686660000     1.0208020000
   18      H       0.2972100000    -2.2776660000     2.0327020000
   19      H      -0.8653900000    -2.9525660000     1.3070020000
   20      H       0.8043100000    -2.7930660000     0.6904020000
   21      H       0.2170100000     2.5482340000     2.3423020000
 ----------------------------------------------------------------

   11   -1389.2522278377      4.76e-07  Convergence criterion met
 Total energy in the final basis set =    -1389.2522278377
        RIMP2         total energy =     -1391.7580046958 a.u.

                    Orbital Energies (a.u.)
 --------------------------------------------------------------

 Alpha MOs
 -- Occupied --
-92.0088 -91.9896 -26.3330 -20.6103 -20.5471 -11.4076 -11.3752 -11.3087
-11.2914 -11.2912 -11.2875 -11.2831 -11.2691 -11.2289  -9.0075  -8.9938
 -6.6883  -6.6877  -6.6872  -6.6751  -6.6744  -6.6731  -1.6459  -1.4698
 -1.3649  -1.2267  -1.1468  -1.0652  -1.0296  -1.0054  -0.9684  -0.9100
 -0.8642  -0.7966  -0.7840  -0.7676  -0.7262  -0.7139  -0.6956  -0.6770
 -0.6762  -0.6678  -0.6090  -0.6041  -0.5976  -0.5871  -0.5762  -0.5669
 -0.5437  -0.5247  -0.5054  -0.4808  -0.4777  -0.4623  -0.4596  -0.4575
 -0.3956  -0.3462  -0.2811

          Ground-State Mulliken Net Atomic Charges

     Atom                 Charge (a.u.)
  ----------------------------------------
      1 C                     0.045062
      2 S                     0.083864
      3 C                    -0.258068
      4 C                    -0.089802
      5 C                    -0.011244
      6 C                     0.392967
      7 C                    -0.165111
      8 S                     0.028125
      9 C                     0.459403
     10 O                    -0.454898
     11 O                    -0.298409
     12 F                    -0.213672
     13 C                    -0.055056
     14 H                     0.116192
     15 H                     0.084026
     16 H                     0.083858
     17 C                    -0.371250
     18 H                     0.116297
     19 H                     0.151978
     20 H                     0.143788
     21 H                     0.211948
  ----------------------------------------
  Sum of atomic charges =     0.000000

                    Cartesian Multipole Moments
 -----------------------------------------------------------------
    Charge (ESU x 10^10)
                -0.0000
    Dipole Moment (Debye)
         X       0.4994      Y       1.0688      Z       4.1454
       Tot       4.3100
    Quadrupole Moments (Debye-Ang)
        XX     -95.9146     XY       0.3888     YY     -82.3499
        XZ      -0.9676     YZ     -13.4837     ZZ     -95.0450

 Total job time:  54.06s(wall), 1935.45s(cpu)
        *  Thank you very much for using Q-Chem.  Have a nice day.  *
