 Q-Chem 5.4, Q-Chem, Inc., Pleasanton, CA (2021)
 Q-Chem 5.4.0 for Intel X86 EM64T Linux

User input:
--------------------------------------------------------------
$molecule
0 1
C	-0.157104	-0.823218	1.021016
S	0.001296	0.062182	2.531716
C	0.273796	1.613782	1.748616
C	0.000596	0.071182	-0.043684
C	0.240296	1.439182	0.342716
C	-0.009304	0.005582	-1.465084
C	0.210196	1.251182	-2.085884
S	0.423496	2.480282	-0.944684
C	0.258996	1.500982	-3.538984
O	0.099796	0.581182	-4.329284
O	0.484996	2.764082	-3.983384
F	-0.198904	-1.092318	-2.225284
C	0.557296	3.115582	-5.313984
H	0.749696	4.203682	-5.349284
H	-0.387804	2.886882	-5.854584
H	1.374796	2.575482	-5.840884
C	-0.157104	-2.258418	1.021016
H	0.390196	-2.267418	1.952016
H	-0.880804	-2.942318	1.439216
H	0.656496	-2.782818	0.542016
H	0.433596	2.519782	2.342516
$end

$rem
JOBTYPE		SP
EXCHANGE	HF
CORRELATION	pRIMP2
BASIS		cc-pvtz
METHOD		rimp2
AUX_BASIS	rimp2-cc-pvtz
SOLVENT_METHOD	PCM
PURECART	11111
SYMMETRY	false
MEM_TOTAL	110000
SCF_CONVERGENCE = 6
THRESH=10
GUI = 2
$end

$solvent
dielectric 4.90
$end
--------------------------------------------------------------

             Standard Nuclear Orientation (Angstroms)
    I     Atom           X                Y                Z
 ----------------------------------------------------------------
    1      C      -0.1571040000    -0.8232180000     1.0210160000
    2      S       0.0012960000     0.0621820000     2.5317160000
    3      C       0.2737960000     1.6137820000     1.7486160000
    4      C       0.0005960000     0.0711820000    -0.0436840000
    5      C       0.2402960000     1.4391820000     0.3427160000
    6      C      -0.0093040000     0.0055820000    -1.4650840000
    7      C       0.2101960000     1.2511820000    -2.0858840000
    8      S       0.4234960000     2.4802820000    -0.9446840000
    9      C       0.2589960000     1.5009820000    -3.5389840000
   10      O       0.0997960000     0.5811820000    -4.3292840000
   11      O       0.4849960000     2.7640820000    -3.9833840000
   12      F      -0.1989040000    -1.0923180000    -2.2252840000
   13      C       0.5572960000     3.1155820000    -5.3139840000
   14      H       0.7496960000     4.2036820000    -5.3492840000
   15      H      -0.3878040000     2.8868820000    -5.8545840000
   16      H       1.3747960000     2.5754820000    -5.8408840000
   17      C      -0.1571040000    -2.2584180000     1.0210160000
   18      H       0.3901960000    -2.2674180000     1.9520160000
   19      H      -0.8808040000    -2.9423180000     1.4392160000
   20      H       0.6564960000    -2.7828180000     0.5420160000
   21      H       0.4335960000     2.5197820000     2.3425160000
 ----------------------------------------------------------------

   11   -1389.2511992473      4.67e-07  Convergence criterion met
 Total energy in the final basis set =    -1389.2511992473
        RIMP2         total energy =     -1391.7565745000 a.u.

                    Orbital Energies (a.u.)
 --------------------------------------------------------------

 Alpha MOs
 -- Occupied --
-92.0073 -91.9892 -26.3331 -20.6102 -20.5469 -11.4074 -11.3755 -11.3103
-11.2912 -11.2908 -11.2875 -11.2823 -11.2694 -11.2294  -9.0062  -8.9934
 -6.6870  -6.6864  -6.6859  -6.6747  -6.6741  -6.6727  -1.6461  -1.4697
 -1.3647  -1.2268  -1.1470  -1.0655  -1.0293  -1.0054  -0.9683  -0.9099
 -0.8640  -0.7965  -0.7841  -0.7675  -0.7262  -0.7140  -0.6956  -0.6769
 -0.6763  -0.6677  -0.6093  -0.6039  -0.5980  -0.5870  -0.5764  -0.5656
 -0.5433  -0.5247  -0.5066  -0.4832  -0.4793  -0.4612  -0.4591  -0.4569
 -0.3950  -0.3461  -0.2793

          Ground-State Mulliken Net Atomic Charges

     Atom                 Charge (a.u.)
  ----------------------------------------
      1 C                     0.047721
      2 S                     0.082144
      3 C                    -0.258405
      4 C                    -0.095431
      5 C                    -0.012663
      6 C                     0.392893
      7 C                    -0.166930
      8 S                     0.027244
      9 C                     0.459551
     10 O                    -0.455107
     11 O                    -0.298432
     12 F                    -0.213078
     13 C                    -0.054916
     14 H                     0.116136
     15 H                     0.083938
     16 H                     0.083821
     17 C                    -0.374467
     18 H                     0.123642
     19 H                     0.155018
     20 H                     0.145828
     21 H                     0.211491
  ----------------------------------------
  Sum of atomic charges =     0.000000

                    Cartesian Multipole Moments
 -----------------------------------------------------------------
    Charge (ESU x 10^10)
                -0.0000
    Dipole Moment (Debye)
         X       0.8417      Y       0.9161      Z       4.1139
       Tot       4.2978
    Quadrupole Moments (Debye-Ang)
        XX     -95.8881     XY       0.9385     YY     -82.5528
        XZ      -1.8668     YZ     -13.3895     ZZ     -95.1649

 Total job time:  53.94s(wall), 1969.09s(cpu)
        *  Thank you very much for using Q-Chem.  Have a nice day.  *
