 Q-Chem 5.4, Q-Chem, Inc., Pleasanton, CA (2021)
 Q-Chem 5.4.0 for Intel X86 EM64T Linux

User input:
--------------------------------------------------------------
$molecule
0 1
C	-0.305938	-0.782911	1.020802
S	0.003762	0.061489	2.531502
C	0.541562	1.542189	1.748402
C	0.004662	0.070589	-0.043898
C	0.478262	1.376089	0.342502
C	-0.016438	0.007589	-1.465298
C	0.415962	1.196189	-2.086098
S	0.839562	2.369589	-0.944898
C	0.507462	1.433689	-3.539198
O	0.190962	0.555489	-4.329498
O	0.949362	2.638389	-3.983598
F	-0.393838	-1.040711	-2.225498
C	1.081562	2.971989	-5.314198
H	1.460062	4.010189	-5.349498
H	0.111162	2.910889	-5.854798
H	1.792862	2.298089	-5.841098
C	-0.305938	-2.218111	1.020802
H	0.071362	-2.227111	2.032702
H	-1.091238	-2.902011	1.307002
H	0.578462	-2.742511	0.690402
H	0.856262	2.406689	2.342302
$end

$rem
JOBTYPE		SP
EXCHANGE	HF
CORRELATION	pRIMP2
BASIS		cc-pvtz
METHOD		rimp2
AUX_BASIS	rimp2-cc-pvtz
SOLVENT_METHOD	PCM
PURECART	11111
SYMMETRY	false
MEM_TOTAL	110000
SCF_CONVERGENCE = 6
THRESH=10
GUI = 2
$end

$solvent
dielectric 4.90
$end
--------------------------------------------------------------

             Standard Nuclear Orientation (Angstroms)
    I     Atom           X                Y                Z
 ----------------------------------------------------------------
    1      C      -0.3059380000    -0.7829110000     1.0208020000
    2      S       0.0037620000     0.0614890000     2.5315020000
    3      C       0.5415620000     1.5421890000     1.7484020000
    4      C       0.0046620000     0.0705890000    -0.0438980000
    5      C       0.4782620000     1.3760890000     0.3425020000
    6      C      -0.0164380000     0.0075890000    -1.4652980000
    7      C       0.4159620000     1.1961890000    -2.0860980000
    8      S       0.8395620000     2.3695890000    -0.9448980000
    9      C       0.5074620000     1.4336890000    -3.5391980000
   10      O       0.1909620000     0.5554890000    -4.3294980000
   11      O       0.9493620000     2.6383890000    -3.9835980000
   12      F      -0.3938380000    -1.0407110000    -2.2254980000
   13      C       1.0815620000     2.9719890000    -5.3141980000
   14      H       1.4600620000     4.0101890000    -5.3494980000
   15      H       0.1111620000     2.9108890000    -5.8547980000
   16      H       1.7928620000     2.2980890000    -5.8410980000
   17      C      -0.3059380000    -2.2181110000     1.0208020000
   18      H       0.0713620000    -2.2271110000     2.0327020000
   19      H      -1.0912380000    -2.9020110000     1.3070020000
   20      H       0.5784620000    -2.7425110000     0.6904020000
   21      H       0.8562620000     2.4066890000     2.3423020000
 ----------------------------------------------------------------

   11   -1389.2441442372      4.99e-07  Convergence criterion met
 Total energy in the final basis set =    -1389.2441442372
        RIMP2         total energy =     -1391.7520462236 a.u.

                    Orbital Energies (a.u.)
 --------------------------------------------------------------

 Alpha MOs
 -- Occupied --
-92.0075 -91.9902 -26.3330 -20.6106 -20.5478 -11.4081 -11.3751 -11.3054
-11.2926 -11.2913 -11.2877 -11.2856 -11.2705 -11.2271  -9.0065  -8.9944
 -6.6872  -6.6866  -6.6861  -6.6757  -6.6751  -6.6737  -1.6459  -1.4702
 -1.3654  -1.2275  -1.1478  -1.0652  -1.0299  -1.0046  -0.9687  -0.9088
 -0.8647  -0.7968  -0.7843  -0.7682  -0.7265  -0.7140  -0.6955  -0.6773
 -0.6760  -0.6682  -0.6090  -0.6045  -0.5981  -0.5877  -0.5717  -0.5688
 -0.5439  -0.5249  -0.5060  -0.4825  -0.4776  -0.4608  -0.4594  -0.4559
 -0.3954  -0.3455  -0.2813

          Ground-State Mulliken Net Atomic Charges

     Atom                 Charge (a.u.)
  ----------------------------------------
      1 C                     0.042898
      2 S                     0.083104
      3 C                    -0.249774
      4 C                    -0.098281
      5 C                    -0.010110
      6 C                     0.380782
      7 C                    -0.163793
      8 S                     0.030883
      9 C                     0.458145
     10 O                    -0.453332
     11 O                    -0.298259
     12 F                    -0.211917
     13 C                    -0.054791
     14 H                     0.116218
     15 H                     0.084145
     16 H                     0.083897
     17 C                    -0.370206
     18 H                     0.121071
     19 H                     0.151563
     20 H                     0.145825
     21 H                     0.211934
  ----------------------------------------
  Sum of atomic charges =     0.000000

                    Cartesian Multipole Moments
 -----------------------------------------------------------------
    Charge (ESU x 10^10)
                -0.0000
    Dipole Moment (Debye)
         X       1.2768      Y       1.1075      Z       4.0692
       Tot       4.4062
    Quadrupole Moments (Debye-Ang)
        XX     -95.0503     XY       2.7453     YY     -83.6670
        XZ      -3.7158     YZ     -12.7709     ZZ     -94.7641

 Total job time:  56.32s(wall), 2043.32s(cpu)
        *  Thank you very much for using Q-Chem.  Have a nice day.  *
