 Q-Chem 5.4, Q-Chem, Inc., Pleasanton, CA (2021)
 Q-Chem 5.4.0 for Intel X86 EM64T Linux

User input:
--------------------------------------------------------------
$molecule
0 1
C	-0.680006	-0.518946	1.025267
S	0.010394	0.057454	2.535967
C	1.216494	1.070954	1.752867
C	0.015694	0.064854	-0.039433
C	1.078594	0.958754	0.346967
C	-0.034106	0.020954	-1.460833
C	0.934794	0.834054	-2.081633
S	1.888294	1.638454	-0.940433
C	1.132694	0.994054	-3.534733
O	0.419494	0.391754	-4.325033
O	2.117794	1.816354	-3.979133
F	-0.885006	-0.698246	-2.221033
C	2.399094	2.039154	-5.309733
H	3.245894	2.748954	-5.345033
H	1.528094	2.471454	-5.850333
H	2.678094	1.099854	-5.836633
C	-0.680006	-1.954146	1.025267
H	-0.688506	-1.963146	-0.054633
H	0.155894	-2.638046	1.024867
H	-1.624106	-2.478546	1.033267
H	1.921294	1.662254	2.346767
$end

$rem
JOBTYPE		SP
EXCHANGE	HF
CORRELATION	pRIMP2
BASIS		cc-pvtz
METHOD		rimp2
AUX_BASIS	rimp2-cc-pvtz
SOLVENT_METHOD	PCM
PURECART	11111
SYMMETRY	false
MEM_TOTAL	110000
SCF_CONVERGENCE = 6
THRESH=10
GUI = 2
$end

$solvent
dielectric 4.90
$end
--------------------------------------------------------------

             Standard Nuclear Orientation (Angstroms)
    I     Atom           X                Y                Z
 ----------------------------------------------------------------
    1      C      -0.6800060000    -0.5189460000     1.0252670000
    2      S       0.0103940000     0.0574540000     2.5359670000
    3      C       1.2164940000     1.0709540000     1.7528670000
    4      C       0.0156940000     0.0648540000    -0.0394330000
    5      C       1.0785940000     0.9587540000     0.3469670000
    6      C      -0.0341060000     0.0209540000    -1.4608330000
    7      C       0.9347940000     0.8340540000    -2.0816330000
    8      S       1.8882940000     1.6384540000    -0.9404330000
    9      C       1.1326940000     0.9940540000    -3.5347330000
   10      O       0.4194940000     0.3917540000    -4.3250330000
   11      O       2.1177940000     1.8163540000    -3.9791330000
   12      F      -0.8850060000    -0.6982460000    -2.2210330000
   13      C       2.3990940000     2.0391540000    -5.3097330000
   14      H       3.2458940000     2.7489540000    -5.3450330000
   15      H       1.5280940000     2.4714540000    -5.8503330000
   16      H       2.6780940000     1.0998540000    -5.8366330000
   17      C      -0.6800060000    -1.9541460000     1.0252670000
   18      H      -0.6885060000    -1.9631460000    -0.0546330000
   19      H       0.1558940000    -2.6380460000     1.0248670000
   20      H      -1.6241060000    -2.4785460000     1.0332670000
   21      H       1.9212940000     1.6622540000     2.3467670000
 ----------------------------------------------------------------

   11   -1389.2028636331      7.52e-07  Convergence criterion met
 Total energy in the final basis set =    -1389.2028636331
        RIMP2         total energy =     -1391.7243730162 a.u.

                    Orbital Energies (a.u.)
 --------------------------------------------------------------

 Alpha MOs
 -- Occupied --
-92.0029 -91.9986 -26.3349 -20.6139 -20.5535 -11.4130 -11.3747 -11.3064
-11.3037 -11.2936 -11.2895 -11.2812 -11.2758 -11.2170  -9.0023  -9.0023
 -6.6835  -6.6830  -6.6829  -6.6821  -6.6820  -6.6816  -1.6482  -1.4739
 -1.3697  -1.2336  -1.1506  -1.0706  -1.0293  -1.0018  -0.9711  -0.9072
 -0.8666  -0.7968  -0.7885  -0.7712  -0.7289  -0.7169  -0.6977  -0.6801
 -0.6767  -0.6729  -0.6085  -0.6045  -0.6027  -0.5905  -0.5801  -0.5634
 -0.5355  -0.5273  -0.5097  -0.4850  -0.4697  -0.4635  -0.4622  -0.4369
 -0.3923  -0.3423  -0.2905

          Ground-State Mulliken Net Atomic Charges

     Atom                 Charge (a.u.)
  ----------------------------------------
      1 C                    -0.087273
      2 S                     0.100748
      3 C                    -0.191934
      4 C                    -0.034914
      5 C                    -0.024401
      6 C                     0.341715
      7 C                    -0.130456
      8 S                     0.055044
      9 C                     0.456245
     10 O                    -0.444918
     11 O                    -0.297054
     12 F                    -0.210862
     13 C                    -0.054559
     14 H                     0.117065
     15 H                     0.085012
     16 H                     0.084777
     17 C                    -0.351996
     18 H                     0.106974
     19 H                     0.147344
     20 H                     0.119647
     21 H                     0.213800
  ----------------------------------------
  Sum of atomic charges =     0.000000

                    Cartesian Multipole Moments
 -----------------------------------------------------------------
    Charge (ESU x 10^10)
                -0.0000
    Dipole Moment (Debye)
         X       3.5272      Y       1.5255      Z       2.3592
       Tot       4.5094
    Quadrupole Moments (Debye-Ang)
        XX     -90.3610     XY       5.3965     YY     -89.1999
        XZ      -7.0601     YZ      -6.3106     ZZ     -95.3240

 Total job time:  72.14s(wall), 3123.55s(cpu)
        *  Thank you very much for using Q-Chem.  Have a nice day.  *
