 Q-Chem 5.4, Q-Chem, Inc., Pleasanton, CA (2021)
 Q-Chem 5.4.0 for Intel X86 EM64T Linux

User input:
--------------------------------------------------------------
$molecule
0 1
C	-0.569253	-0.628442	1.024233
S	0.010647	0.059158	2.534933
C	1.022347	1.266558	1.751833
C	0.014547	0.067358	-0.040467
C	0.906047	1.132158	0.345933
C	-0.026853	0.015358	-1.461867
C	0.786047	0.984358	-2.082667
S	1.585347	1.942158	-0.941467
C	0.953147	1.176358	-3.535767
O	0.355447	0.459358	-4.326067
O	1.780447	2.157258	-3.980167
F	-0.740053	-0.840542	-2.222067
C	2.018847	2.425458	-5.310767
H	2.729547	3.271558	-5.346067
H	1.086047	2.699958	-5.851367
H	2.456747	1.548958	-5.837667
C	-0.569253	-2.063642	1.024233
H	-1.401953	-2.072642	0.336533
H	-0.032253	-2.747542	0.383733
H	-1.169953	-2.588042	1.752633
H	1.613847	1.971358	2.345733
$end

$rem
JOBTYPE		SP
EXCHANGE	HF
CORRELATION	pRIMP2
BASIS		cc-pvtz
METHOD		rimp2
AUX_BASIS	rimp2-cc-pvtz
SOLVENT_METHOD	PCM
PURECART	11111
SYMMETRY	false
MEM_TOTAL	110000
SCF_CONVERGENCE = 6
THRESH=10
GUI = 2
$end

$solvent
dielectric 4.90
$end
--------------------------------------------------------------

             Standard Nuclear Orientation (Angstroms)
    I     Atom           X                Y                Z
 ----------------------------------------------------------------
    1      C      -0.5692530000    -0.6284420000     1.0242330000
    2      S       0.0106470000     0.0591580000     2.5349330000
    3      C       1.0223470000     1.2665580000     1.7518330000
    4      C       0.0145470000     0.0673580000    -0.0404670000
    5      C       0.9060470000     1.1321580000     0.3459330000
    6      C      -0.0268530000     0.0153580000    -1.4618670000
    7      C       0.7860470000     0.9843580000    -2.0826670000
    8      S       1.5853470000     1.9421580000    -0.9414670000
    9      C       0.9531470000     1.1763580000    -3.5357670000
   10      O       0.3554470000     0.4593580000    -4.3260670000
   11      O       1.7804470000     2.1572580000    -3.9801670000
   12      F      -0.7400530000    -0.8405420000    -2.2220670000
   13      C       2.0188470000     2.4254580000    -5.3107670000
   14      H       2.7295470000     3.2715580000    -5.3460670000
   15      H       1.0860470000     2.6999580000    -5.8513670000
   16      H       2.4567470000     1.5489580000    -5.8376670000
   17      C      -0.5692530000    -2.0636420000     1.0242330000
   18      H      -1.4019530000    -2.0726420000     0.3365330000
   19      H      -0.0322530000    -2.7475420000     0.3837330000
   20      H      -1.1699530000    -2.5880420000     1.7526330000
   21      H       1.6138470000     1.9713580000     2.3457330000
 ----------------------------------------------------------------

   11   -1389.2210330204      6.18e-07  Convergence criterion met
 Total energy in the final basis set =    -1389.2210330204
        RIMP2         total energy =     -1391.7372896030 a.u.

                    Orbital Energies (a.u.)
 --------------------------------------------------------------

 Alpha MOs
 -- Occupied --
-92.0028 -91.9939 -26.3341 -20.6118 -20.5498 -11.4099 -11.3753 -11.2963
-11.2937 -11.2929 -11.2926 -11.2884 -11.2760 -11.2224  -9.0021  -8.9979
 -6.6828  -6.6820  -6.6817  -6.6791  -6.6785  -6.6772  -1.6473  -1.4716
 -1.3669  -1.2299  -1.1475  -1.0673  -1.0279  -1.0039  -0.9693  -0.9096
 -0.8648  -0.7960  -0.7863  -0.7686  -0.7271  -0.7156  -0.6962  -0.6783
 -0.6770  -0.6701  -0.6066  -0.6058  -0.5978  -0.5905  -0.5724  -0.5626
 -0.5409  -0.5247  -0.5100  -0.4876  -0.4816  -0.4615  -0.4604  -0.4443
 -0.3878  -0.3449  -0.2794

          Ground-State Mulliken Net Atomic Charges

     Atom                 Charge (a.u.)
  ----------------------------------------
      1 C                    -0.019768
      2 S                     0.095658
      3 C                    -0.223819
      4 C                    -0.077258
      5 C                    -0.018701
      6 C                     0.363596
      7 C                    -0.150848
      8 S                     0.041295
      9 C                     0.456742
     10 O                    -0.450943
     11 O                    -0.298007
     12 F                    -0.211480
     13 C                    -0.054625
     14 H                     0.116565
     15 H                     0.084377
     16 H                     0.084170
     17 C                    -0.383128
     18 H                     0.129690
     19 H                     0.163384
     20 H                     0.142457
     21 H                     0.210642
  ----------------------------------------
  Sum of atomic charges =     0.000000

                    Cartesian Multipole Moments
 -----------------------------------------------------------------
    Charge (ESU x 10^10)
                -0.0000
    Dipole Moment (Debye)
         X       1.7860      Y       1.0995      Z       2.8678
       Tot       3.5529
    Quadrupole Moments (Debye-Ang)
        XX     -91.9015     XY       6.4183     YY     -86.8496
        XZ      -7.2154     YZ      -8.2868     ZZ     -96.1365

 Total job time:  55.23s(wall), 1939.45s(cpu)
        *  Thank you very much for using Q-Chem.  Have a nice day.  *
