 Q-Chem 5.4, Q-Chem, Inc., Pleasanton, CA (2021)
 Q-Chem 5.4.0 for Intel X86 EM64T Linux

User input:
--------------------------------------------------------------
$molecule
0 1
C	-0.680517	-0.518946	1.020573
S	0.009883	0.057454	2.531273
C	1.215983	1.070954	1.748173
C	0.015183	0.064854	-0.044127
C	1.078083	0.958754	0.342273
C	-0.034617	0.020954	-1.465527
C	0.934283	0.834054	-2.086327
S	1.887783	1.638454	-0.945127
C	1.132183	0.994054	-3.539427
O	0.418983	0.391754	-4.329727
O	2.117283	1.816354	-3.983827
F	-0.885517	-0.698246	-2.225727
C	2.398583	2.039154	-5.314427
H	3.245383	2.748954	-5.349727
H	1.527583	2.471454	-5.855027
H	2.677583	1.099854	-5.841327
C	-0.680517	-1.954146	1.020573
H	-0.672017	-1.963146	2.100473
H	-1.516417	-2.638046	1.020973
H	0.263583	-2.478546	1.012573
H	1.920783	1.662254	2.342073
$end

$rem
JOBTYPE		SP
EXCHANGE	HF
CORRELATION	pRIMP2
BASIS		cc-pvtz
METHOD		rimp2
AUX_BASIS	rimp2-cc-pvtz
SOLVENT_METHOD	PCM
PURECART	11111
SYMMETRY	false
MEM_TOTAL	110000
SCF_CONVERGENCE = 6
THRESH=10
GUI = 2
$end

$solvent
dielectric 4.90
$end
--------------------------------------------------------------

             Standard Nuclear Orientation (Angstroms)
    I     Atom           X                Y                Z
 ----------------------------------------------------------------
    1      C      -0.6805170000    -0.5189460000     1.0205730000
    2      S       0.0098830000     0.0574540000     2.5312730000
    3      C       1.2159830000     1.0709540000     1.7481730000
    4      C       0.0151830000     0.0648540000    -0.0441270000
    5      C       1.0780830000     0.9587540000     0.3422730000
    6      C      -0.0346170000     0.0209540000    -1.4655270000
    7      C       0.9342830000     0.8340540000    -2.0863270000
    8      S       1.8877830000     1.6384540000    -0.9451270000
    9      C       1.1321830000     0.9940540000    -3.5394270000
   10      O       0.4189830000     0.3917540000    -4.3297270000
   11      O       2.1172830000     1.8163540000    -3.9838270000
   12      F      -0.8855170000    -0.6982460000    -2.2257270000
   13      C       2.3985830000     2.0391540000    -5.3144270000
   14      H       3.2453830000     2.7489540000    -5.3497270000
   15      H       1.5275830000     2.4714540000    -5.8550270000
   16      H       2.6775830000     1.0998540000    -5.8413270000
   17      C      -0.6805170000    -1.9541460000     1.0205730000
   18      H      -0.6720170000    -1.9631460000     2.1004730000
   19      H      -1.5164170000    -2.6380460000     1.0209730000
   20      H       0.2635830000    -2.4785460000     1.0125730000
   21      H       1.9207830000     1.6622540000     2.3420730000
 ----------------------------------------------------------------

   11   -1389.1998170378      7.39e-07  Convergence criterion met
 Total energy in the final basis set =    -1389.1998170378
        RIMP2         total energy =     -1391.7200866135 a.u.

                    Orbital Energies (a.u.)
 --------------------------------------------------------------

 Alpha MOs
 -- Occupied --
-92.0063 -91.9964 -26.3323 -20.6131 -20.5524 -11.4119 -11.3730 -11.3057
-11.3018 -11.2924 -11.2890 -11.2782 -11.2770 -11.2180  -9.0058  -9.0003
 -6.6864  -6.6855  -6.6853  -6.6815  -6.6809  -6.6796  -1.6453  -1.4730
 -1.3687  -1.2321  -1.1530  -1.0666  -1.0324  -1.0015  -0.9710  -0.9034
 -0.8681  -0.7982  -0.7858  -0.7723  -0.7285  -0.7141  -0.6962  -0.6793
 -0.6739  -0.6714  -0.6094  -0.6071  -0.6000  -0.5897  -0.5751  -0.5625
 -0.5355  -0.5273  -0.5080  -0.4853  -0.4695  -0.4627  -0.4621  -0.4473
 -0.3912  -0.3411  -0.2888

          Ground-State Mulliken Net Atomic Charges

     Atom                 Charge (a.u.)
  ----------------------------------------
      1 C                    -0.066297
      2 S                     0.098607
      3 C                    -0.196676
      4 C                    -0.046169
      5 C                    -0.018786
      6 C                     0.355450
      7 C                    -0.142354
      8 S                     0.048522
      9 C                     0.455937
     10 O                    -0.445501
     11 O                    -0.297227
     12 F                    -0.210381
     13 C                    -0.054612
     14 H                     0.116826
     15 H                     0.084845
     16 H                     0.084692
     17 C                    -0.360433
     18 H                     0.111328
     19 H                     0.136692
     20 H                     0.130231
     21 H                     0.215307
  ----------------------------------------
  Sum of atomic charges =     0.000000

                    Cartesian Multipole Moments
 -----------------------------------------------------------------
    Charge (ESU x 10^10)
                -0.0000
    Dipole Moment (Debye)
         X       3.4302      Y       1.4178      Z       3.6565
       Tot       5.2102
    Quadrupole Moments (Debye-Ang)
        XX     -90.5845     XY       5.5315     YY     -89.2863
        XZ      -7.7242     YZ      -8.7030     ZZ     -92.8457

 Total job time:  55.25s(wall), 1973.62s(cpu)
        *  Thank you very much for using Q-Chem.  Have a nice day.  *
