 Q-Chem 5.4, Q-Chem, Inc., Pleasanton, CA (2021)
 Q-Chem 5.4.0 for Intel X86 EM64T Linux

User input:
--------------------------------------------------------------
$molecule
0 1
C	-0.081166	-0.833466	1.023963
S	-0.000566	0.062334	2.534663
C	0.135634	1.631734	1.751563
C	-0.002066	0.071334	-0.040737
C	0.117534	1.454934	0.345663
C	-0.006166	0.005034	-1.462137
C	0.103934	1.265034	-2.082937
S	0.209334	2.508134	-0.941737
C	0.130734	1.518134	-3.536037
O	0.052334	0.587934	-4.326337
O	0.245834	2.796134	-3.980437
F	-0.099366	-1.105166	-2.222337
C	0.287234	3.152634	-5.311037
H	0.384134	4.253334	-5.346337
H	-0.634266	2.842434	-5.851637
H	1.148734	2.685834	-5.837937
C	-0.081166	-2.268666	1.023963
H	0.930734	-2.277666	0.646663
H	0.205034	-2.952566	1.809263
H	-0.411566	-2.793066	0.139563
H	0.215934	2.548234	2.345463
$end

$rem
JOBTYPE		SP
EXCHANGE	HF
CORRELATION	pRIMP2
BASIS		cc-pvtz
METHOD		rimp2
AUX_BASIS	rimp2-cc-pvtz
SOLVENT_METHOD	PCM
PURECART	11111
SYMMETRY	false
MEM_TOTAL	110000
SCF_CONVERGENCE = 6
THRESH=10
GUI = 2
$end

$solvent
dielectric 4.90
$end
--------------------------------------------------------------

             Standard Nuclear Orientation (Angstroms)
    I     Atom           X                Y                Z
 ----------------------------------------------------------------
    1      C      -0.0811660000    -0.8334660000     1.0239630000
    2      S      -0.0005660000     0.0623340000     2.5346630000
    3      C       0.1356340000     1.6317340000     1.7515630000
    4      C      -0.0020660000     0.0713340000    -0.0407370000
    5      C       0.1175340000     1.4549340000     0.3456630000
    6      C      -0.0061660000     0.0050340000    -1.4621370000
    7      C       0.1039340000     1.2650340000    -2.0829370000
    8      S       0.2093340000     2.5081340000    -0.9417370000
    9      C       0.1307340000     1.5181340000    -3.5360370000
   10      O       0.0523340000     0.5879340000    -4.3263370000
   11      O       0.2458340000     2.7961340000    -3.9804370000
   12      F      -0.0993660000    -1.1051660000    -2.2223370000
   13      C       0.2872340000     3.1526340000    -5.3110370000
   14      H       0.3841340000     4.2533340000    -5.3463370000
   15      H      -0.6342660000     2.8424340000    -5.8516370000
   16      H       1.1487340000     2.6858340000    -5.8379370000
   17      C      -0.0811660000    -2.2686660000     1.0239630000
   18      H       0.9307340000    -2.2776660000     0.6466630000
   19      H       0.2050340000    -2.9525660000     1.8092630000
   20      H      -0.4115660000    -2.7930660000     0.1395630000
   21      H       0.2159340000     2.5482340000     2.3454630000
 ----------------------------------------------------------------

   11   -1389.2569757236      4.24e-07  Convergence criterion met
 Total energy in the final basis set =    -1389.2569757236
        RIMP2         total energy =     -1391.7594697602 a.u.

                    Orbital Energies (a.u.)
 --------------------------------------------------------------

 Alpha MOs
 -- Occupied --
-92.0065 -91.9880 -26.3349 -20.6090 -20.5446 -11.4056 -11.3768 -11.3218
-11.2917 -11.2870 -11.2862 -11.2730 -11.2666 -11.2364  -9.0052  -8.9922
 -6.6860  -6.6854  -6.6849  -6.6735  -6.6728  -6.6715  -1.6478  -1.4684
 -1.3631  -1.2262  -1.1466  -1.0681  -1.0264  -1.0067  -0.9673  -0.9116
 -0.8622  -0.7956  -0.7845  -0.7654  -0.7258  -0.7154  -0.6969  -0.6776
 -0.6760  -0.6670  -0.6107  -0.6025  -0.5931  -0.5922  -0.5848  -0.5608
 -0.5366  -0.5231  -0.5124  -0.4943  -0.4779  -0.4634  -0.4587  -0.4561
 -0.3902  -0.3467  -0.2725

          Ground-State Mulliken Net Atomic Charges

     Atom                 Charge (a.u.)
  ----------------------------------------
      1 C                     0.056453
      2 S                     0.083936
      3 C                    -0.282363
      4 C                    -0.102257
      5 C                    -0.007479
      6 C                     0.392285
      7 C                    -0.171650
      8 S                     0.022927
      9 C                     0.460214
     10 O                    -0.460074
     11 O                    -0.299185
     12 F                    -0.214316
     13 C                    -0.055078
     14 H                     0.115928
     15 H                     0.083565
     16 H                     0.083344
     17 C                    -0.385199
     18 H                     0.148189
     19 H                     0.170996
     20 H                     0.150930
     21 H                     0.208834
  ----------------------------------------
  Sum of atomic charges =     0.000000

                    Cartesian Multipole Moments
 -----------------------------------------------------------------
    Charge (ESU x 10^10)
                -0.0000
    Dipole Moment (Debye)
         X       0.8968      Y       0.0861      Z       3.5380
       Tot       3.6510
    Quadrupole Moments (Debye-Ang)
        XX     -96.5682     XY      -0.8632     YY     -81.7466
        XZ      -0.0305     YZ     -12.1358     ZZ     -97.5621

 Total job time:  65.45s(wall), 2686.28s(cpu)
        *  Thank you very much for using Q-Chem.  Have a nice day.  *
