 Q-Chem 5.4, Q-Chem, Inc., Pleasanton, CA (2021)
 Q-Chem 5.4.0 for Intel X86 EM64T Linux

User input:
--------------------------------------------------------------
$molecule
0 1
C	-0.001541	-0.836989	1.025267
S	0.000659	0.062411	2.535967
C	-0.000341	1.637711	1.752867
C	-0.001541	0.071211	-0.039433
C	-0.003041	1.460011	0.346967
C	0.000059	0.004811	-1.460833
C	-0.000041	1.269711	-2.081633
S	-0.003341	2.517211	-0.940433
C	0.004659	1.524111	-3.534733
O	0.007659	0.590611	-4.325033
O	0.007859	2.807311	-3.979133
F	0.003959	-1.109289	-2.221033
C	0.018059	3.166011	-5.309733
H	0.018659	4.271011	-5.345033
H	-0.872941	2.776711	-5.850333
H	0.916959	2.776111	-5.836633
C	-0.001541	-2.272189	1.025267
H	-0.010041	-2.281189	-0.054633
H	0.834359	-2.956089	1.024867
H	-0.945641	-2.796589	1.033267
H	-0.000341	2.557811	2.346767
$end

$rem
JOBTYPE		SP
EXCHANGE	HF
CORRELATION	pRIMP2
BASIS		cc-pvtz
METHOD		rimp2
AUX_BASIS	rimp2-cc-pvtz
SOLVENT_METHOD	PCM
PURECART	11111
SYMMETRY	false
MEM_TOTAL	110000
SCF_CONVERGENCE = 6
THRESH=10
GUI = 2
$end

$solvent
dielectric 4.90
$end
--------------------------------------------------------------

             Standard Nuclear Orientation (Angstroms)
    I     Atom           X                Y                Z
 ----------------------------------------------------------------
    1      C      -0.0015410000    -0.8369890000     1.0252670000
    2      S       0.0006590000     0.0624110000     2.5359670000
    3      C      -0.0003410000     1.6377110000     1.7528670000
    4      C      -0.0015410000     0.0712110000    -0.0394330000
    5      C      -0.0030410000     1.4600110000     0.3469670000
    6      C       0.0000590000     0.0048110000    -1.4608330000
    7      C      -0.0000410000     1.2697110000    -2.0816330000
    8      S      -0.0033410000     2.5172110000    -0.9404330000
    9      C       0.0046590000     1.5241110000    -3.5347330000
   10      O       0.0076590000     0.5906110000    -4.3250330000
   11      O       0.0078590000     2.8073110000    -3.9791330000
   12      F       0.0039590000    -1.1092890000    -2.2210330000
   13      C       0.0180590000     3.1660110000    -5.3097330000
   14      H       0.0186590000     4.2710110000    -5.3450330000
   15      H      -0.8729410000     2.7767110000    -5.8503330000
   16      H       0.9169590000     2.7761110000    -5.8366330000
   17      C      -0.0015410000    -2.2721890000     1.0252670000
   18      H      -0.0100410000    -2.2811890000    -0.0546330000
   19      H       0.8343590000    -2.9560890000     1.0248670000
   20      H      -0.9456410000    -2.7965890000     1.0332670000
   21      H      -0.0003410000     2.5578110000     2.3467670000
 ----------------------------------------------------------------

   11   -1389.2546133810      5.00e-07  Convergence criterion met
 Total energy in the final basis set =    -1389.2546133810
        RIMP2         total energy =     -1391.7618067161 a.u.

                    Orbital Energies (a.u.)
 --------------------------------------------------------------

 Alpha MOs
 -- Occupied --
-92.0037 -91.9909 -26.3359 -20.6111 -20.5484 -11.4088 -11.3768 -11.3086
-11.2933 -11.2915 -11.2881 -11.2839 -11.2742 -11.2276  -9.0026  -8.9951
 -6.6833  -6.6827  -6.6824  -6.6763  -6.6757  -6.6743  -1.6492  -1.4707
 -1.3659  -1.2281  -1.1450  -1.0680  -1.0271  -1.0064  -0.9687  -0.9117
 -0.8639  -0.7961  -0.7868  -0.7673  -0.7269  -0.7169  -0.6976  -0.6785
 -0.6778  -0.6695  -0.6089  -0.6049  -0.5979  -0.5882  -0.5779  -0.5708
 -0.5448  -0.5249  -0.5047  -0.4813  -0.4710  -0.4634  -0.4606  -0.4527
 -0.3980  -0.3453  -0.2829

          Ground-State Mulliken Net Atomic Charges

     Atom                 Charge (a.u.)
  ----------------------------------------
      1 C                     0.046668
      2 S                     0.080627
      3 C                    -0.250919
      4 C                    -0.102379
      5 C                    -0.012076
      6 C                     0.378537
      7 C                    -0.144090
      8 S                     0.029911
      9 C                     0.458080
     10 O                    -0.453973
     11 O                    -0.298140
     12 F                    -0.214559
     13 C                    -0.055018
     14 H                     0.116503
     15 H                     0.084103
     16 H                     0.084023
     17 C                    -0.366442
     18 H                     0.114242
     19 H                     0.154670
     20 H                     0.139699
     21 H                     0.210535
  ----------------------------------------
  Sum of atomic charges =     0.000000

                    Cartesian Multipole Moments
 -----------------------------------------------------------------
    Charge (ESU x 10^10)
                -0.0000
    Dipole Moment (Debye)
         X      -0.0176      Y       1.1594      Z       2.7542
       Tot       2.9883
    Quadrupole Moments (Debye-Ang)
        XX     -95.8469     XY      -0.0104     YY     -82.0603
        XZ      -0.0625     YZ     -10.5568     ZZ     -97.6601

 Total job time:  53.34s(wall), 1939.43s(cpu)
        *  Thank you very much for using Q-Chem.  Have a nice day.  *
