 Q-Chem 5.4, Q-Chem, Inc., Pleasanton, CA (2021)
 Q-Chem 5.4.0 for Intel X86 EM64T Linux

User input:
--------------------------------------------------------------
$molecule
0 1
C	-0.373923	-0.753180	1.023076
S	0.008177	0.061020	2.533776
C	0.672977	1.489220	1.750676
C	0.009877	0.069920	-0.041624
C	0.595477	1.329320	0.344776
C	-0.016723	0.009120	-1.463024
C	0.517777	1.155520	-2.083824
S	1.041977	2.287520	-0.942624
C	0.629577	1.384120	-3.536924
O	0.237677	0.536820	-4.327224
O	1.174777	2.545720	-3.981324
F	-0.484023	-1.002280	-2.223224
C	1.335577	2.866520	-5.311924
H	1.803077	3.867720	-5.347224
H	0.363477	2.890220	-5.852524
H	1.985477	2.133220	-5.838824
C	-0.373923	-2.188380	1.023076
H	-1.438923	-2.197380	0.843876
H	-0.229123	-2.872280	0.199876
H	-0.530023	-2.712780	1.954276
H	1.061877	2.323020	2.344576
$end

$rem
JOBTYPE		SP
EXCHANGE	HF
CORRELATION	pRIMP2
BASIS		cc-pvtz
METHOD		rimp2
AUX_BASIS	rimp2-cc-pvtz
SOLVENT_METHOD	PCM
PURECART	11111
SYMMETRY	false
MEM_TOTAL	110000
SCF_CONVERGENCE = 6
THRESH=10
GUI = 2
$end

$solvent
dielectric 4.90
$end
--------------------------------------------------------------

             Standard Nuclear Orientation (Angstroms)
    I     Atom           X                Y                Z
 ----------------------------------------------------------------
    1      C      -0.3739230000    -0.7531800000     1.0230760000
    2      S       0.0081770000     0.0610200000     2.5337760000
    3      C       0.6729770000     1.4892200000     1.7506760000
    4      C       0.0098770000     0.0699200000    -0.0416240000
    5      C       0.5954770000     1.3293200000     0.3447760000
    6      C      -0.0167230000     0.0091200000    -1.4630240000
    7      C       0.5177770000     1.1555200000    -2.0838240000
    8      S       1.0419770000     2.2875200000    -0.9426240000
    9      C       0.6295770000     1.3841200000    -3.5369240000
   10      O       0.2376770000     0.5368200000    -4.3272240000
   11      O       1.1747770000     2.5457200000    -3.9813240000
   12      F      -0.4840230000    -1.0022800000    -2.2232240000
   13      C       1.3355770000     2.8665200000    -5.3119240000
   14      H       1.8030770000     3.8677200000    -5.3472240000
   15      H       0.3634770000     2.8902200000    -5.8525240000
   16      H       1.9854770000     2.1332200000    -5.8388240000
   17      C      -0.3739230000    -2.1883800000     1.0230760000
   18      H      -1.4389230000    -2.1973800000     0.8438760000
   19      H      -0.2291230000    -2.8722800000     0.1998760000
   20      H      -0.5300230000    -2.7127800000     1.9542760000
   21      H       1.0618770000     2.3230200000     2.3445760000
 ----------------------------------------------------------------

   11   -1389.2399872013      4.83e-07  Convergence criterion met
 Total energy in the final basis set =    -1389.2399872013
        RIMP2         total energy =     -1391.7477035078 a.u.

                    Orbital Energies (a.u.)
 --------------------------------------------------------------

 Alpha MOs
 -- Occupied --
-92.0059 -91.9890 -26.3342 -20.6095 -20.5457 -11.4064 -11.3759 -11.3126
-11.2917 -11.2886 -11.2873 -11.2790 -11.2684 -11.2308  -9.0047  -8.9932
 -6.6855  -6.6849  -6.6844  -6.6745  -6.6738  -6.6724  -1.6472  -1.4690
 -1.3639  -1.2266  -1.1467  -1.0667  -1.0272  -1.0057  -0.9676  -0.9110
 -0.8629  -0.7958  -0.7846  -0.7663  -0.7258  -0.7150  -0.6958  -0.6774
 -0.6764  -0.6675  -0.6084  -0.6032  -0.5934  -0.5866  -0.5834  -0.5587
 -0.5363  -0.5225  -0.5174  -0.4948  -0.4792  -0.4602  -0.4572  -0.4550
 -0.3877  -0.3461  -0.2724

          Ground-State Mulliken Net Atomic Charges

     Atom                 Charge (a.u.)
  ----------------------------------------
      1 C                     0.034608
      2 S                     0.093172
      3 C                    -0.268142
      4 C                    -0.102916
      5 C                    -0.006562
      6 C                     0.373948
      7 C                    -0.165924
      8 S                     0.029583
      9 C                     0.457332
     10 O                    -0.457457
     11 O                    -0.298904
     12 F                    -0.212058
     13 C                    -0.054781
     14 H                     0.116038
     15 H                     0.083605
     16 H                     0.083572
     17 C                    -0.376667
     18 H                     0.144116
     19 H                     0.171251
     20 H                     0.146645
     21 H                     0.209539
  ----------------------------------------
  Sum of atomic charges =     0.000000

                    Cartesian Multipole Moments
 -----------------------------------------------------------------
    Charge (ESU x 10^10)
                -0.0000
    Dipole Moment (Debye)
         X       0.3170      Y       0.3721      Z       3.5731
       Tot       3.6063
    Quadrupole Moments (Debye-Ang)
        XX     -94.4577     XY       5.6637     YY     -83.8790
        XZ      -5.3445     YZ     -10.9197     ZZ     -96.6895

 Total job time:  53.23s(wall), 1915.86s(cpu)
        *  Thank you very much for using Q-Chem.  Have a nice day.  *
