 Q-Chem 5.4, Q-Chem, Inc., Pleasanton, CA (2021)
 Q-Chem 5.4.0 for Intel X86 EM64T Linux

User input:
--------------------------------------------------------------
$molecule
0 1
C	-0.570262	-0.628442	1.020760
S	0.009638	0.059158	2.531460
C	1.021338	1.266558	1.748360
C	0.013538	0.067358	-0.043940
C	0.905038	1.132158	0.342460
C	-0.027862	0.015358	-1.465340
C	0.785038	0.984358	-2.086140
S	1.584338	1.942158	-0.944940
C	0.952138	1.176358	-3.539240
O	0.354438	0.459358	-4.329540
O	1.779438	2.157258	-3.983640
F	-0.741062	-0.840542	-2.225540
C	2.017838	2.425458	-5.314240
H	2.728538	3.271558	-5.349540
H	1.085038	2.699958	-5.854840
H	2.455738	1.548958	-5.841140
C	-0.570262	-2.063642	1.020760
H	-1.102862	-2.072642	1.960260
H	-1.294362	-2.747542	0.603160
H	0.251338	-2.588042	1.485860
H	1.612838	1.971358	2.342260
$end

$rem
JOBTYPE		SP
EXCHANGE	HF
CORRELATION	pRIMP2
BASIS		cc-pvtz
METHOD		rimp2
AUX_BASIS	rimp2-cc-pvtz
SOLVENT_METHOD	PCM
PURECART	11111
SYMMETRY	false
MEM_TOTAL	110000
SCF_CONVERGENCE = 6
THRESH=10
GUI = 2
$end

$solvent
dielectric 4.90
$end
--------------------------------------------------------------

             Standard Nuclear Orientation (Angstroms)
    I     Atom           X                Y                Z
 ----------------------------------------------------------------
    1      C      -0.5702620000    -0.6284420000     1.0207600000
    2      S       0.0096380000     0.0591580000     2.5314600000
    3      C       1.0213380000     1.2665580000     1.7483600000
    4      C       0.0135380000     0.0673580000    -0.0439400000
    5      C       0.9050380000     1.1321580000     0.3424600000
    6      C      -0.0278620000     0.0153580000    -1.4653400000
    7      C       0.7850380000     0.9843580000    -2.0861400000
    8      S       1.5843380000     1.9421580000    -0.9449400000
    9      C       0.9521380000     1.1763580000    -3.5392400000
   10      O       0.3544380000     0.4593580000    -4.3295400000
   11      O       1.7794380000     2.1572580000    -3.9836400000
   12      F      -0.7410620000    -0.8405420000    -2.2255400000
   13      C       2.0178380000     2.4254580000    -5.3142400000
   14      H       2.7285380000     3.2715580000    -5.3495400000
   15      H       1.0850380000     2.6999580000    -5.8548400000
   16      H       2.4557380000     1.5489580000    -5.8411400000
   17      C      -0.5702620000    -2.0636420000     1.0207600000
   18      H      -1.1028620000    -2.0726420000     1.9602600000
   19      H      -1.2943620000    -2.7475420000     0.6031600000
   20      H       0.2513380000    -2.5880420000     1.4858600000
   21      H       1.6128380000     1.9713580000     2.3422600000
 ----------------------------------------------------------------

   11   -1389.2213953356      6.32e-07  Convergence criterion met
 Total energy in the final basis set =    -1389.2213953356
        RIMP2         total energy =     -1391.7367879259 a.u.

                    Orbital Energies (a.u.)
 --------------------------------------------------------------

 Alpha MOs
 -- Occupied --
-92.0083 -91.9934 -26.3325 -20.6118 -20.5500 -11.4099 -11.3738 -11.2969
-11.2966 -11.2923 -11.2899 -11.2883 -11.2729 -11.2224  -9.0072  -8.9974
 -6.6879  -6.6873  -6.6869  -6.6787  -6.6780  -6.6767  -1.6455  -1.4715
 -1.3669  -1.2294  -1.1495  -1.0653  -1.0305  -1.0031  -0.9696  -0.9072
 -0.8660  -0.7971  -0.7851  -0.7698  -0.7272  -0.7139  -0.6952  -0.6782
 -0.6741  -0.6698  -0.6093  -0.6058  -0.5961  -0.5881  -0.5809  -0.5621
 -0.5350  -0.5264  -0.5070  -0.4826  -0.4720  -0.4619  -0.4600  -0.4583
 -0.3895  -0.3453  -0.2836

          Ground-State Mulliken Net Atomic Charges

     Atom                 Charge (a.u.)
  ----------------------------------------
      1 C                    -0.043972
      2 S                     0.095731
      3 C                    -0.220754
      4 C                    -0.047186
      5 C                    -0.013332
      6 C                     0.354886
      7 C                    -0.150227
      8 S                     0.040517
      9 C                     0.456510
     10 O                    -0.449613
     11 O                    -0.297821
     12 F                    -0.210487
     13 C                    -0.054641
     14 H                     0.116516
     15 H                     0.084441
     16 H                     0.084270
     17 C                    -0.362131
     18 H                     0.110519
     19 H                     0.152302
     20 H                     0.140904
     21 H                     0.213566
  ----------------------------------------
  Sum of atomic charges =     0.000000

                    Cartesian Multipole Moments
 -----------------------------------------------------------------
    Charge (ESU x 10^10)
                -0.0000
    Dipole Moment (Debye)
         X       2.1304      Y       1.3175      Z       3.7993
       Tot       4.5508
    Quadrupole Moments (Debye-Ang)
        XX     -91.9714     XY       6.0731     YY     -87.0059
        XZ      -6.6401     YZ      -9.9829     ZZ     -94.0064

 Total job time:  59.37s(wall), 1920.11s(cpu)
        *  Thank you very much for using Q-Chem.  Have a nice day.  *
