 Q-Chem 5.4, Q-Chem, Inc., Pleasanton, CA (2021)
 Q-Chem 5.4.0 for Intel X86 EM64T Linux

User input:
--------------------------------------------------------------
$molecule
0 1
C	-0.446202	-0.717327	1.021016
S	0.005398	0.060473	2.531716
C	0.792198	1.425273	1.748616
C	0.007898	0.069273	-0.043684
C	0.700998	1.272673	0.342716
C	-0.023902	0.010873	-1.465084
C	0.608398	1.106373	-2.085884
S	1.229298	2.188373	-0.944684
C	0.739698	1.324373	-3.538984
O	0.275498	0.514473	-4.329284
O	1.384098	2.434073	-3.983384
F	-0.577502	-0.955927	-2.225284
C	1.572298	2.739673	-5.313984
H	2.125298	3.696273	-5.349284
H	0.605998	2.847873	-5.854584
H	2.155698	1.952473	-5.840884
C	-0.446202	-2.152527	1.021016
H	0.101098	-2.161527	1.952016
H	-1.169902	-2.836427	1.439216
H	0.367398	-2.676927	0.542016
H	1.252198	2.221973	2.342516
$end

$rem
JOBTYPE		SP
EXCHANGE	HF
CORRELATION	pRIMP2
BASIS		cc-pvtz
METHOD		rimp2
AUX_BASIS	rimp2-cc-pvtz
SOLVENT_METHOD	PCM
PURECART	11111
SYMMETRY	false
MEM_TOTAL	110000
SCF_CONVERGENCE = 6
THRESH=10
GUI = 2
$end

$solvent
dielectric 4.90
$end
--------------------------------------------------------------

             Standard Nuclear Orientation (Angstroms)
    I     Atom           X                Y                Z
 ----------------------------------------------------------------
    1      C      -0.4462020000    -0.7173270000     1.0210160000
    2      S       0.0053980000     0.0604730000     2.5317160000
    3      C       0.7921980000     1.4252730000     1.7486160000
    4      C       0.0078980000     0.0692730000    -0.0436840000
    5      C       0.7009980000     1.2726730000     0.3427160000
    6      C      -0.0239020000     0.0108730000    -1.4650840000
    7      C       0.6083980000     1.1063730000    -2.0858840000
    8      S       1.2292980000     2.1883730000    -0.9446840000
    9      C       0.7396980000     1.3243730000    -3.5389840000
   10      O       0.2754980000     0.5144730000    -4.3292840000
   11      O       1.3840980000     2.4340730000    -3.9833840000
   12      F      -0.5775020000    -0.9559270000    -2.2252840000
   13      C       1.5722980000     2.7396730000    -5.3139840000
   14      H       2.1252980000     3.6962730000    -5.3492840000
   15      H       0.6059980000     2.8478730000    -5.8545840000
   16      H       2.1556980000     1.9524730000    -5.8408840000
   17      C      -0.4462020000    -2.1525270000     1.0210160000
   18      H       0.1010980000    -2.1615270000     1.9520160000
   19      H      -1.1699020000    -2.8364270000     1.4392160000
   20      H       0.3673980000    -2.6769270000     0.5420160000
   21      H       1.2521980000     2.2219730000     2.3425160000
 ----------------------------------------------------------------

   11   -1389.2332228092      5.24e-07  Convergence criterion met
 Total energy in the final basis set =    -1389.2332228092
        RIMP2         total energy =     -1391.7434343144 a.u.

                    Orbital Energies (a.u.)
 --------------------------------------------------------------

 Alpha MOs
 -- Occupied --
-92.0046 -91.9908 -26.3331 -20.6111 -20.5486 -11.4088 -11.3752 -11.3026
-11.2941 -11.2913 -11.2881 -11.2880 -11.2724 -11.2254  -9.0041  -8.9950
 -6.6848  -6.6841  -6.6837  -6.6763  -6.6756  -6.6743  -1.6461  -1.4707
 -1.3659  -1.2285  -1.1493  -1.0656  -1.0301  -1.0037  -0.9690  -0.9075
 -0.8652  -0.7970  -0.7847  -0.7689  -0.7269  -0.7142  -0.6955  -0.6776
 -0.6758  -0.6687  -0.6088  -0.6049  -0.5992  -0.5883  -0.5696  -0.5674
 -0.5432  -0.5254  -0.5081  -0.4853  -0.4791  -0.4609  -0.4596  -0.4512
 -0.3945  -0.3447  -0.2800

          Ground-State Mulliken Net Atomic Charges

     Atom                 Charge (a.u.)
  ----------------------------------------
      1 C                     0.033654
      2 S                     0.081139
      3 C                    -0.240102
      4 C                    -0.100055
      5 C                    -0.012082
      6 C                     0.376474
      7 C                    -0.161849
      8 S                     0.032182
      9 C                     0.458002
     10 O                    -0.452101
     11 O                    -0.298112
     12 F                    -0.210640
     13 C                    -0.054838
     14 H                     0.116400
     15 H                     0.084237
     16 H                     0.084097
     17 C                    -0.377628
     18 H                     0.131595
     19 H                     0.150045
     20 H                     0.147925
     21 H                     0.211657
  ----------------------------------------
  Sum of atomic charges =     0.000000

                    Cartesian Multipole Moments
 -----------------------------------------------------------------
    Charge (ESU x 10^10)
                -0.0000
    Dipole Moment (Debye)
         X       1.9460      Y       1.0308      Z       3.9365
       Tot       4.5106
    Quadrupole Moments (Debye-Ang)
        XX     -94.1400     XY       3.6558     YY     -85.1919
        XZ      -5.3093     YZ     -11.8615     ZZ     -94.5539

 Total job time:  53.37s(wall), 1946.28s(cpu)
        *  Thank you very much for using Q-Chem.  Have a nice day.  *
