 Q-Chem 5.4, Q-Chem, Inc., Pleasanton, CA (2021)
 Q-Chem 5.4.0 for Intel X86 EM64T Linux

User input:
--------------------------------------------------------------
$molecule
0 1
C	-0.680921	-0.518946	1.020653
S	0.009479	0.057454	2.531353
C	1.215579	1.070954	1.748253
C	0.014779	0.064854	-0.044047
C	1.077679	0.958754	0.342353
C	-0.035021	0.020954	-1.465447
C	0.933879	0.834054	-2.086247
S	1.887379	1.638454	-0.945047
C	1.131779	0.994054	-3.539347
O	0.418579	0.391754	-4.329647
O	2.116879	1.816354	-3.983747
F	-0.885921	-0.698246	-2.225647
C	2.398179	2.039154	-5.314347
H	3.244979	2.748954	-5.349647
H	1.527179	2.471454	-5.854947
H	2.677179	1.099854	-5.841247
C	-0.680921	-1.954146	1.020653
H	-0.485021	-1.963146	2.082753
H	-1.504021	-2.638046	1.166153
H	0.247479	-2.478546	0.848853
H	1.920379	1.662254	2.342153
$end

$rem
JOBTYPE		SP
EXCHANGE	HF
CORRELATION	pRIMP2
BASIS		cc-pvtz
METHOD		rimp2
AUX_BASIS	rimp2-cc-pvtz
SOLVENT_METHOD	PCM
PURECART	11111
SYMMETRY	false
MEM_TOTAL	110000
SCF_CONVERGENCE = 6
THRESH=10
GUI = 2
$end

$solvent
dielectric 4.90
$end
--------------------------------------------------------------

             Standard Nuclear Orientation (Angstroms)
    I     Atom           X                Y                Z
 ----------------------------------------------------------------
    1      C      -0.6809210000    -0.5189460000     1.0206530000
    2      S       0.0094790000     0.0574540000     2.5313530000
    3      C       1.2155790000     1.0709540000     1.7482530000
    4      C       0.0147790000     0.0648540000    -0.0440470000
    5      C       1.0776790000     0.9587540000     0.3423530000
    6      C      -0.0350210000     0.0209540000    -1.4654470000
    7      C       0.9338790000     0.8340540000    -2.0862470000
    8      S       1.8873790000     1.6384540000    -0.9450470000
    9      C       1.1317790000     0.9940540000    -3.5393470000
   10      O       0.4185790000     0.3917540000    -4.3296470000
   11      O       2.1168790000     1.8163540000    -3.9837470000
   12      F      -0.8859210000    -0.6982460000    -2.2256470000
   13      C       2.3981790000     2.0391540000    -5.3143470000
   14      H       3.2449790000     2.7489540000    -5.3496470000
   15      H       1.5271790000     2.4714540000    -5.8549470000
   16      H       2.6771790000     1.0998540000    -5.8412470000
   17      C      -0.6809210000    -1.9541460000     1.0206530000
   18      H      -0.4850210000    -1.9631460000     2.0827530000
   19      H      -1.5040210000    -2.6380460000     1.1661530000
   20      H       0.2474790000    -2.4785460000     0.8488530000
   21      H       1.9203790000     1.6622540000     2.3421530000
 ----------------------------------------------------------------

   11   -1389.1970120004      7.23e-07  Convergence criterion met
 Total energy in the final basis set =    -1389.1970120004
        RIMP2         total energy =     -1391.7173902412 a.u.

                    Orbital Energies (a.u.)
 --------------------------------------------------------------

 Alpha MOs
 -- Occupied --
-92.0048 -91.9962 -26.3324 -20.6132 -20.5525 -11.4120 -11.3733 -11.3052
-11.3020 -11.2922 -11.2890 -11.2792 -11.2780 -11.2171  -9.0046  -9.0001
 -6.6852  -6.6843  -6.6841  -6.6813  -6.6807  -6.6794  -1.6454  -1.4731
 -1.3688  -1.2323  -1.1535  -1.0667  -1.0326  -1.0013  -0.9711  -0.9029
 -0.8682  -0.7984  -0.7859  -0.7724  -0.7286  -0.7142  -0.6963  -0.6793
 -0.6742  -0.6714  -0.6091  -0.6070  -0.6006  -0.5901  -0.5728  -0.5627
 -0.5368  -0.5273  -0.5087  -0.4859  -0.4741  -0.4627  -0.4622  -0.4427
 -0.3918  -0.3402  -0.2875

          Ground-State Mulliken Net Atomic Charges

     Atom                 Charge (a.u.)
  ----------------------------------------
      1 C                    -0.061908
      2 S                     0.095121
      3 C                    -0.196364
      4 C                    -0.049988
      5 C                    -0.020539
      6 C                     0.362199
      7 C                    -0.143872
      8 S                     0.047162
      9 C                     0.456351
     10 O                    -0.445370
     11 O                    -0.297162
     12 F                    -0.210356
     13 C                    -0.054609
     14 H                     0.116844
     15 H                     0.084876
     16 H                     0.084702
     17 C                    -0.369586
     18 H                     0.119346
     19 H                     0.135210
     20 H                     0.133050
     21 H                     0.214895
  ----------------------------------------
  Sum of atomic charges =     0.000000

                    Cartesian Multipole Moments
 -----------------------------------------------------------------
    Charge (ESU x 10^10)
                -0.0000
    Dipole Moment (Debye)
         X       3.5135      Y       1.3776      Z       3.6460
       Tot       5.2475
    Quadrupole Moments (Debye-Ang)
        XX     -90.7676     XY       5.2206     YY     -89.3691
        XZ      -7.7473     YZ      -8.8406     ZZ     -92.7835

 Total job time:  56.28s(wall), 2018.01s(cpu)
        *  Thank you very much for using Q-Chem.  Have a nice day.  *
