 Q-Chem 5.4, Q-Chem, Inc., Pleasanton, CA (2021)
 Q-Chem 5.4.0 for Intel X86 EM64T Linux

User input:
--------------------------------------------------------------
$molecule
0 1
C	-0.572848	-0.628442	1.024624
S	0.007052	0.059158	2.535324
C	1.018752	1.266558	1.752224
C	0.010952	0.067358	-0.040076
C	0.902452	1.132158	0.346324
C	-0.030448	0.015358	-1.461476
C	0.782452	0.984358	-2.082276
S	1.581752	1.942158	-0.941076
C	0.949552	1.176358	-3.535376
O	0.351852	0.459358	-4.325676
O	1.776852	2.157258	-3.979776
F	-0.743648	-0.840542	-2.221676
C	2.015252	2.425458	-5.310376
H	2.725952	3.271558	-5.345676
H	1.082452	2.699958	-5.850976
H	2.453152	1.548958	-5.837276
C	-0.572848	-2.063642	1.024624
H	0.248952	-2.072642	0.324024
H	-0.035248	-2.747542	1.664724
H	-1.185848	-2.588042	0.306524
H	1.610252	1.971358	2.346124
$end

$rem
JOBTYPE		SP
EXCHANGE	HF
CORRELATION	pRIMP2
BASIS		cc-pvtz
METHOD		rimp2
AUX_BASIS	rimp2-cc-pvtz
SOLVENT_METHOD	PCM
PURECART	11111
SYMMETRY	false
MEM_TOTAL	110000
SCF_CONVERGENCE = 6
THRESH=10
GUI = 2
$end

$solvent
dielectric 4.90
$end
--------------------------------------------------------------

             Standard Nuclear Orientation (Angstroms)
    I     Atom           X                Y                Z
 ----------------------------------------------------------------
    1      C      -0.5728480000    -0.6284420000     1.0246240000
    2      S       0.0070520000     0.0591580000     2.5353240000
    3      C       1.0187520000     1.2665580000     1.7522240000
    4      C       0.0109520000     0.0673580000    -0.0400760000
    5      C       0.9024520000     1.1321580000     0.3463240000
    6      C      -0.0304480000     0.0153580000    -1.4614760000
    7      C       0.7824520000     0.9843580000    -2.0822760000
    8      S       1.5817520000     1.9421580000    -0.9410760000
    9      C       0.9495520000     1.1763580000    -3.5353760000
   10      O       0.3518520000     0.4593580000    -4.3256760000
   11      O       1.7768520000     2.1572580000    -3.9797760000
   12      F      -0.7436480000    -0.8405420000    -2.2216760000
   13      C       2.0152520000     2.4254580000    -5.3103760000
   14      H       2.7259520000     3.2715580000    -5.3456760000
   15      H       1.0824520000     2.6999580000    -5.8509760000
   16      H       2.4531520000     1.5489580000    -5.8372760000
   17      C      -0.5728480000    -2.0636420000     1.0246240000
   18      H       0.2489520000    -2.0726420000     0.3240240000
   19      H      -0.0352480000    -2.7475420000     1.6647240000
   20      H      -1.1858480000    -2.5880420000     0.3065240000
   21      H       1.6102520000     1.9713580000     2.3461240000
 ----------------------------------------------------------------

   11   -1389.2191697163      5.91e-07  Convergence criterion met
 Total energy in the final basis set =    -1389.2191697163
        RIMP2         total energy =     -1391.7355936444 a.u.

                    Orbital Energies (a.u.)
 --------------------------------------------------------------

 Alpha MOs
 -- Occupied --
-92.0085 -91.9935 -26.3342 -20.6112 -20.5486 -11.4089 -11.3751 -11.3013
-11.2942 -11.2935 -11.2882 -11.2879 -11.2706 -11.2258  -9.0072  -8.9975
 -6.6879  -6.6872  -6.6869  -6.6788  -6.6781  -6.6768  -1.6473  -1.4709
 -1.3661  -1.2303  -1.1504  -1.0691  -1.0274  -1.0034  -0.9694  -0.9077
 -0.8644  -0.7956  -0.7860  -0.7683  -0.7269  -0.7156  -0.6966  -0.6779
 -0.6774  -0.6695  -0.6081  -0.6049  -0.5970  -0.5914  -0.5861  -0.5620
 -0.5321  -0.5256  -0.5068  -0.4874  -0.4772  -0.4628  -0.4598  -0.4588
 -0.3854  -0.3449  -0.2778

          Ground-State Mulliken Net Atomic Charges

     Atom                 Charge (a.u.)
  ----------------------------------------
      1 C                    -0.019226
      2 S                     0.104377
      3 C                    -0.246600
      4 C                    -0.063669
      5 C                    -0.009428
      6 C                     0.352915
      7 C                    -0.157942
      8 S                     0.042989
      9 C                     0.457833
     10 O                    -0.452991
     11 O                    -0.298422
     12 F                    -0.211399
     13 C                    -0.054626
     14 H                     0.116369
     15 H                     0.084245
     16 H                     0.083921
     17 C                    -0.377842
     18 H                     0.137699
     19 H                     0.166364
     20 H                     0.134807
     21 H                     0.210626
  ----------------------------------------
  Sum of atomic charges =     0.000000

                    Cartesian Multipole Moments
 -----------------------------------------------------------------
    Charge (ESU x 10^10)
                -0.0000
    Dipole Moment (Debye)
         X       2.6025      Y       0.8080      Z       3.0962
       Tot       4.1246
    Quadrupole Moments (Debye-Ang)
        XX     -93.1774     XY       3.9794     YY     -86.8831
        XZ      -5.6813     YZ      -8.6367     ZZ     -96.1581

 Total job time:  57.38s(wall), 1973.50s(cpu)
        *  Thank you very much for using Q-Chem.  Have a nice day.  *
