 Q-Chem 5.4, Q-Chem, Inc., Pleasanton, CA (2021)
 Q-Chem 5.4.0 for Intel X86 EM64T Linux

User input:
--------------------------------------------------------------
$molecule
0 1
C	-0.002839	-0.836989	1.020802
S	-0.000639	0.062411	2.531502
C	-0.001639	1.637711	1.748402
C	-0.002839	0.071211	-0.043898
C	-0.004339	1.460011	0.342502
C	-0.001239	0.004811	-1.465298
C	-0.001339	1.269711	-2.086098
S	-0.004639	2.517211	-0.944898
C	0.003361	1.524111	-3.539198
O	0.006361	0.590611	-4.329498
O	0.006561	2.807311	-3.983598
F	0.002661	-1.109289	-2.225498
C	0.016761	3.166011	-5.314198
H	0.017361	4.271011	-5.349498
H	-0.874239	2.776711	-5.854798
H	0.915661	2.776111	-5.841098
C	-0.002839	-2.272189	1.020802
H	0.374461	-2.281189	2.032702
H	-0.788139	-2.956089	1.307002
H	0.881561	-2.796589	0.690402
H	-0.001639	2.557811	2.342302
$end

$rem
JOBTYPE		SP
EXCHANGE	HF
CORRELATION	pRIMP2
BASIS		cc-pvtz
METHOD		rimp2
AUX_BASIS	rimp2-cc-pvtz
SOLVENT_METHOD	PCM
PURECART	11111
SYMMETRY	false
MEM_TOTAL	110000
SCF_CONVERGENCE = 6
THRESH=10
GUI = 2
$end

$solvent
dielectric 4.90
$end
--------------------------------------------------------------

             Standard Nuclear Orientation (Angstroms)
    I     Atom           X                Y                Z
 ----------------------------------------------------------------
    1      C      -0.0028390000    -0.8369890000     1.0208020000
    2      S      -0.0006390000     0.0624110000     2.5315020000
    3      C      -0.0016390000     1.6377110000     1.7484020000
    4      C      -0.0028390000     0.0712110000    -0.0438980000
    5      C      -0.0043390000     1.4600110000     0.3425020000
    6      C      -0.0012390000     0.0048110000    -1.4652980000
    7      C      -0.0013390000     1.2697110000    -2.0860980000
    8      S      -0.0046390000     2.5172110000    -0.9448980000
    9      C       0.0033610000     1.5241110000    -3.5391980000
   10      O       0.0063610000     0.5906110000    -4.3294980000
   11      O       0.0065610000     2.8073110000    -3.9835980000
   12      F       0.0026610000    -1.1092890000    -2.2254980000
   13      C       0.0167610000     3.1660110000    -5.3141980000
   14      H       0.0173610000     4.2710110000    -5.3494980000
   15      H      -0.8742390000     2.7767110000    -5.8547980000
   16      H       0.9156610000     2.7761110000    -5.8410980000
   17      C      -0.0028390000    -2.2721890000     1.0208020000
   18      H       0.3744610000    -2.2811890000     2.0327020000
   19      H      -0.7881390000    -2.9560890000     1.3070020000
   20      H       0.8815610000    -2.7965890000     0.6904020000
   21      H      -0.0016390000     2.5578110000     2.3423020000
 ----------------------------------------------------------------

   11   -1389.2527167551      4.77e-07  Convergence criterion met
 Total energy in the final basis set =    -1389.2527167551
        RIMP2         total energy =     -1391.7584772077 a.u.

                    Orbital Energies (a.u.)
 --------------------------------------------------------------

 Alpha MOs
 -- Occupied --
-92.0091 -91.9896 -26.3330 -20.6103 -20.5471 -11.4075 -11.3752 -11.3087
-11.2914 -11.2911 -11.2875 -11.2831 -11.2690 -11.2289  -9.0078  -8.9938
 -6.6885  -6.6880  -6.6875  -6.6751  -6.6744  -6.6731  -1.6459  -1.4698
 -1.3648  -1.2267  -1.1466  -1.0651  -1.0295  -1.0055  -0.9683  -0.9102
 -0.8642  -0.7966  -0.7840  -0.7676  -0.7262  -0.7139  -0.6956  -0.6770
 -0.6762  -0.6678  -0.6089  -0.6040  -0.5974  -0.5871  -0.5776  -0.5661
 -0.5433  -0.5247  -0.5053  -0.4805  -0.4774  -0.4629  -0.4597  -0.4576
 -0.3954  -0.3463  -0.2812

          Ground-State Mulliken Net Atomic Charges

     Atom                 Charge (a.u.)
  ----------------------------------------
      1 C                     0.042313
      2 S                     0.084202
      3 C                    -0.258239
      4 C                    -0.086742
      5 C                    -0.010927
      6 C                     0.392052
      7 C                    -0.164295
      8 S                     0.027907
      9 C                     0.459291
     10 O                    -0.454974
     11 O                    -0.298443
     12 F                    -0.213825
     13 C                    -0.055001
     14 H                     0.116173
     15 H                     0.083985
     16 H                     0.083852
     17 C                    -0.369435
     18 H                     0.115111
     19 H                     0.150711
     20 H                     0.144356
     21 H                     0.211927
  ----------------------------------------
  Sum of atomic charges =     0.000000

                    Cartesian Multipole Moments
 -----------------------------------------------------------------
    Charge (ESU x 10^10)
                -0.0000
    Dipole Moment (Debye)
         X       0.2527      Y       1.0814      Z       4.1489
       Tot       4.2950
    Quadrupole Moments (Debye-Ang)
        XX     -95.9519     XY      -0.4768     YY     -82.2493
        XZ      -0.0130     YZ     -13.5093     ZZ     -95.0628

 Total job time:  54.47s(wall), 1947.76s(cpu)
        *  Thank you very much for using Q-Chem.  Have a nice day.  *
