 Q-Chem 5.4, Q-Chem, Inc., Pleasanton, CA (2021)
 Q-Chem 5.4.0 for Intel X86 EM64T Linux

User input:
--------------------------------------------------------------
$molecule
0 1
C	-0.573570	-0.628442	1.022765
S	0.006330	0.059158	2.533465
C	1.018030	1.266558	1.750365
C	0.010230	0.067358	-0.041935
C	0.901730	1.132158	0.344465
C	-0.031170	0.015358	-1.463335
C	0.781730	0.984358	-2.084135
S	1.581030	1.942158	-0.942935
C	0.948830	1.176358	-3.537235
O	0.351130	0.459358	-4.327535
O	1.776130	2.157258	-3.981635
F	-0.744370	-0.840542	-2.223535
C	2.014530	2.425458	-5.312235
H	2.725230	3.271558	-5.347535
H	1.081730	2.699958	-5.852835
H	2.452430	1.548958	-5.839135
C	-0.573570	-2.063642	1.022765
H	0.491430	-2.072642	1.201965
H	-0.718370	-2.747542	1.845965
H	-0.417470	-2.588042	0.091565
H	1.609530	1.971358	2.344265
$end

$rem
JOBTYPE		SP
EXCHANGE	HF
CORRELATION	pRIMP2
BASIS		cc-pvtz
METHOD		rimp2
AUX_BASIS	rimp2-cc-pvtz
SOLVENT_METHOD	PCM
PURECART	11111
SYMMETRY	false
MEM_TOTAL	110000
SCF_CONVERGENCE = 6
THRESH=10
GUI = 2
$end

$solvent
dielectric 4.90
$end
--------------------------------------------------------------

             Standard Nuclear Orientation (Angstroms)
    I     Atom           X                Y                Z
 ----------------------------------------------------------------
    1      C      -0.5735700000    -0.6284420000     1.0227650000
    2      S       0.0063300000     0.0591580000     2.5334650000
    3      C       1.0180300000     1.2665580000     1.7503650000
    4      C       0.0102300000     0.0673580000    -0.0419350000
    5      C       0.9017300000     1.1321580000     0.3444650000
    6      C      -0.0311700000     0.0153580000    -1.4633350000
    7      C       0.7817300000     0.9843580000    -2.0841350000
    8      S       1.5810300000     1.9421580000    -0.9429350000
    9      C       0.9488300000     1.1763580000    -3.5372350000
   10      O       0.3511300000     0.4593580000    -4.3275350000
   11      O       1.7761300000     2.1572580000    -3.9816350000
   12      F      -0.7443700000    -0.8405420000    -2.2235350000
   13      C       2.0145300000     2.4254580000    -5.3122350000
   14      H       2.7252300000     3.2715580000    -5.3475350000
   15      H       1.0817300000     2.6999580000    -5.8528350000
   16      H       2.4524300000     1.5489580000    -5.8391350000
   17      C      -0.5735700000    -2.0636420000     1.0227650000
   18      H       0.4914300000    -2.0726420000     1.2019650000
   19      H      -0.7183700000    -2.7475420000     1.8459650000
   20      H      -0.4174700000    -2.5880420000     0.0915650000
   21      H       1.6095300000     1.9713580000     2.3442650000
 ----------------------------------------------------------------

   11   -1389.2268406872      5.34e-07  Convergence criterion met
 Total energy in the final basis set =    -1389.2268406872
        RIMP2         total energy =     -1391.7382454234 a.u.

                    Orbital Energies (a.u.)
 --------------------------------------------------------------

 Alpha MOs
 -- Occupied --
-92.0030 -91.9909 -26.3342 -20.6105 -20.5474 -11.4079 -11.3764 -11.3091
-11.2932 -11.2917 -11.2878 -11.2864 -11.2710 -11.2326  -9.0025  -8.9951
 -6.6833  -6.6826  -6.6822  -6.6764  -6.6757  -6.6743  -1.6471  -1.4701
 -1.3652  -1.2301  -1.1521  -1.0683  -1.0284  -1.0036  -0.9689  -0.9075
 -0.8643  -0.7967  -0.7854  -0.7685  -0.7271  -0.7151  -0.6961  -0.6773
 -0.6768  -0.6689  -0.6092  -0.6048  -0.6026  -0.5886  -0.5770  -0.5602
 -0.5312  -0.5276  -0.5188  -0.4948  -0.4800  -0.4607  -0.4586  -0.4528
 -0.3890  -0.3471  -0.2734

          Ground-State Mulliken Net Atomic Charges

     Atom                 Charge (a.u.)
  ----------------------------------------
      1 C                     0.039000
      2 S                     0.083658
      3 C                    -0.249628
      4 C                    -0.109482
      5 C                    -0.009271
      6 C                     0.364735
      7 C                    -0.161340
      8 S                     0.034818
      9 C                     0.457593
     10 O                    -0.454707
     11 O                    -0.298727
     12 F                    -0.210235
     13 C                    -0.054629
     14 H                     0.116212
     15 H                     0.084086
     16 H                     0.083721
     17 C                    -0.371911
     18 H                     0.144310
     19 H                     0.161277
     20 H                     0.139761
     21 H                     0.210759
  ----------------------------------------
  Sum of atomic charges =     0.000000

                    Cartesian Multipole Moments
 -----------------------------------------------------------------
    Charge (ESU x 10^10)
                -0.0000
    Dipole Moment (Debye)
         X       2.5375      Y       0.3611      Z       3.5895
       Tot       4.4107
    Quadrupole Moments (Debye-Ang)
        XX     -93.6877     XY       3.8745     YY     -86.4362
        XZ      -6.1286     YZ      -9.9889     ZZ     -95.8561

 Total job time:  72.13s(wall), 1914.56s(cpu)
        *  Thank you very much for using Q-Chem.  Have a nice day.  *
