 Q-Chem 5.4, Q-Chem, Inc., Pleasanton, CA (2021)
 Q-Chem 5.4.0 for Intel X86 EM64T Linux

User input:
--------------------------------------------------------------
$molecule
0 1
C	-0.003957	-0.836989	1.021968
S	-0.001757	0.062411	2.532668
C	-0.002757	1.637711	1.749568
C	-0.003957	0.071211	-0.042732
C	-0.005457	1.460011	0.343668
C	-0.002357	0.004811	-1.464132
C	-0.002457	1.269711	-2.084932
S	-0.005757	2.517211	-0.943732
C	0.002243	1.524111	-3.538032
O	0.005243	0.590611	-4.328332
O	0.005443	2.807311	-3.982432
F	0.001543	-1.109289	-2.224332
C	0.015643	3.166011	-5.313032
H	0.016243	4.271011	-5.348332
H	-0.875357	2.776711	-5.853632
H	0.914543	2.776111	-5.839932
C	-0.003957	-2.272189	1.021968
H	0.935543	-2.281189	1.554568
H	-0.421557	-2.956089	1.746068
H	0.461143	-2.796589	0.200368
H	-0.002757	2.557811	2.343468
$end

$rem
JOBTYPE		SP
EXCHANGE	HF
CORRELATION	pRIMP2
BASIS		cc-pvtz
METHOD		rimp2
AUX_BASIS	rimp2-cc-pvtz
SOLVENT_METHOD	PCM
PURECART	11111
SYMMETRY	false
MEM_TOTAL	110000
SCF_CONVERGENCE = 6
THRESH=10
GUI = 2
$end

$solvent
dielectric 4.90
$end
--------------------------------------------------------------

             Standard Nuclear Orientation (Angstroms)
    I     Atom           X                Y                Z
 ----------------------------------------------------------------
    1      C      -0.0039570000    -0.8369890000     1.0219680000
    2      S      -0.0017570000     0.0624110000     2.5326680000
    3      C      -0.0027570000     1.6377110000     1.7495680000
    4      C      -0.0039570000     0.0712110000    -0.0427320000
    5      C      -0.0054570000     1.4600110000     0.3436680000
    6      C      -0.0023570000     0.0048110000    -1.4641320000
    7      C      -0.0024570000     1.2697110000    -2.0849320000
    8      S      -0.0057570000     2.5172110000    -0.9437320000
    9      C       0.0022430000     1.5241110000    -3.5380320000
   10      O       0.0052430000     0.5906110000    -4.3283320000
   11      O       0.0054430000     2.8073110000    -3.9824320000
   12      F       0.0015430000    -1.1092890000    -2.2243320000
   13      C       0.0156430000     3.1660110000    -5.3130320000
   14      H       0.0162430000     4.2710110000    -5.3483320000
   15      H      -0.8753570000     2.7767110000    -5.8536320000
   16      H       0.9145430000     2.7761110000    -5.8399320000
   17      C      -0.0039570000    -2.2721890000     1.0219680000
   18      H       0.9355430000    -2.2811890000     1.5545680000
   19      H      -0.4215570000    -2.9560890000     1.7460680000
   20      H       0.4611430000    -2.7965890000     0.2003680000
   21      H      -0.0027570000     2.5578110000     2.3434680000
 ----------------------------------------------------------------

   11   -1389.2558480477      4.28e-07  Convergence criterion met
 Total energy in the final basis set =    -1389.2558480477
        RIMP2         total energy =     -1391.7582446245 a.u.

                    Orbital Energies (a.u.)
 --------------------------------------------------------------

 Alpha MOs
 -- Occupied --
-92.0056 -91.9876 -26.3337 -20.6093 -20.5452 -11.4060 -11.3764 -11.3183
-11.2909 -11.2875 -11.2871 -11.2766 -11.2676 -11.2341  -9.0046  -8.9919
 -6.6854  -6.6848  -6.6843  -6.6732  -6.6725  -6.6712  -1.6467  -1.4687
 -1.3635  -1.2260  -1.1467  -1.0666  -1.0279  -1.0061  -0.9675  -0.9111
 -0.8627  -0.7961  -0.7840  -0.7662  -0.7259  -0.7144  -0.6957  -0.6767
 -0.6762  -0.6670  -0.6100  -0.6028  -0.5970  -0.5857  -0.5847  -0.5599
 -0.5362  -0.5253  -0.5138  -0.4917  -0.4783  -0.4617  -0.4585  -0.4564
 -0.3920  -0.3466  -0.2738

          Ground-State Mulliken Net Atomic Charges

     Atom                 Charge (a.u.)
  ----------------------------------------
      1 C                     0.036942
      2 S                     0.074436
      3 C                    -0.268370
      4 C                    -0.085290
      5 C                    -0.016947
      6 C                     0.401674
      7 C                    -0.168752
      8 S                     0.021549
      9 C                     0.460245
     10 O                    -0.458502
     11 O                    -0.298922
     12 F                    -0.214083
     13 C                    -0.055033
     14 H                     0.115959
     15 H                     0.083683
     16 H                     0.083492
     17 C                    -0.377791
     18 H                     0.141281
     19 H                     0.165483
     20 H                     0.148492
     21 H                     0.210452
  ----------------------------------------
  Sum of atomic charges =     0.000000

                    Cartesian Multipole Moments
 -----------------------------------------------------------------
    Charge (ESU x 10^10)
                -0.0000
    Dipole Moment (Debye)
         X       0.6639      Y       0.3269      Z       4.0540
       Tot       4.1210
    Quadrupole Moments (Debye-Ang)
        XX     -96.4497     XY      -1.5048     YY     -81.8052
        XZ       0.3668     YZ     -13.4430     ZZ     -96.1217

 Total job time:  55.37s(wall), 2040.89s(cpu)
        *  Thank you very much for using Q-Chem.  Have a nice day.  *
