 Q-Chem 5.4, Q-Chem, Inc., Pleasanton, CA (2021)
 Q-Chem 5.4.0 for Intel X86 EM64T Linux

User input:
--------------------------------------------------------------
$molecule
0 1
C	-0.770548	-0.392188	1.024315
S	0.009452	0.055612	2.535015
C	1.373252	0.844212	1.751915
C	0.015952	0.061912	-0.040385
C	1.217952	0.757612	0.346015
C	-0.040648	0.027312	-1.461785
C	1.054652	0.659812	-2.082585
S	2.133352	1.286512	-0.941385
C	1.277352	0.783012	-3.535685
O	0.470452	0.313712	-4.325985
O	2.390252	1.421812	-3.980085
F	-1.003548	-0.533088	-2.221985
C	2.705952	1.592412	-5.310685
H	3.663152	2.144312	-5.345985
H	1.923252	2.169312	-5.851285
H	2.817652	0.618912	-5.837585
C	-0.770548	-1.827388	1.024315
H	0.160452	-1.836388	0.477015
H	-0.352348	-2.511288	1.748015
H	-1.249548	-2.351788	0.210715
H	2.170052	1.304112	2.345815
$end

$rem
JOBTYPE		SP
EXCHANGE	HF
CORRELATION	pRIMP2
BASIS		cc-pvtz
METHOD		rimp2
AUX_BASIS	rimp2-cc-pvtz
SOLVENT_METHOD	PCM
PURECART	11111
SYMMETRY	false
MEM_TOTAL	110000
SCF_CONVERGENCE = 6
THRESH=10
GUI = 2
$end

$solvent
dielectric 4.90
$end
--------------------------------------------------------------

             Standard Nuclear Orientation (Angstroms)
    I     Atom           X                Y                Z
 ----------------------------------------------------------------
    1      C      -0.7705480000    -0.3921880000     1.0243150000
    2      S       0.0094520000     0.0556120000     2.5350150000
    3      C       1.3732520000     0.8442120000     1.7519150000
    4      C       0.0159520000     0.0619120000    -0.0403850000
    5      C       1.2179520000     0.7576120000     0.3460150000
    6      C      -0.0406480000     0.0273120000    -1.4617850000
    7      C       1.0546520000     0.6598120000    -2.0825850000
    8      S       2.1333520000     1.2865120000    -0.9413850000
    9      C       1.2773520000     0.7830120000    -3.5356850000
   10      O       0.4704520000     0.3137120000    -4.3259850000
   11      O       2.3902520000     1.4218120000    -3.9800850000
   12      F      -1.0035480000    -0.5330880000    -2.2219850000
   13      C       2.7059520000     1.5924120000    -5.3106850000
   14      H       3.6631520000     2.1443120000    -5.3459850000
   15      H       1.9232520000     2.1693120000    -5.8512850000
   16      H       2.8176520000     0.6189120000    -5.8375850000
   17      C      -0.7705480000    -1.8273880000     1.0243150000
   18      H       0.1604520000    -1.8363880000     0.4770150000
   19      H      -0.3523480000    -2.5112880000     1.7480150000
   20      H      -1.2495480000    -2.3517880000     0.2107150000
   21      H       2.1700520000     1.3041120000     2.3458150000
 ----------------------------------------------------------------

   11   -1389.1725721275      9.39e-07  Convergence criterion met
 Total energy in the final basis set =    -1389.1725721275
        RIMP2         total energy =     -1391.7014079733 a.u.

                    Orbital Energies (a.u.)
 --------------------------------------------------------------

 Alpha MOs
 -- Occupied --
-92.0106 -92.0004 -26.3332 -20.6132 -20.5524 -11.4121 -11.3736 -11.3087
-11.3022 -11.2963 -11.2892 -11.2774 -11.2761 -11.2189  -9.0095  -9.0040
 -6.6901  -6.6892  -6.6892  -6.6852  -6.6846  -6.6833  -1.6464  -1.4732
 -1.3689  -1.2368  -1.1574  -1.0727  -1.0301  -1.0007  -0.9719  -0.9037
 -0.8668  -0.7968  -0.7876  -0.7724  -0.7291  -0.7154  -0.6977  -0.6796
 -0.6773  -0.6726  -0.6098  -0.6078  -0.6024  -0.5934  -0.5799  -0.5623
 -0.5288  -0.5246  -0.5094  -0.4925  -0.4805  -0.4628  -0.4624  -0.4503
 -0.3770  -0.3431  -0.2808

          Ground-State Mulliken Net Atomic Charges

     Atom                 Charge (a.u.)
  ----------------------------------------
      1 C                    -0.125050
      2 S                     0.127447
      3 C                    -0.199775
      4 C                    -0.011551
      5 C                    -0.030660
      6 C                     0.354455
      7 C                    -0.144375
      8 S                     0.062794
      9 C                     0.458048
     10 O                    -0.446347
     11 O                    -0.297714
     12 F                    -0.211326
     13 C                    -0.054751
     14 H                     0.116828
     15 H                     0.085002
     16 H                     0.084594
     17 C                    -0.367271
     18 H                     0.112734
     19 H                     0.151945
     20 H                     0.119357
     21 H                     0.215617
  ----------------------------------------
  Sum of atomic charges =     0.000000

                    Cartesian Multipole Moments
 -----------------------------------------------------------------
    Charge (ESU x 10^10)
                -0.0000
    Dipole Moment (Debye)
         X       4.5449      Y       0.8883      Z       2.9808
       Tot       5.5073
    Quadrupole Moments (Debye-Ang)
        XX     -90.1979     XY       4.3156     YY     -91.1931
        XZ      -7.3355     YZ      -5.6444     ZZ     -93.7071

 Total job time:  57.31s(wall), 1978.88s(cpu)
        *  Thank you very much for using Q-Chem.  Have a nice day.  *
