 Q-Chem 5.4, Q-Chem, Inc., Pleasanton, CA (2021)
 Q-Chem 5.4.0 for Intel X86 EM64T Linux

User input:
--------------------------------------------------------------
$molecule
0 1
C	-0.568922	-0.628442	1.023483
S	0.010978	0.059158	2.534183
C	1.022678	1.266558	1.751083
C	0.014878	0.067358	-0.041217
C	0.906378	1.132158	0.345183
C	-0.026522	0.015358	-1.462617
C	0.786378	0.984358	-2.083417
S	1.585678	1.942158	-0.942217
C	0.953478	1.176358	-3.536517
O	0.355778	0.459358	-4.326817
O	1.780778	2.157258	-3.980917
F	-0.739722	-0.840542	-2.222817
C	2.019178	2.425458	-5.311517
H	2.729878	3.271558	-5.346817
H	1.086378	2.699958	-5.852117
H	2.457078	1.548958	-5.838417
C	-0.568922	-2.063642	1.023483
H	-1.586622	-2.072642	0.662083
H	-0.283422	-2.747542	0.237883
H	-0.884322	-2.588042	1.913383
H	1.614178	1.971358	2.344983
$end

$rem
JOBTYPE		SP
EXCHANGE	HF
CORRELATION	pRIMP2
BASIS		cc-pvtz
METHOD		rimp2
AUX_BASIS	rimp2-cc-pvtz
SOLVENT_METHOD	PCM
PURECART	11111
SYMMETRY	false
MEM_TOTAL	110000
SCF_CONVERGENCE = 6
THRESH=10
GUI = 2
$end

$solvent
dielectric 4.90
$end
--------------------------------------------------------------

             Standard Nuclear Orientation (Angstroms)
    I     Atom           X                Y                Z
 ----------------------------------------------------------------
    1      C      -0.5689220000    -0.6284420000     1.0234830000
    2      S       0.0109780000     0.0591580000     2.5341830000
    3      C       1.0226780000     1.2665580000     1.7510830000
    4      C       0.0148780000     0.0673580000    -0.0412170000
    5      C       0.9063780000     1.1321580000     0.3451830000
    6      C      -0.0265220000     0.0153580000    -1.4626170000
    7      C       0.7863780000     0.9843580000    -2.0834170000
    8      S       1.5856780000     1.9421580000    -0.9422170000
    9      C       0.9534780000     1.1763580000    -3.5365170000
   10      O       0.3557780000     0.4593580000    -4.3268170000
   11      O       1.7807780000     2.1572580000    -3.9809170000
   12      F      -0.7397220000    -0.8405420000    -2.2228170000
   13      C       2.0191780000     2.4254580000    -5.3115170000
   14      H       2.7298780000     3.2715580000    -5.3468170000
   15      H       1.0863780000     2.6999580000    -5.8521170000
   16      H       2.4570780000     1.5489580000    -5.8384170000
   17      C      -0.5689220000    -2.0636420000     1.0234830000
   18      H      -1.5866220000    -2.0726420000     0.6620830000
   19      H      -0.2834220000    -2.7475420000     0.2378830000
   20      H      -0.8843220000    -2.5880420000     1.9133830000
   21      H       1.6141780000     1.9713580000     2.3449830000
 ----------------------------------------------------------------

   11   -1389.2176689403      5.98e-07  Convergence criterion met
 Total energy in the final basis set =    -1389.2176689403
        RIMP2         total energy =     -1391.7334715120 a.u.

                    Orbital Energies (a.u.)
 --------------------------------------------------------------

 Alpha MOs
 -- Occupied --
-92.0038 -91.9924 -26.3340 -20.6111 -20.5485 -11.4088 -11.3751 -11.2971
-11.2940 -11.2926 -11.2895 -11.2880 -11.2735 -11.2236  -9.0030  -8.9965
 -6.6837  -6.6829  -6.6826  -6.6777  -6.6771  -6.6758  -1.6470  -1.4708
 -1.3660  -1.2289  -1.1477  -1.0666  -1.0278  -1.0040  -0.9688  -0.9095
 -0.8643  -0.7960  -0.7856  -0.7681  -0.7266  -0.7153  -0.6955  -0.6778
 -0.6767  -0.6692  -0.6069  -0.6050  -0.5961  -0.5895  -0.5754  -0.5594
 -0.5379  -0.5231  -0.5137  -0.4935  -0.4809  -0.4610  -0.4593  -0.4470
 -0.3848  -0.3451  -0.2750

          Ground-State Mulliken Net Atomic Charges

     Atom                 Charge (a.u.)
  ----------------------------------------
      1 C                    -0.007645
      2 S                     0.097332
      3 C                    -0.236518
      4 C                    -0.084839
      5 C                    -0.011160
      6 C                     0.362267
      7 C                    -0.155515
      8 S                     0.039338
      9 C                     0.456466
     10 O                    -0.452824
     11 O                    -0.298295
     12 F                    -0.211162
     13 C                    -0.054641
     14 H                     0.116393
     15 H                     0.084154
     16 H                     0.083961
     17 C                    -0.385141
     18 H                     0.137895
     19 H                     0.166419
     20 H                     0.143322
     21 H                     0.210191
  ----------------------------------------
  Sum of atomic charges =     0.000000

                    Cartesian Multipole Moments
 -----------------------------------------------------------------
    Charge (ESU x 10^10)
                -0.0000
    Dipole Moment (Debye)
         X       1.4696      Y       0.8073      Z       3.1933
       Tot       3.6067
    Quadrupole Moments (Debye-Ang)
        XX     -92.0558     XY       6.6534     YY     -86.7864
        XZ      -7.3830     YZ      -8.8077     ZZ     -95.9169

 Total job time:  55.41s(wall), 1882.34s(cpu)
        *  Thank you very much for using Q-Chem.  Have a nice day.  *
