 Q-Chem 5.4, Q-Chem, Inc., Pleasanton, CA (2021)
 Q-Chem 5.4.0 for Intel X86 EM64T Linux

User input:
--------------------------------------------------------------
$molecule
0 1
C	-0.770605	-0.392188	1.021608
S	0.009395	0.055612	2.532308
C	1.373195	0.844212	1.749208
C	0.015895	0.061912	-0.043092
C	1.217895	0.757612	0.343308
C	-0.040705	0.027312	-1.464492
C	1.054595	0.659812	-2.085292
S	2.133295	1.286512	-0.944092
C	1.277295	0.783012	-3.538392
O	0.470395	0.313712	-4.328692
O	2.390195	1.421812	-3.982792
F	-1.003605	-0.533088	-2.224692
C	2.705895	1.592412	-5.313392
H	3.663095	2.144312	-5.348692
H	1.923195	2.169312	-5.853992
H	2.817595	0.618912	-5.840292
C	-0.770605	-1.827388	1.021608
H	0.062095	-1.836388	1.709308
H	-1.307605	-2.511288	1.662108
H	-0.169905	-2.351788	0.293208
H	2.169995	1.304112	2.343108
$end

$rem
JOBTYPE		SP
EXCHANGE	HF
CORRELATION	pRIMP2
BASIS		cc-pvtz
METHOD		rimp2
AUX_BASIS	rimp2-cc-pvtz
SOLVENT_METHOD	PCM
PURECART	11111
SYMMETRY	false
MEM_TOTAL	110000
SCF_CONVERGENCE = 6
THRESH=10
GUI = 2
$end

$solvent
dielectric 4.90
$end
--------------------------------------------------------------

             Standard Nuclear Orientation (Angstroms)
    I     Atom           X                Y                Z
 ----------------------------------------------------------------
    1      C      -0.7706050000    -0.3921880000     1.0216080000
    2      S       0.0093950000     0.0556120000     2.5323080000
    3      C       1.3731950000     0.8442120000     1.7492080000
    4      C       0.0158950000     0.0619120000    -0.0430920000
    5      C       1.2178950000     0.7576120000     0.3433080000
    6      C      -0.0407050000     0.0273120000    -1.4644920000
    7      C       1.0545950000     0.6598120000    -2.0852920000
    8      S       2.1332950000     1.2865120000    -0.9440920000
    9      C       1.2772950000     0.7830120000    -3.5383920000
   10      O       0.4703950000     0.3137120000    -4.3286920000
   11      O       2.3901950000     1.4218120000    -3.9827920000
   12      F      -1.0036050000    -0.5330880000    -2.2246920000
   13      C       2.7058950000     1.5924120000    -5.3133920000
   14      H       3.6630950000     2.1443120000    -5.3486920000
   15      H       1.9231950000     2.1693120000    -5.8539920000
   16      H       2.8175950000     0.6189120000    -5.8402920000
   17      C      -0.7706050000    -1.8273880000     1.0216080000
   18      H       0.0620950000    -1.8363880000     1.7093080000
   19      H      -1.3076050000    -2.5112880000     1.6621080000
   20      H      -0.1699050000    -2.3517880000     0.2932080000
   21      H       2.1699950000     1.3041120000     2.3431080000
 ----------------------------------------------------------------

   11   -1389.1698025137      8.21e-07  Convergence criterion met
 Total energy in the final basis set =    -1389.1698025137
        RIMP2         total energy =     -1391.6940508141 a.u.

                    Orbital Energies (a.u.)
 --------------------------------------------------------------

 Alpha MOs
 -- Occupied --
-91.9983 -91.9975 -26.3335 -20.6144 -20.5545 -11.4138 -11.3749 -11.3128
-11.3060 -11.2942 -11.2897 -11.2845 -11.2757 -11.2162  -9.0022  -8.9985
 -6.6834  -6.6828  -6.6814  -6.6791  -6.6781  -6.6780  -1.6465  -1.4745
 -1.3704  -1.2371  -1.1593  -1.0703  -1.0339  -1.0006  -0.9726  -0.9006
 -0.8695  -0.7998  -0.7877  -0.7746  -0.7305  -0.7154  -0.6978  -0.6804
 -0.6758  -0.6732  -0.6107  -0.6082  -0.6060  -0.5926  -0.5658  -0.5592
 -0.5389  -0.5288  -0.5180  -0.4921  -0.4831  -0.4639  -0.4632  -0.4311
 -0.3882  -0.3416  -0.2804

          Ground-State Mulliken Net Atomic Charges

     Atom                 Charge (a.u.)
  ----------------------------------------
      1 C                    -0.074515
      2 S                     0.083928
      3 C                    -0.175482
      4 C                    -0.044041
      5 C                    -0.034476
      6 C                     0.365034
      7 C                    -0.136611
      8 S                     0.050360
      9 C                     0.457285
     10 O                    -0.442335
     11 O                    -0.296698
     12 F                    -0.209429
     13 C                    -0.054710
     14 H                     0.117175
     15 H                     0.085398
     16 H                     0.084986
     17 C                    -0.381782
     18 H                     0.121996
     19 H                     0.138771
     20 H                     0.129137
     21 H                     0.216008
  ----------------------------------------
  Sum of atomic charges =     0.000000

                    Cartesian Multipole Moments
 -----------------------------------------------------------------
    Charge (ESU x 10^10)
                -0.0000
    Dipole Moment (Debye)
         X       4.6539      Y       0.8796      Z       3.0734
       Tot       5.6461
    Quadrupole Moments (Debye-Ang)
        XX     -89.9980     XY       4.3601     YY     -91.3590
        XZ      -8.1975     YZ      -7.1994     ZZ     -92.7160

 Total job time:  55.97s(wall), 2013.88s(cpu)
        *  Thank you very much for using Q-Chem.  Have a nice day.  *
