 Q-Chem 5.4, Q-Chem, Inc., Pleasanton, CA (2021)
 Q-Chem 5.4.0 for Intel X86 EM64T Linux

User input:
--------------------------------------------------------------
$molecule
0 1
C	-0.682529	-0.518946	1.023580
S	0.007871	0.057454	2.534280
C	1.213971	1.070954	1.751180
C	0.013171	0.064854	-0.041120
C	1.076071	0.958754	0.345280
C	-0.036629	0.020954	-1.462520
C	0.932271	0.834054	-2.083320
S	1.885771	1.638454	-0.942120
C	1.130171	0.994054	-3.536420
O	0.416971	0.391754	-4.326720
O	2.115271	1.816354	-3.980820
F	-0.887529	-0.698246	-2.222720
C	2.396571	2.039154	-5.311420
H	3.243371	2.748954	-5.346720
H	1.525571	2.471454	-5.852020
H	2.675571	1.099854	-5.838320
C	-0.682529	-1.954146	1.023580
H	0.379571	-1.963146	0.827680
H	-0.537029	-2.638046	1.846680
H	-0.854329	-2.478546	0.095180
H	1.918771	1.662254	2.345080
$end

$rem
JOBTYPE		SP
EXCHANGE	HF
CORRELATION	pRIMP2
BASIS		cc-pvtz
METHOD		rimp2
AUX_BASIS	rimp2-cc-pvtz
SOLVENT_METHOD	PCM
PURECART	11111
SYMMETRY	false
MEM_TOTAL	110000
SCF_CONVERGENCE = 6
THRESH=10
GUI = 2
$end

$solvent
dielectric 4.90
$end
--------------------------------------------------------------

             Standard Nuclear Orientation (Angstroms)
    I     Atom           X                Y                Z
 ----------------------------------------------------------------
    1      C      -0.6825290000    -0.5189460000     1.0235800000
    2      S       0.0078710000     0.0574540000     2.5342800000
    3      C       1.2139710000     1.0709540000     1.7511800000
    4      C       0.0131710000     0.0648540000    -0.0411200000
    5      C       1.0760710000     0.9587540000     0.3452800000
    6      C      -0.0366290000     0.0209540000    -1.4625200000
    7      C       0.9322710000     0.8340540000    -2.0833200000
    8      S       1.8857710000     1.6384540000    -0.9421200000
    9      C       1.1301710000     0.9940540000    -3.5364200000
   10      O       0.4169710000     0.3917540000    -4.3267200000
   11      O       2.1152710000     1.8163540000    -3.9808200000
   12      F      -0.8875290000    -0.6982460000    -2.2227200000
   13      C       2.3965710000     2.0391540000    -5.3114200000
   14      H       3.2433710000     2.7489540000    -5.3467200000
   15      H       1.5255710000     2.4714540000    -5.8520200000
   16      H       2.6755710000     1.0998540000    -5.8383200000
   17      C      -0.6825290000    -1.9541460000     1.0235800000
   18      H       0.3795710000    -1.9631460000     0.8276800000
   19      H      -0.5370290000    -2.6380460000     1.8466800000
   20      H      -0.8543290000    -2.4785460000     0.0951800000
   21      H       1.9187710000     1.6622540000     2.3450800000
 ----------------------------------------------------------------

   11   -1389.2060174685      6.25e-07  Convergence criterion met
 Total energy in the final basis set =    -1389.2060174685
        RIMP2         total energy =     -1391.7253278351 a.u.

                    Orbital Energies (a.u.)
 --------------------------------------------------------------

 Alpha MOs
 -- Occupied --
-92.0068 -91.9945 -26.3339 -20.6114 -20.5489 -11.4092 -11.3755 -11.2983
-11.2955 -11.2950 -11.2943 -11.2883 -11.2722 -11.2288  -9.0060  -8.9985
 -6.6867  -6.6860  -6.6857  -6.6797  -6.6791  -6.6778  -1.6470  -1.4711
 -1.3663  -1.2328  -1.1546  -1.0700  -1.0286  -1.0024  -0.9700  -0.9060
 -0.8653  -0.7967  -0.7862  -0.7700  -0.7278  -0.7153  -0.6965  -0.6781
 -0.6770  -0.6703  -0.6089  -0.6059  -0.6032  -0.5908  -0.5792  -0.5611
 -0.5284  -0.5240  -0.5149  -0.4966  -0.4816  -0.4614  -0.4599  -0.4527
 -0.3838  -0.3469  -0.2756

          Ground-State Mulliken Net Atomic Charges

     Atom                 Charge (a.u.)
  ----------------------------------------
      1 C                    -0.040895
      2 S                     0.105147
      3 C                    -0.232409
      4 C                    -0.061096
      5 C                    -0.015636
      6 C                     0.367268
      7 C                    -0.157582
      8 S                     0.045684
      9 C                     0.457840
     10 O                    -0.452270
     11 O                    -0.298528
     12 F                    -0.211042
     13 C                    -0.054629
     14 H                     0.116394
     15 H                     0.084312
     16 H                     0.084013
     17 C                    -0.370462
     18 H                     0.129036
     19 H                     0.160909
     20 H                     0.131595
     21 H                     0.212351
  ----------------------------------------
  Sum of atomic charges =     0.000000

                    Cartesian Multipole Moments
 -----------------------------------------------------------------
    Charge (ESU x 10^10)
                -0.0000
    Dipole Moment (Debye)
         X       3.2891      Y       0.5721      Z       3.3491
       Tot       4.7288
    Quadrupole Moments (Debye-Ang)
        XX     -92.1337     XY       4.3864     YY     -88.6648
        XZ      -6.9592     YZ      -7.8413     ZZ     -95.2421

 Total job time:  56.42s(wall), 2011.10s(cpu)
        *  Thank you very much for using Q-Chem.  Have a nice day.  *
