 Q-Chem 5.4, Q-Chem, Inc., Pleasanton, CA (2021)
 Q-Chem 5.4.0 for Intel X86 EM64T Linux

User input:
--------------------------------------------------------------
$molecule
0 1
C	-0.081208	-0.833466	1.021968
S	-0.000608	0.062334	2.532668
C	0.135592	1.631734	1.749568
C	-0.002108	0.071334	-0.042732
C	0.117492	1.454934	0.343668
C	-0.006208	0.005034	-1.464132
C	0.103892	1.265034	-2.084932
S	0.209292	2.508134	-0.943732
C	0.130692	1.518134	-3.538032
O	0.052292	0.587934	-4.328332
O	0.245792	2.796134	-3.982432
F	-0.099408	-1.105166	-2.224332
C	0.287192	3.152634	-5.313032
H	0.384092	4.253334	-5.348332
H	-0.634308	2.842434	-5.853632
H	1.148692	2.685834	-5.839932
C	-0.081208	-2.268666	1.021968
H	0.858292	-2.277666	1.554568
H	-0.498808	-2.952566	1.746068
H	0.383892	-2.793066	0.200368
H	0.215892	2.548234	2.343468
$end

$rem
JOBTYPE		SP
EXCHANGE	HF
CORRELATION	pRIMP2
BASIS		cc-pvtz
METHOD		rimp2
AUX_BASIS	rimp2-cc-pvtz
SOLVENT_METHOD	PCM
PURECART	11111
SYMMETRY	false
MEM_TOTAL	110000
SCF_CONVERGENCE = 6
THRESH=10
GUI = 2
$end

$solvent
dielectric 4.90
$end
--------------------------------------------------------------

             Standard Nuclear Orientation (Angstroms)
    I     Atom           X                Y                Z
 ----------------------------------------------------------------
    1      C      -0.0812080000    -0.8334660000     1.0219680000
    2      S      -0.0006080000     0.0623340000     2.5326680000
    3      C       0.1355920000     1.6317340000     1.7495680000
    4      C      -0.0021080000     0.0713340000    -0.0427320000
    5      C       0.1174920000     1.4549340000     0.3436680000
    6      C      -0.0062080000     0.0050340000    -1.4641320000
    7      C       0.1038920000     1.2650340000    -2.0849320000
    8      S       0.2092920000     2.5081340000    -0.9437320000
    9      C       0.1306920000     1.5181340000    -3.5380320000
   10      O       0.0522920000     0.5879340000    -4.3283320000
   11      O       0.2457920000     2.7961340000    -3.9824320000
   12      F      -0.0994080000    -1.1051660000    -2.2243320000
   13      C       0.2871920000     3.1526340000    -5.3130320000
   14      H       0.3840920000     4.2533340000    -5.3483320000
   15      H      -0.6343080000     2.8424340000    -5.8536320000
   16      H       1.1486920000     2.6858340000    -5.8399320000
   17      C      -0.0812080000    -2.2686660000     1.0219680000
   18      H       0.8582920000    -2.2776660000     1.5545680000
   19      H      -0.4988080000    -2.9525660000     1.7460680000
   20      H       0.3838920000    -2.7930660000     0.2003680000
   21      H       0.2158920000     2.5482340000     2.3434680000
 ----------------------------------------------------------------

   11   -1389.2558448846      4.25e-07  Convergence criterion met
 Total energy in the final basis set =    -1389.2558448846
        RIMP2         total energy =     -1391.7581029489 a.u.

                    Orbital Energies (a.u.)
 --------------------------------------------------------------

 Alpha MOs
 -- Occupied --
-92.0052 -91.9876 -26.3338 -20.6093 -20.5453 -11.4061 -11.3765 -11.3186
-11.2909 -11.2875 -11.2871 -11.2766 -11.2677 -11.2344  -9.0042  -8.9919
 -6.6851  -6.6845  -6.6840  -6.6732  -6.6725  -6.6711  -1.6467  -1.4688
 -1.3635  -1.2262  -1.1469  -1.0667  -1.0280  -1.0061  -0.9675  -0.9109
 -0.8627  -0.7961  -0.7841  -0.7662  -0.7259  -0.7144  -0.6958  -0.6767
 -0.6762  -0.6670  -0.6102  -0.6029  -0.5977  -0.5856  -0.5835  -0.5601
 -0.5371  -0.5253  -0.5139  -0.4917  -0.4783  -0.4616  -0.4584  -0.4563
 -0.3923  -0.3466  -0.2737

          Ground-State Mulliken Net Atomic Charges

     Atom                 Charge (a.u.)
  ----------------------------------------
      1 C                     0.045381
      2 S                     0.075463
      3 C                    -0.269626
      4 C                    -0.095716
      5 C                    -0.015817
      6 C                     0.400561
      7 C                    -0.169074
      8 S                     0.021981
      9 C                     0.460357
     10 O                    -0.458419
     11 O                    -0.298897
     12 F                    -0.213774
     13 C                    -0.055084
     14 H                     0.115985
     15 H                     0.083723
     16 H                     0.083500
     17 C                    -0.377859
     18 H                     0.143054
     19 H                     0.165617
     20 H                     0.148302
     21 H                     0.210342
  ----------------------------------------
  Sum of atomic charges =     0.000000

                    Cartesian Multipole Moments
 -----------------------------------------------------------------
    Charge (ESU x 10^10)
                -0.0000
    Dipole Moment (Debye)
         X       0.8625      Y       0.3057      Z       4.0456
       Tot       4.1478
    Quadrupole Moments (Debye-Ang)
        XX     -96.4720     XY      -0.6312     YY     -81.8883
        XZ      -0.5855     YZ     -13.4225     ZZ     -96.1323

 Total job time:  53.98s(wall), 1947.47s(cpu)
        *  Thank you very much for using Q-Chem.  Have a nice day.  *
