 Q-Chem 5.4, Q-Chem, Inc., Pleasanton, CA (2021)
 Q-Chem 5.4.0 for Intel X86 EM64T Linux

User input:
--------------------------------------------------------------
$molecule
0 1
C	-0.080952	-0.833466	1.024315
S	-0.000352	0.062334	2.535015
C	0.135848	1.631734	1.751915
C	-0.001852	0.071334	-0.040385
C	0.117748	1.454934	0.346015
C	-0.005952	0.005034	-1.461785
C	0.104148	1.265034	-2.082585
S	0.209548	2.508134	-0.941385
C	0.130948	1.518134	-3.535685
O	0.052548	0.587934	-4.325985
O	0.246048	2.796134	-3.980085
F	-0.099152	-1.105166	-2.221985
C	0.287448	3.152634	-5.310685
H	0.384348	4.253334	-5.345985
H	-0.634052	2.842434	-5.851285
H	1.148948	2.685834	-5.837585
C	-0.080952	-2.268666	1.024315
H	0.850048	-2.277666	0.477015
H	0.337248	-2.952566	1.748015
H	-0.559952	-2.793066	0.210715
H	0.216148	2.548234	2.345815
$end

$rem
JOBTYPE		SP
EXCHANGE	HF
CORRELATION	pRIMP2
BASIS		cc-pvtz
METHOD		rimp2
AUX_BASIS	rimp2-cc-pvtz
SOLVENT_METHOD	PCM
PURECART	11111
SYMMETRY	false
MEM_TOTAL	110000
SCF_CONVERGENCE = 6
THRESH=10
GUI = 2
$end

$solvent
dielectric 4.90
$end
--------------------------------------------------------------

             Standard Nuclear Orientation (Angstroms)
    I     Atom           X                Y                Z
 ----------------------------------------------------------------
    1      C      -0.0809520000    -0.8334660000     1.0243150000
    2      S      -0.0003520000     0.0623340000     2.5350150000
    3      C       0.1358480000     1.6317340000     1.7519150000
    4      C      -0.0018520000     0.0713340000    -0.0403850000
    5      C       0.1177480000     1.4549340000     0.3460150000
    6      C      -0.0059520000     0.0050340000    -1.4617850000
    7      C       0.1041480000     1.2650340000    -2.0825850000
    8      S       0.2095480000     2.5081340000    -0.9413850000
    9      C       0.1309480000     1.5181340000    -3.5356850000
   10      O       0.0525480000     0.5879340000    -4.3259850000
   11      O       0.2460480000     2.7961340000    -3.9800850000
   12      F      -0.0991520000    -1.1051660000    -2.2219850000
   13      C       0.2874480000     3.1526340000    -5.3106850000
   14      H       0.3843480000     4.2533340000    -5.3459850000
   15      H      -0.6340520000     2.8424340000    -5.8512850000
   16      H       1.1489480000     2.6858340000    -5.8375850000
   17      C      -0.0809520000    -2.2686660000     1.0243150000
   18      H       0.8500480000    -2.2776660000     0.4770150000
   19      H       0.3372480000    -2.9525660000     1.7480150000
   20      H      -0.5599520000    -2.7930660000     0.2107150000
   21      H       0.2161480000     2.5482340000     2.3458150000
 ----------------------------------------------------------------

   11   -1389.2562167921      4.35e-07  Convergence criterion met
 Total energy in the final basis set =    -1389.2562167921
        RIMP2         total energy =     -1391.7597009019 a.u.

                    Orbital Energies (a.u.)
 --------------------------------------------------------------

 Alpha MOs
 -- Occupied --
-92.0066 -91.9885 -26.3349 -20.6093 -20.5451 -11.4060 -11.3767 -11.3200
-11.2918 -11.2872 -11.2872 -11.2742 -11.2675 -11.2350  -9.0052  -8.9927
 -6.6860  -6.6854  -6.6849  -6.6740  -6.6733  -6.6720  -1.6479  -1.4687
 -1.3635  -1.2264  -1.1463  -1.0681  -1.0264  -1.0067  -0.9675  -0.9116
 -0.8624  -0.7955  -0.7848  -0.7655  -0.7259  -0.7156  -0.6971  -0.6778
 -0.6763  -0.6673  -0.6106  -0.6029  -0.5935  -0.5912  -0.5851  -0.5620
 -0.5386  -0.5233  -0.5084  -0.4923  -0.4779  -0.4637  -0.4590  -0.4564
 -0.3906  -0.3464  -0.2738

          Ground-State Mulliken Net Atomic Charges

     Atom                 Charge (a.u.)
  ----------------------------------------
      1 C                     0.057093
      2 S                     0.083651
      3 C                    -0.279150
      4 C                    -0.101500
      5 C                    -0.007460
      6 C                     0.389938
      7 C                    -0.169308
      8 S                     0.024383
      9 C                     0.459660
     10 O                    -0.459322
     11 O                    -0.299040
     12 F                    -0.214209
     13 C                    -0.055071
     14 H                     0.115996
     15 H                     0.083641
     16 H                     0.083432
     17 C                    -0.383780
     18 H                     0.142173
     19 H                     0.170076
     20 H                     0.149891
     21 H                     0.208904
  ----------------------------------------
  Sum of atomic charges =     0.000000

                    Cartesian Multipole Moments
 -----------------------------------------------------------------
    Charge (ESU x 10^10)
                -0.0000
    Dipole Moment (Debye)
         X       0.8335      Y       0.2363      Z       3.3844
       Tot       3.4936
    Quadrupole Moments (Debye-Ang)
        XX     -96.4546     XY      -0.7263     YY     -81.8329
        XZ      -0.0238     YZ     -11.8057     ZZ     -97.6637

 Total job time:  58.98s(wall), 2263.84s(cpu)
        *  Thank you very much for using Q-Chem.  Have a nice day.  *
