 Q-Chem 5.4, Q-Chem, Inc., Pleasanton, CA (2021)
 Q-Chem 5.4.0 for Intel X86 EM64T Linux

User input:
--------------------------------------------------------------
$molecule
0 1
C	-0.232805	-0.806326	1.024624
S	0.002095	0.061874	2.535324
C	0.408795	1.583774	1.752224
C	0.002195	0.070974	-0.040076
C	0.360195	1.412774	0.346324
C	-0.013305	0.006374	-1.461476
C	0.313895	1.228174	-2.082276
S	0.633495	2.434074	-0.941076
C	0.384295	1.472774	-3.535376
O	0.145495	0.570274	-4.325676
O	0.719495	2.711374	-3.979776
F	-0.297905	-1.070726	-2.221676
C	0.822195	3.055274	-5.310376
H	1.108695	4.122374	-5.345676
H	-0.139205	2.909774	-5.850976
H	1.589495	2.445874	-5.837276
C	-0.232805	-2.241526	1.024624
H	0.588995	-2.250526	0.324024
H	0.304795	-2.925426	1.664724
H	-0.845805	-2.765926	0.306524
H	0.646995	2.472474	2.346124
$end

$rem
JOBTYPE		SP
EXCHANGE	HF
CORRELATION	pRIMP2
BASIS		cc-pvtz
METHOD		rimp2
AUX_BASIS	rimp2-cc-pvtz
SOLVENT_METHOD	PCM
PURECART	11111
SYMMETRY	false
MEM_TOTAL	110000
SCF_CONVERGENCE = 6
THRESH=10
GUI = 2
$end

$solvent
dielectric 4.90
$end
--------------------------------------------------------------

             Standard Nuclear Orientation (Angstroms)
    I     Atom           X                Y                Z
 ----------------------------------------------------------------
    1      C      -0.2328050000    -0.8063260000     1.0246240000
    2      S       0.0020950000     0.0618740000     2.5353240000
    3      C       0.4087950000     1.5837740000     1.7522240000
    4      C       0.0021950000     0.0709740000    -0.0400760000
    5      C       0.3601950000     1.4127740000     0.3463240000
    6      C      -0.0133050000     0.0063740000    -1.4614760000
    7      C       0.3138950000     1.2281740000    -2.0822760000
    8      S       0.6334950000     2.4340740000    -0.9410760000
    9      C       0.3842950000     1.4727740000    -3.5353760000
   10      O       0.1454950000     0.5702740000    -4.3256760000
   11      O       0.7194950000     2.7113740000    -3.9797760000
   12      F      -0.2979050000    -1.0707260000    -2.2216760000
   13      C       0.8221950000     3.0552740000    -5.3103760000
   14      H       1.1086950000     4.1223740000    -5.3456760000
   15      H      -0.1392050000     2.9097740000    -5.8509760000
   16      H       1.5894950000     2.4458740000    -5.8372760000
   17      C      -0.2328050000    -2.2415260000     1.0246240000
   18      H       0.5889950000    -2.2505260000     0.3240240000
   19      H       0.3047950000    -2.9254260000     1.6647240000
   20      H      -0.8458050000    -2.7659260000     0.3065240000
   21      H       0.6469950000     2.4724740000     2.3461240000
 ----------------------------------------------------------------

   11   -1389.2510578784      4.61e-07  Convergence criterion met
 Total energy in the final basis set =    -1389.2510578784
        RIMP2         total energy =     -1391.7569912062 a.u.

                    Orbital Energies (a.u.)
 --------------------------------------------------------------

 Alpha MOs
 -- Occupied --
-92.0069 -91.9895 -26.3349 -20.6098 -20.5460 -11.4068 -11.3764 -11.3162
-11.2920 -11.2890 -11.2874 -11.2770 -11.2685 -11.2326  -9.0055  -8.9937
 -6.6863  -6.6857  -6.6852  -6.6750  -6.6743  -6.6730  -1.6479  -1.4693
 -1.3641  -1.2271  -1.1467  -1.0682  -1.0264  -1.0062  -0.9679  -0.9109
 -0.8629  -0.7954  -0.7851  -0.7660  -0.7260  -0.7157  -0.6971  -0.6779
 -0.6767  -0.6678  -0.6099  -0.6034  -0.5938  -0.5914  -0.5854  -0.5629
 -0.5386  -0.5239  -0.5058  -0.4884  -0.4773  -0.4649  -0.4594  -0.4569
 -0.3906  -0.3460  -0.2758

          Ground-State Mulliken Net Atomic Charges

     Atom                 Charge (a.u.)
  ----------------------------------------
      1 C                     0.045870
      2 S                     0.087596
      3 C                    -0.272071
      4 C                    -0.093003
      5 C                    -0.008441
      6 C                     0.375638
      7 C                    -0.165530
      8 S                     0.029102
      9 C                     0.458338
     10 O                    -0.457595
     11 O                    -0.298815
     12 F                    -0.213000
     13 C                    -0.054879
     14 H                     0.116106
     15 H                     0.083773
     16 H                     0.083532
     17 C                    -0.381282
     18 H                     0.138869
     19 H                     0.169242
     20 H                     0.147395
     21 H                     0.209157
  ----------------------------------------
  Sum of atomic charges =     0.000000

                    Cartesian Multipole Moments
 -----------------------------------------------------------------
    Charge (ESU x 10^10)
                -0.0000
    Dipole Moment (Debye)
         X       1.1705      Y       0.4675      Z       3.2231
       Tot       3.4608
    Quadrupole Moments (Debye-Ang)
        XX     -95.9455     XY       1.1334     YY     -82.6629
        XZ      -1.8707     YZ     -11.1144     ZZ     -97.5340

 Total job time:  54.24s(wall), 1945.34s(cpu)
        *  Thank you very much for using Q-Chem.  Have a nice day.  *
