 Q-Chem 5.4, Q-Chem, Inc., Pleasanton, CA (2021)
 Q-Chem 5.4.0 for Intel X86 EM64T Linux

User input:
--------------------------------------------------------------
$molecule
0 1
C	-0.682617	-0.518946	1.022765
S	0.007783	0.057454	2.533465
C	1.213883	1.070954	1.750365
C	0.013083	0.064854	-0.041935
C	1.075983	0.958754	0.344465
C	-0.036717	0.020954	-1.463335
C	0.932183	0.834054	-2.084135
S	1.885683	1.638454	-0.942935
C	1.130083	0.994054	-3.537235
O	0.416883	0.391754	-4.327535
O	2.115183	1.816354	-3.981635
F	-0.887617	-0.698246	-2.223535
C	2.396483	2.039154	-5.312235
H	3.243283	2.748954	-5.347535
H	1.525483	2.471454	-5.852835
H	2.675483	1.099854	-5.839135
C	-0.682617	-1.954146	1.022765
H	0.382383	-1.963146	1.201965
H	-0.827417	-2.638046	1.845965
H	-0.526517	-2.478546	0.091565
H	1.918683	1.662254	2.344265
$end

$rem
JOBTYPE		SP
EXCHANGE	HF
CORRELATION	pRIMP2
BASIS		cc-pvtz
METHOD		rimp2
AUX_BASIS	rimp2-cc-pvtz
SOLVENT_METHOD	PCM
PURECART	11111
SYMMETRY	false
MEM_TOTAL	110000
SCF_CONVERGENCE = 6
THRESH=10
GUI = 2
$end

$solvent
dielectric 4.90
$end
--------------------------------------------------------------

             Standard Nuclear Orientation (Angstroms)
    I     Atom           X                Y                Z
 ----------------------------------------------------------------
    1      C      -0.6826170000    -0.5189460000     1.0227650000
    2      S       0.0077830000     0.0574540000     2.5334650000
    3      C       1.2138830000     1.0709540000     1.7503650000
    4      C       0.0130830000     0.0648540000    -0.0419350000
    5      C       1.0759830000     0.9587540000     0.3444650000
    6      C      -0.0367170000     0.0209540000    -1.4633350000
    7      C       0.9321830000     0.8340540000    -2.0841350000
    8      S       1.8856830000     1.6384540000    -0.9429350000
    9      C       1.1300830000     0.9940540000    -3.5372350000
   10      O       0.4168830000     0.3917540000    -4.3275350000
   11      O       2.1151830000     1.8163540000    -3.9816350000
   12      F      -0.8876170000    -0.6982460000    -2.2235350000
   13      C       2.3964830000     2.0391540000    -5.3122350000
   14      H       3.2432830000     2.7489540000    -5.3475350000
   15      H       1.5254830000     2.4714540000    -5.8528350000
   16      H       2.6754830000     1.0998540000    -5.8391350000
   17      C      -0.6826170000    -1.9541460000     1.0227650000
   18      H       0.3823830000    -1.9631460000     1.2019650000
   19      H      -0.8274170000    -2.6380460000     1.8459650000
   20      H      -0.5265170000    -2.4785460000     0.0915650000
   21      H       1.9186830000     1.6622540000     2.3442650000
 ----------------------------------------------------------------

   11   -1389.2071812123      6.18e-07  Convergence criterion met
 Total energy in the final basis set =    -1389.2071812123
        RIMP2         total energy =     -1391.7247809745 a.u.

                    Orbital Energies (a.u.)
 --------------------------------------------------------------

 Alpha MOs
 -- Occupied --
-92.0023 -91.9938 -26.3340 -20.6117 -20.5494 -11.4097 -11.3761 -11.2986
-11.2963 -11.2959 -11.2944 -11.2884 -11.2744 -11.2294  -9.0022  -8.9979
 -6.6829  -6.6822  -6.6819  -6.6791  -6.6785  -6.6771  -1.6470  -1.4714
 -1.3667  -1.2330  -1.1551  -1.0695  -1.0296  -1.0024  -0.9701  -0.9055
 -0.8658  -0.7975  -0.7863  -0.7706  -0.7282  -0.7153  -0.6964  -0.6783
 -0.6767  -0.6705  -0.6091  -0.6068  -0.6041  -0.5908  -0.5731  -0.5609
 -0.5304  -0.5277  -0.5193  -0.4953  -0.4815  -0.4614  -0.4602  -0.4475
 -0.3871  -0.3470  -0.2754

          Ground-State Mulliken Net Atomic Charges

     Atom                 Charge (a.u.)
  ----------------------------------------
      1 C                    -0.012253
      2 S                     0.089289
      3 C                    -0.225675
      4 C                    -0.077597
      5 C                    -0.016801
      6 C                     0.363259
      7 C                    -0.154555
      8 S                     0.042259
      9 C                     0.457405
     10 O                    -0.451264
     11 O                    -0.298269
     12 F                    -0.210120
     13 C                    -0.054608
     14 H                     0.116489
     15 H                     0.084411
     16 H                     0.084119
     17 C                    -0.369267
     18 H                     0.128630
     19 H                     0.156902
     20 H                     0.135076
     21 H                     0.212570
  ----------------------------------------
  Sum of atomic charges =     0.000000

                    Cartesian Multipole Moments
 -----------------------------------------------------------------
    Charge (ESU x 10^10)
                -0.0000
    Dipole Moment (Debye)
         X       3.3193      Y       0.5417      Z       3.3802
       Tot       4.7683
    Quadrupole Moments (Debye-Ang)
        XX     -92.1183     XY       4.4423     YY     -88.5994
        XZ      -7.2084     YZ      -8.3491     ZZ     -95.0217

 Total job time:  57.27s(wall), 2039.59s(cpu)
        *  Thank you very much for using Q-Chem.  Have a nice day.  *
