 Q-Chem 5.4, Q-Chem, Inc., Pleasanton, CA (2021)
 Q-Chem 5.4.0 for Intel X86 EM64T Linux

User input:
--------------------------------------------------------------
$molecule
0 1
C	0.000321	-0.836989	1.021878
S	0.002521	0.062411	2.532578
C	0.001521	1.637711	1.749478
C	0.000321	0.071211	-0.042822
C	-0.001179	1.460011	0.343578
C	0.001921	0.004811	-1.464222
C	0.001821	1.269711	-2.085022
S	-0.001479	2.517211	-0.943822
C	0.006521	1.524111	-3.538122
O	0.009521	0.590611	-4.328422
O	0.009721	2.807311	-3.982522
F	0.005821	-1.109289	-2.224422
C	0.019921	3.166011	-5.313122
H	0.020521	4.271011	-5.348422
H	-0.871079	2.776711	-5.853722
H	0.918821	2.776111	-5.840022
C	0.000321	-2.272189	1.021878
H	-1.011579	-2.281189	1.399178
H	-0.285879	-2.956089	0.236578
H	0.330721	-2.796589	1.906278
H	0.001521	2.557811	2.343378
$end

$rem
JOBTYPE		SP
EXCHANGE	HF
CORRELATION	pRIMP2
BASIS		cc-pvtz
METHOD		rimp2
AUX_BASIS	rimp2-cc-pvtz
SOLVENT_METHOD	PCM
PURECART	11111
SYMMETRY	false
MEM_TOTAL	110000
SCF_CONVERGENCE = 6
THRESH=10
GUI = 2
$end

$solvent
dielectric 4.90
$end
--------------------------------------------------------------

             Standard Nuclear Orientation (Angstroms)
    I     Atom           X                Y                Z
 ----------------------------------------------------------------
    1      C       0.0003210000    -0.8369890000     1.0218780000
    2      S       0.0025210000     0.0624110000     2.5325780000
    3      C       0.0015210000     1.6377110000     1.7494780000
    4      C       0.0003210000     0.0712110000    -0.0428220000
    5      C      -0.0011790000     1.4600110000     0.3435780000
    6      C       0.0019210000     0.0048110000    -1.4642220000
    7      C       0.0018210000     1.2697110000    -2.0850220000
    8      S      -0.0014790000     2.5172110000    -0.9438220000
    9      C       0.0065210000     1.5241110000    -3.5381220000
   10      O       0.0095210000     0.5906110000    -4.3284220000
   11      O       0.0097210000     2.8073110000    -3.9825220000
   12      F       0.0058210000    -1.1092890000    -2.2244220000
   13      C       0.0199210000     3.1660110000    -5.3131220000
   14      H       0.0205210000     4.2710110000    -5.3484220000
   15      H      -0.8710790000     2.7767110000    -5.8537220000
   16      H       0.9188210000     2.7761110000    -5.8400220000
   17      C       0.0003210000    -2.2721890000     1.0218780000
   18      H      -1.0115790000    -2.2811890000     1.3991780000
   19      H      -0.2858790000    -2.9560890000     0.2365780000
   20      H       0.3307210000    -2.7965890000     1.9062780000
   21      H       0.0015210000     2.5578110000     2.3433780000
 ----------------------------------------------------------------

   11   -1389.2564981044      4.15e-07  Convergence criterion met
 Total energy in the final basis set =    -1389.2564981044
        RIMP2         total energy =     -1391.7578486163 a.u.

                    Orbital Energies (a.u.)
 --------------------------------------------------------------

 Alpha MOs
 -- Occupied --
-92.0065 -91.9871 -26.3338 -20.6089 -20.5446 -11.4055 -11.3765 -11.3205
-11.2909 -11.2869 -11.2863 -11.2749 -11.2659 -11.2358  -9.0054  -8.9914
 -6.6862  -6.6856  -6.6851  -6.6727  -6.6720  -6.6706  -1.6467  -1.4683
 -1.3630  -1.2257  -1.1469  -1.0668  -1.0277  -1.0062  -0.9672  -0.9112
 -0.8624  -0.7959  -0.7838  -0.7657  -0.7257  -0.7144  -0.6963  -0.6776
 -0.6759  -0.6666  -0.6100  -0.6025  -0.5954  -0.5852  -0.5828  -0.5594
 -0.5356  -0.5273  -0.5172  -0.4932  -0.4781  -0.4620  -0.4583  -0.4561
 -0.3910  -0.3469  -0.2723

          Ground-State Mulliken Net Atomic Charges

     Atom                 Charge (a.u.)
  ----------------------------------------
      1 C                     0.041228
      2 S                     0.078738
      3 C                    -0.274889
      4 C                    -0.094902
      5 C                    -0.014883
      6 C                     0.404460
      7 C                    -0.172414
      8 S                     0.020794
      9 C                     0.460476
     10 O                    -0.459647
     11 O                    -0.299122
     12 F                    -0.214113
     13 C                    -0.055041
     14 H                     0.115870
     15 H                     0.083460
     16 H                     0.083480
     17 C                    -0.380964
     18 H                     0.146543
     19 H                     0.171628
     20 H                     0.148821
     21 H                     0.210475
  ----------------------------------------
  Sum of atomic charges =     0.000000

                    Cartesian Multipole Moments
 -----------------------------------------------------------------
    Charge (ESU x 10^10)
                -0.0000
    Dipole Moment (Debye)
         X      -0.7159      Y       0.1435      Z       4.0507
       Tot       4.1160
    Quadrupole Moments (Debye-Ang)
        XX     -96.5399     XY       1.8520     YY     -81.7146
        XZ      -0.5676     YZ     -13.0727     ZZ     -96.4354

 Total job time:  55.11s(wall), 1978.82s(cpu)
        *  Thank you very much for using Q-Chem.  Have a nice day.  *
