 Q-Chem 5.4, Q-Chem, Inc., Pleasanton, CA (2021)
 Q-Chem 5.4.0 for Intel X86 EM64T Linux

User input:
--------------------------------------------------------------
$molecule
0 1
C	-0.302602	-0.782911	1.023483
S	0.007098	0.061489	2.534183
C	0.544898	1.542189	1.751083
C	0.007998	0.070589	-0.041217
C	0.481598	1.376089	0.345183
C	-0.013102	0.007589	-1.462617
C	0.419298	1.196189	-2.083417
S	0.842898	2.369589	-0.942217
C	0.510798	1.433689	-3.536517
O	0.194298	0.555489	-4.326817
O	0.952698	2.638389	-3.980917
F	-0.390502	-1.040711	-2.222817
C	1.084898	2.971989	-5.311517
H	1.463398	4.010189	-5.346817
H	0.114498	2.910889	-5.852117
H	1.796198	2.298089	-5.838417
C	-0.302602	-2.218111	1.023483
H	-1.320302	-2.227111	0.662083
H	-0.017102	-2.902011	0.237883
H	-0.618002	-2.742511	1.913383
H	0.859598	2.406689	2.344983
$end

$rem
JOBTYPE		SP
EXCHANGE	HF
CORRELATION	pRIMP2
BASIS		cc-pvtz
METHOD		rimp2
AUX_BASIS	rimp2-cc-pvtz
SOLVENT_METHOD	PCM
PURECART	11111
SYMMETRY	false
MEM_TOTAL	110000
SCF_CONVERGENCE = 6
THRESH=10
GUI = 2
$end

$solvent
dielectric 4.90
$end
--------------------------------------------------------------

             Standard Nuclear Orientation (Angstroms)
    I     Atom           X                Y                Z
 ----------------------------------------------------------------
    1      C      -0.3026020000    -0.7829110000     1.0234830000
    2      S       0.0070980000     0.0614890000     2.5341830000
    3      C       0.5448980000     1.5421890000     1.7510830000
    4      C       0.0079980000     0.0705890000    -0.0412170000
    5      C       0.4815980000     1.3760890000     0.3451830000
    6      C      -0.0131020000     0.0075890000    -1.4626170000
    7      C       0.4192980000     1.1961890000    -2.0834170000
    8      S       0.8428980000     2.3695890000    -0.9422170000
    9      C       0.5107980000     1.4336890000    -3.5365170000
   10      O       0.1942980000     0.5554890000    -4.3268170000
   11      O       0.9526980000     2.6383890000    -3.9809170000
   12      F      -0.3905020000    -1.0407110000    -2.2228170000
   13      C       1.0848980000     2.9719890000    -5.3115170000
   14      H       1.4633980000     4.0101890000    -5.3468170000
   15      H       0.1144980000     2.9108890000    -5.8521170000
   16      H       1.7961980000     2.2980890000    -5.8384170000
   17      C      -0.3026020000    -2.2181110000     1.0234830000
   18      H      -1.3203020000    -2.2271110000     0.6620830000
   19      H      -0.0171020000    -2.9020110000     0.2378830000
   20      H      -0.6180020000    -2.7425110000     1.9133830000
   21      H       0.8595980000     2.4066890000     2.3449830000
 ----------------------------------------------------------------

   11   -1389.2460573469      4.68e-07  Convergence criterion met
 Total energy in the final basis set =    -1389.2460573469
        RIMP2         total energy =     -1391.7523926577 a.u.

                    Orbital Energies (a.u.)
 --------------------------------------------------------------

 Alpha MOs
 -- Occupied --
-92.0060 -91.9889 -26.3344 -20.6095 -20.5456 -11.4064 -11.3762 -11.3144
-11.2917 -11.2883 -11.2872 -11.2778 -11.2683 -11.2319  -9.0048  -8.9931
 -6.6856  -6.6850  -6.6845  -6.6744  -6.6737  -6.6724  -1.6474  -1.4690
 -1.3638  -1.2265  -1.1463  -1.0670  -1.0269  -1.0061  -0.9676  -0.9114
 -0.8627  -0.7957  -0.7846  -0.7660  -0.7257  -0.7152  -0.6964  -0.6779
 -0.6764  -0.6675  -0.6087  -0.6031  -0.5937  -0.5864  -0.5831  -0.5600
 -0.5391  -0.5229  -0.5140  -0.4938  -0.4791  -0.4603  -0.4576  -0.4557
 -0.3889  -0.3462  -0.2732

          Ground-State Mulliken Net Atomic Charges

     Atom                 Charge (a.u.)
  ----------------------------------------
      1 C                     0.043028
      2 S                     0.092322
      3 C                    -0.270920
      4 C                    -0.108354
      5 C                    -0.006274
      6 C                     0.376787
      7 C                    -0.166619
      8 S                     0.028069
      9 C                     0.458080
     10 O                    -0.457802
     11 O                    -0.298938
     12 F                    -0.212592
     13 C                    -0.054805
     14 H                     0.116002
     15 H                     0.083641
     16 H                     0.083515
     17 C                    -0.375205
     18 H                     0.143726
     19 H                     0.171588
     20 H                     0.145702
     21 H                     0.209048
  ----------------------------------------
  Sum of atomic charges =     0.000000

                    Cartesian Multipole Moments
 -----------------------------------------------------------------
    Charge (ESU x 10^10)
                -0.0000
    Dipole Moment (Debye)
         X       0.1210      Y       0.3775      Z       3.4619
       Tot       3.4846
    Quadrupole Moments (Debye-Ang)
        XX     -95.0510     XY       4.9768     YY     -83.1645
        XZ      -4.5611     YZ     -11.0672     ZZ     -97.0705

 Total job time:  53.98s(wall), 1948.29s(cpu)
        *  Thank you very much for using Q-Chem.  Have a nice day.  *
