 Q-Chem 5.4, Q-Chem, Inc., Pleasanton, CA (2021)
 Q-Chem 5.4.0 for Intel X86 EM64T Linux

User input:
--------------------------------------------------------------
$molecule
0 1
C	-0.377322	-0.753180	1.020802
S	0.004778	0.061020	2.531502
C	0.669578	1.489220	1.748402
C	0.006478	0.069920	-0.043898
C	0.592078	1.329320	0.342502
C	-0.020122	0.009120	-1.465298
C	0.514378	1.155520	-2.086098
S	1.038578	2.287520	-0.944898
C	0.626178	1.384120	-3.539198
O	0.234278	0.536820	-4.329498
O	1.171378	2.545720	-3.983598
F	-0.487422	-1.002280	-2.225498
C	1.332178	2.866520	-5.314198
H	1.799678	3.867720	-5.349498
H	0.360078	2.890220	-5.854798
H	1.982078	2.133220	-5.841098
C	-0.377322	-2.188380	1.020802
H	-0.000022	-2.197380	2.032702
H	-1.162622	-2.872280	1.307002
H	0.507078	-2.712780	0.690402
H	1.058478	2.323020	2.342302
$end

$rem
JOBTYPE		SP
EXCHANGE	HF
CORRELATION	pRIMP2
BASIS		cc-pvtz
METHOD		rimp2
AUX_BASIS	rimp2-cc-pvtz
SOLVENT_METHOD	PCM
PURECART	11111
SYMMETRY	false
MEM_TOTAL	110000
SCF_CONVERGENCE = 6
THRESH=10
GUI = 2
$end

$solvent
dielectric 4.90
$end
--------------------------------------------------------------

             Standard Nuclear Orientation (Angstroms)
    I     Atom           X                Y                Z
 ----------------------------------------------------------------
    1      C      -0.3773220000    -0.7531800000     1.0208020000
    2      S       0.0047780000     0.0610200000     2.5315020000
    3      C       0.6695780000     1.4892200000     1.7484020000
    4      C       0.0064780000     0.0699200000    -0.0438980000
    5      C       0.5920780000     1.3293200000     0.3425020000
    6      C      -0.0201220000     0.0091200000    -1.4652980000
    7      C       0.5143780000     1.1555200000    -2.0860980000
    8      S       1.0385780000     2.2875200000    -0.9448980000
    9      C       0.6261780000     1.3841200000    -3.5391980000
   10      O       0.2342780000     0.5368200000    -4.3294980000
   11      O       1.1713780000     2.5457200000    -3.9835980000
   12      F      -0.4874220000    -1.0022800000    -2.2254980000
   13      C       1.3321780000     2.8665200000    -5.3141980000
   14      H       1.7996780000     3.8677200000    -5.3494980000
   15      H       0.3600780000     2.8902200000    -5.8547980000
   16      H       1.9820780000     2.1332200000    -5.8410980000
   17      C      -0.3773220000    -2.1883800000     1.0208020000
   18      H      -0.0000220000    -2.1973800000     2.0327020000
   19      H      -1.1626220000    -2.8722800000     1.3070020000
   20      H       0.5070780000    -2.7127800000     0.6904020000
   21      H       1.0584780000     2.3230200000     2.3423020000
 ----------------------------------------------------------------

   11   -1389.2391477384      5.16e-07  Convergence criterion met
 Total energy in the final basis set =    -1389.2391477384
        RIMP2         total energy =     -1391.7484452671 a.u.

                    Orbital Energies (a.u.)
 --------------------------------------------------------------

 Alpha MOs
 -- Occupied --
-92.0069 -91.9907 -26.3330 -20.6109 -20.5483 -11.4085 -11.3750 -11.3031
-11.2935 -11.2914 -11.2879 -11.2873 -11.2713 -11.2260  -9.0060  -8.9949
 -6.6867  -6.6860  -6.6856  -6.6762  -6.6755  -6.6742  -1.6459  -1.4705
 -1.3657  -1.2279  -1.1484  -1.0653  -1.0301  -1.0042  -0.9689  -0.9082
 -0.8650  -0.7969  -0.7844  -0.7686  -0.7267  -0.7140  -0.6954  -0.6775
 -0.6758  -0.6685  -0.6088  -0.6047  -0.5984  -0.5880  -0.5704  -0.5690
 -0.5435  -0.5252  -0.5064  -0.4831  -0.4774  -0.4608  -0.4595  -0.4543
 -0.3952  -0.3450  -0.2816

          Ground-State Mulliken Net Atomic Charges

     Atom                 Charge (a.u.)
  ----------------------------------------
      1 C                     0.036654
      2 S                     0.083175
      3 C                    -0.244630
      4 C                    -0.097613
      5 C                    -0.009946
      6 C                     0.376151
      7 C                    -0.162058
      8 S                     0.032374
      9 C                     0.457714
     10 O                    -0.452561
     11 O                    -0.298147
     12 F                    -0.211307
     13 C                    -0.054764
     14 H                     0.116315
     15 H                     0.084163
     16 H                     0.084013
     17 C                    -0.370599
     18 H                     0.122723
     19 H                     0.149698
     20 H                     0.146609
     21 H                     0.212035
  ----------------------------------------
  Sum of atomic charges =     0.000000

                    Cartesian Multipole Moments
 -----------------------------------------------------------------
    Charge (ESU x 10^10)
                -0.0000
    Dipole Moment (Debye)
         X       1.5721      Y       1.1422      Z       4.0221
       Tot       4.4669
    Quadrupole Moments (Debye-Ang)
        XX     -94.5383     XY       3.3894     YY     -84.3979
        XZ      -4.5635     YZ     -12.3345     ZZ     -94.5851

 Total job time:  52.51s(wall), 1902.93s(cpu)
        *  Thank you very much for using Q-Chem.  Have a nice day.  *
