 Q-Chem 5.4, Q-Chem, Inc., Pleasanton, CA (2021)
 Q-Chem 5.4.0 for Intel X86 EM64T Linux

User input:
--------------------------------------------------------------
$molecule
0 1
C	-0.302539	-0.782911	1.023076
S	0.007161	0.061489	2.533776
C	0.544961	1.542189	1.750676
C	0.008061	0.070589	-0.041624
C	0.481661	1.376089	0.344776
C	-0.013039	0.007589	-1.463024
C	0.419361	1.196189	-2.083824
S	0.842961	2.369589	-0.942624
C	0.510861	1.433689	-3.536924
O	0.194361	0.555489	-4.327224
O	0.952761	2.638389	-3.981324
F	-0.390439	-1.040711	-2.223224
C	1.084961	2.971989	-5.311924
H	1.463461	4.010189	-5.347224
H	0.114561	2.910889	-5.852524
H	1.796261	2.298089	-5.838824
C	-0.302539	-2.218111	1.023076
H	-1.367539	-2.227111	0.843876
H	-0.157739	-2.902011	0.199876
H	-0.458639	-2.742511	1.954276
H	0.859661	2.406689	2.344576
$end

$rem
JOBTYPE		SP
EXCHANGE	HF
CORRELATION	pRIMP2
BASIS		cc-pvtz
METHOD		rimp2
AUX_BASIS	rimp2-cc-pvtz
SOLVENT_METHOD	PCM
PURECART	11111
SYMMETRY	false
MEM_TOTAL	110000
SCF_CONVERGENCE = 6
THRESH=10
GUI = 2
$end

$solvent
dielectric 4.90
$end
--------------------------------------------------------------

             Standard Nuclear Orientation (Angstroms)
    I     Atom           X                Y                Z
 ----------------------------------------------------------------
    1      C      -0.3025390000    -0.7829110000     1.0230760000
    2      S       0.0071610000     0.0614890000     2.5337760000
    3      C       0.5449610000     1.5421890000     1.7506760000
    4      C       0.0080610000     0.0705890000    -0.0416240000
    5      C       0.4816610000     1.3760890000     0.3447760000
    6      C      -0.0130390000     0.0075890000    -1.4630240000
    7      C       0.4193610000     1.1961890000    -2.0838240000
    8      S       0.8429610000     2.3695890000    -0.9426240000
    9      C       0.5108610000     1.4336890000    -3.5369240000
   10      O       0.1943610000     0.5554890000    -4.3272240000
   11      O       0.9527610000     2.6383890000    -3.9813240000
   12      F      -0.3904390000    -1.0407110000    -2.2232240000
   13      C       1.0849610000     2.9719890000    -5.3119240000
   14      H       1.4634610000     4.0101890000    -5.3472240000
   15      H       0.1145610000     2.9108890000    -5.8525240000
   16      H       1.7962610000     2.2980890000    -5.8388240000
   17      C      -0.3025390000    -2.2181110000     1.0230760000
   18      H      -1.3675390000    -2.2271110000     0.8438760000
   19      H      -0.1577390000    -2.9020110000     0.1998760000
   20      H      -0.4586390000    -2.7425110000     1.9542760000
   21      H       0.8596610000     2.4066890000     2.3445760000
 ----------------------------------------------------------------

   11   -1389.2457036293      4.60e-07  Convergence criterion met
 Total energy in the final basis set =    -1389.2457036293
        RIMP2         total energy =     -1391.7514312184 a.u.

                    Orbital Energies (a.u.)
 --------------------------------------------------------------

 Alpha MOs
 -- Occupied --
-92.0063 -91.9884 -26.3343 -20.6092 -20.5452 -11.4060 -11.3761 -11.3157
-11.2915 -11.2875 -11.2871 -11.2769 -11.2675 -11.2326  -9.0051  -8.9926
 -6.6859  -6.6852  -6.6848  -6.6739  -6.6732  -6.6719  -1.6472  -1.4687
 -1.3635  -1.2262  -1.1465  -1.0669  -1.0270  -1.0060  -0.9675  -0.9113
 -0.8626  -0.7957  -0.7844  -0.7659  -0.7257  -0.7150  -0.6961  -0.6776
 -0.6762  -0.6672  -0.6088  -0.6029  -0.5928  -0.5860  -0.5850  -0.5588
 -0.5364  -0.5227  -0.5177  -0.4948  -0.4789  -0.4603  -0.4572  -0.4561
 -0.3884  -0.3463  -0.2722

          Ground-State Mulliken Net Atomic Charges

     Atom                 Charge (a.u.)
  ----------------------------------------
      1 C                     0.042678
      2 S                     0.091948
      3 C                    -0.273992
      4 C                    -0.105488
      5 C                    -0.006294
      6 C                     0.378630
      7 C                    -0.168197
      8 S                     0.027241
      9 C                     0.457973
     10 O                    -0.458336
     11 O                    -0.299026
     12 F                    -0.212577
     13 C                    -0.054812
     14 H                     0.115936
     15 H                     0.083574
     16 H                     0.083455
     17 C                    -0.376690
     18 H                     0.145671
     19 H                     0.172101
     20 H                     0.146831
     21 H                     0.209373
  ----------------------------------------
  Sum of atomic charges =     0.000000

                    Cartesian Multipole Moments
 -----------------------------------------------------------------
    Charge (ESU x 10^10)
                -0.0000
    Dipole Moment (Debye)
         X       0.0510      Y       0.2745      Z       3.6223
       Tot       3.6330
    Quadrupole Moments (Debye-Ang)
        XX     -95.1043     XY       5.0716     YY     -83.1290
        XZ      -4.5317     YZ     -11.3725     ZZ     -96.8918

 Total job time:  54.81s(wall), 1953.71s(cpu)
        *  Thank you very much for using Q-Chem.  Have a nice day.  *
