 Q-Chem 5.4, Q-Chem, Inc., Pleasanton, CA (2021)
 Q-Chem 5.4.0 for Intel X86 EM64T Linux

User input:
--------------------------------------------------------------
$molecule
0 1
C	-0.569510	-0.628442	1.024554
S	0.010390	0.059158	2.535254
C	1.022090	1.266558	1.752154
C	0.014290	0.067358	-0.040146
C	0.905790	1.132158	0.346254
C	-0.027110	0.015358	-1.461546
C	0.785790	0.984358	-2.082346
S	1.585090	1.942158	-0.941146
C	0.952890	1.176358	-3.535446
O	0.355190	0.459358	-4.325746
O	1.780190	2.157258	-3.979846
F	-0.740310	-0.840542	-2.221746
C	2.018590	2.425458	-5.310446
H	2.729290	3.271558	-5.345746
H	1.085790	2.699958	-5.851046
H	2.456490	1.548958	-5.837346
C	-0.569510	-2.063642	1.024554
H	-1.270110	-2.072642	0.202754
H	0.070590	-2.747542	0.486954
H	-1.287610	-2.588042	1.637554
H	1.613590	1.971358	2.346054
$end

$rem
JOBTYPE		SP
EXCHANGE	HF
CORRELATION	pRIMP2
BASIS		cc-pvtz
METHOD		rimp2
AUX_BASIS	rimp2-cc-pvtz
SOLVENT_METHOD	PCM
PURECART	11111
SYMMETRY	false
MEM_TOTAL	110000
SCF_CONVERGENCE = 6
THRESH=10
GUI = 2
$end

$solvent
dielectric 4.90
$end
--------------------------------------------------------------

             Standard Nuclear Orientation (Angstroms)
    I     Atom           X                Y                Z
 ----------------------------------------------------------------
    1      C      -0.5695100000    -0.6284420000     1.0245540000
    2      S       0.0103900000     0.0591580000     2.5352540000
    3      C       1.0220900000     1.2665580000     1.7521540000
    4      C       0.0142900000     0.0673580000    -0.0401460000
    5      C       0.9057900000     1.1321580000     0.3462540000
    6      C      -0.0271100000     0.0153580000    -1.4615460000
    7      C       0.7857900000     0.9843580000    -2.0823460000
    8      S       1.5850900000     1.9421580000    -0.9411460000
    9      C       0.9528900000     1.1763580000    -3.5354460000
   10      O       0.3551900000     0.4593580000    -4.3257460000
   11      O       1.7801900000     2.1572580000    -3.9798460000
   12      F      -0.7403100000    -0.8405420000    -2.2217460000
   13      C       2.0185900000     2.4254580000    -5.3104460000
   14      H       2.7292900000     3.2715580000    -5.3457460000
   15      H       1.0857900000     2.6999580000    -5.8510460000
   16      H       2.4564900000     1.5489580000    -5.8373460000
   17      C      -0.5695100000    -2.0636420000     1.0245540000
   18      H      -1.2701100000    -2.0726420000     0.2027540000
   19      H       0.0705900000    -2.7475420000     0.4869540000
   20      H      -1.2876100000    -2.5880420000     1.6375540000
   21      H       1.6135900000     1.9713580000     2.3460540000
 ----------------------------------------------------------------

   11   -1389.2224576766      6.27e-07  Convergence criterion met
 Total energy in the final basis set =    -1389.2224576766
        RIMP2         total energy =     -1391.7388620969 a.u.

                    Orbital Energies (a.u.)
 --------------------------------------------------------------

 Alpha MOs
 -- Occupied --
-92.0024 -91.9946 -26.3343 -20.6121 -20.5504 -11.4104 -11.3754 -11.2975
-11.2954 -11.2930 -11.2908 -11.2886 -11.2772 -11.2218  -9.0017  -8.9985
 -6.6824  -6.6816  -6.6814  -6.6798  -6.6791  -6.6778  -1.6475  -1.4720
 -1.3674  -1.2304  -1.1476  -1.0676  -1.0280  -1.0038  -0.9696  -0.9095
 -0.8651  -0.7960  -0.7867  -0.7689  -0.7273  -0.7158  -0.6965  -0.6786
 -0.6771  -0.6706  -0.6066  -0.6060  -0.5986  -0.5908  -0.5722  -0.5641
 -0.5412  -0.5252  -0.5091  -0.4842  -0.4815  -0.4618  -0.4609  -0.4427
 -0.3899  -0.3447  -0.2819

          Ground-State Mulliken Net Atomic Charges

     Atom                 Charge (a.u.)
  ----------------------------------------
      1 C                    -0.027584
      2 S                     0.094904
      3 C                    -0.218480
      4 C                    -0.073458
      5 C                    -0.021221
      6 C                     0.365200
      7 C                    -0.148690
      8 S                     0.042520
      9 C                     0.456896
     10 O                    -0.449925
     11 O                    -0.297825
     12 F                    -0.211755
     13 C                    -0.054615
     14 H                     0.116647
     15 H                     0.084493
     16 H                     0.084279
     17 C                    -0.377008
     18 H                     0.122668
     19 H                     0.160726
     20 H                     0.141008
     21 H                     0.211220
  ----------------------------------------
  Sum of atomic charges =     0.000000

                    Cartesian Multipole Moments
 -----------------------------------------------------------------
    Charge (ESU x 10^10)
                -0.0000
    Dipole Moment (Debye)
         X       1.9704      Y       1.2512      Z       2.7277
       Tot       3.5900
    Quadrupole Moments (Debye-Ang)
        XX     -91.8418     XY       6.2411     YY     -86.8860
        XZ      -7.0417     YZ      -8.0571     ZZ     -96.1890

 Total job time:  55.54s(wall), 1958.97s(cpu)
        *  Thank you very much for using Q-Chem.  Have a nice day.  *
