 Q-Chem 5.4, Q-Chem, Inc., Pleasanton, CA (2021)
 Q-Chem 5.4.0 for Intel X86 EM64T Linux

User input:
--------------------------------------------------------------
$molecule
0 1
C	-0.229859	-0.806326	1.020958
S	0.005041	0.061874	2.531658
C	0.411741	1.583774	1.748558
C	0.005141	0.070974	-0.043742
C	0.363141	1.412774	0.342658
C	-0.010359	0.006374	-1.465142
C	0.316841	1.228174	-2.085942
S	0.636441	2.434074	-0.944742
C	0.387241	1.472774	-3.539042
O	0.148441	0.570274	-4.329342
O	0.722441	2.711374	-3.983442
F	-0.294959	-1.070726	-2.225342
C	0.825141	3.055274	-5.314042
H	1.111641	4.122374	-5.349342
H	-0.136259	2.909774	-5.854642
H	1.592441	2.445874	-5.840942
C	-0.229859	-2.241526	1.020958
H	-0.917559	-2.250526	1.853658
H	-0.870359	-2.925426	0.483958
H	0.498541	-2.765926	1.621658
H	0.649941	2.472474	2.342458
$end

$rem
JOBTYPE		SP
EXCHANGE	HF
CORRELATION	pRIMP2
BASIS		cc-pvtz
METHOD		rimp2
AUX_BASIS	rimp2-cc-pvtz
SOLVENT_METHOD	PCM
PURECART	11111
SYMMETRY	false
MEM_TOTAL	110000
SCF_CONVERGENCE = 6
THRESH=10
GUI = 2
$end

$solvent
dielectric 4.90
$end
--------------------------------------------------------------

             Standard Nuclear Orientation (Angstroms)
    I     Atom           X                Y                Z
 ----------------------------------------------------------------
    1      C      -0.2298590000    -0.8063260000     1.0209580000
    2      S       0.0050410000     0.0618740000     2.5316580000
    3      C       0.4117410000     1.5837740000     1.7485580000
    4      C       0.0051410000     0.0709740000    -0.0437420000
    5      C       0.3631410000     1.4127740000     0.3426580000
    6      C      -0.0103590000     0.0063740000    -1.4651420000
    7      C       0.3168410000     1.2281740000    -2.0859420000
    8      S       0.6364410000     2.4340740000    -0.9447420000
    9      C       0.3872410000     1.4727740000    -3.5390420000
   10      O       0.1484410000     0.5702740000    -4.3293420000
   11      O       0.7224410000     2.7113740000    -3.9834420000
   12      F      -0.2949590000    -1.0707260000    -2.2253420000
   13      C       0.8251410000     3.0552740000    -5.3140420000
   14      H       1.1116410000     4.1223740000    -5.3493420000
   15      H      -0.1362590000     2.9097740000    -5.8546420000
   16      H       1.5924410000     2.4458740000    -5.8409420000
   17      C      -0.2298590000    -2.2415260000     1.0209580000
   18      H      -0.9175590000    -2.2505260000     1.8536580000
   19      H      -0.8703590000    -2.9254260000     0.4839580000
   20      H       0.4985410000    -2.7659260000     1.6216580000
   21      H       0.6499410000     2.4724740000     2.3424580000
 ----------------------------------------------------------------

   11   -1389.2490765497      4.74e-07  Convergence criterion met
 Total energy in the final basis set =    -1389.2490765497
        RIMP2         total energy =     -1391.7549241716 a.u.

                    Orbital Energies (a.u.)
 --------------------------------------------------------------

 Alpha MOs
 -- Occupied --
-92.0083 -91.9890 -26.3331 -20.6099 -20.5466 -11.4071 -11.3753 -11.3101
-11.2912 -11.2902 -11.2874 -11.2823 -11.2682 -11.2297  -9.0071  -8.9932
 -6.6879  -6.6873  -6.6868  -6.6745  -6.6739  -6.6725  -1.6460  -1.4695
 -1.3644  -1.2265  -1.1468  -1.0654  -1.0290  -1.0054  -0.9680  -0.9103
 -0.8637  -0.7963  -0.7840  -0.7671  -0.7260  -0.7139  -0.6953  -0.6767
 -0.6762  -0.6676  -0.6098  -0.6037  -0.5951  -0.5869  -0.5804  -0.5630
 -0.5401  -0.5250  -0.5078  -0.4843  -0.4798  -0.4622  -0.4591  -0.4574
 -0.3925  -0.3465  -0.2780

          Ground-State Mulliken Net Atomic Charges

     Atom                 Charge (a.u.)
  ----------------------------------------
      1 C                     0.008684
      2 S                     0.082701
      3 C                    -0.254304
      4 C                    -0.063722
      5 C                    -0.014046
      6 C                     0.377023
      7 C                    -0.163423
      8 S                     0.026309
      9 C                     0.458403
     10 O                    -0.455612
     11 O                    -0.298500
     12 F                    -0.212305
     13 C                    -0.054912
     14 H                     0.116124
     15 H                     0.083844
     16 H                     0.083772
     17 C                    -0.366811
     18 H                     0.124105
     19 H                     0.166377
     20 H                     0.144836
     21 H                     0.211458
  ----------------------------------------
  Sum of atomic charges =     0.000000

                    Cartesian Multipole Moments
 -----------------------------------------------------------------
    Charge (ESU x 10^10)
                -0.0000
    Dipole Moment (Debye)
         X       0.2721      Y       0.8290      Z       4.1092
       Tot       4.2008
    Quadrupole Moments (Debye-Ang)
        XX     -95.3639     XY       3.7446     YY     -82.8575
        XZ      -2.9385     YZ     -12.8480     ZZ     -95.2916

 Total job time:  54.37s(wall), 1961.28s(cpu)
        *  Thank you very much for using Q-Chem.  Have a nice day.  *
