 Q-Chem 5.4, Q-Chem, Inc., Pleasanton, CA (2021)
 Q-Chem 5.4.0 for Intel X86 EM64T Linux

User input:
--------------------------------------------------------------
$molecule
0 1
C	-0.156752	-0.823218	1.020802
S	0.001648	0.062182	2.531502
C	0.274148	1.613782	1.748402
C	0.000948	0.071182	-0.043898
C	0.240648	1.439182	0.342502
C	-0.008952	0.005582	-1.465298
C	0.210548	1.251182	-2.086098
S	0.423848	2.480282	-0.944898
C	0.259348	1.500982	-3.539198
O	0.100148	0.581182	-4.329498
O	0.485348	2.764082	-3.983598
F	-0.198552	-1.092318	-2.225498
C	0.557648	3.115582	-5.314198
H	0.750048	4.203682	-5.349498
H	-0.387452	2.886882	-5.854798
H	1.375148	2.575482	-5.841098
C	-0.156752	-2.258418	1.020802
H	0.220548	-2.267418	2.032702
H	-0.942052	-2.942318	1.307002
H	0.727648	-2.782818	0.690402
H	0.433948	2.519782	2.342302
$end

$rem
JOBTYPE		SP
EXCHANGE	HF
CORRELATION	pRIMP2
BASIS		cc-pvtz
METHOD		rimp2
AUX_BASIS	rimp2-cc-pvtz
SOLVENT_METHOD	PCM
PURECART	11111
SYMMETRY	false
MEM_TOTAL	110000
SCF_CONVERGENCE = 6
THRESH=10
GUI = 2
$end

$solvent
dielectric 4.90
$end
--------------------------------------------------------------

             Standard Nuclear Orientation (Angstroms)
    I     Atom           X                Y                Z
 ----------------------------------------------------------------
    1      C      -0.1567520000    -0.8232180000     1.0208020000
    2      S       0.0016480000     0.0621820000     2.5315020000
    3      C       0.2741480000     1.6137820000     1.7484020000
    4      C       0.0009480000     0.0711820000    -0.0438980000
    5      C       0.2406480000     1.4391820000     0.3425020000
    6      C      -0.0089520000     0.0055820000    -1.4652980000
    7      C       0.2105480000     1.2511820000    -2.0860980000
    8      S       0.4238480000     2.4802820000    -0.9448980000
    9      C       0.2593480000     1.5009820000    -3.5391980000
   10      O       0.1001480000     0.5811820000    -4.3294980000
   11      O       0.4853480000     2.7640820000    -3.9835980000
   12      F      -0.1985520000    -1.0923180000    -2.2254980000
   13      C       0.5576480000     3.1155820000    -5.3141980000
   14      H       0.7500480000     4.2036820000    -5.3494980000
   15      H      -0.3874520000     2.8868820000    -5.8547980000
   16      H       1.3751480000     2.5754820000    -5.8410980000
   17      C      -0.1567520000    -2.2584180000     1.0208020000
   18      H       0.2205480000    -2.2674180000     2.0327020000
   19      H      -0.9420520000    -2.9423180000     1.3070020000
   20      H       0.7276480000    -2.7828180000     0.6904020000
   21      H       0.4339480000     2.5197820000     2.3423020000
 ----------------------------------------------------------------

   11   -1389.2506331845      4.79e-07  Convergence criterion met
 Total energy in the final basis set =    -1389.2506331845
        RIMP2         total energy =     -1391.7567751963 a.u.

                    Orbital Energies (a.u.)
 --------------------------------------------------------------

 Alpha MOs
 -- Occupied --
-92.0085 -91.9897 -26.3330 -20.6103 -20.5472 -11.4077 -11.3752 -11.3082
-11.2914 -11.2913 -11.2876 -11.2835 -11.2694 -11.2286  -9.0072  -8.9939
 -6.6880  -6.6874  -6.6869  -6.6752  -6.6745  -6.6732  -1.6459  -1.4699
 -1.3649  -1.2269  -1.1470  -1.0652  -1.0296  -1.0053  -0.9684  -0.9098
 -0.8643  -0.7966  -0.7841  -0.7677  -0.7263  -0.7140  -0.6956  -0.6770
 -0.6762  -0.6679  -0.6091  -0.6041  -0.5978  -0.5872  -0.5748  -0.5676
 -0.5439  -0.5247  -0.5055  -0.4813  -0.4778  -0.4617  -0.4595  -0.4573
 -0.3956  -0.3460  -0.2811

          Ground-State Mulliken Net Atomic Charges

     Atom                 Charge (a.u.)
  ----------------------------------------
      1 C                     0.046228
      2 S                     0.083547
      3 C                    -0.256552
      4 C                    -0.093308
      5 C                    -0.011131
      6 C                     0.390411
      7 C                    -0.165390
      8 S                     0.028815
      9 C                     0.459150
     10 O                    -0.454509
     11 O                    -0.298365
     12 F                    -0.213221
     13 C                    -0.054918
     14 H                     0.116170
     15 H                     0.083984
     16 H                     0.083884
     17 C                    -0.371228
     18 H                     0.117748
     19 H                     0.152827
     20 H                     0.143918
     21 H                     0.211942
  ----------------------------------------
  Sum of atomic charges =     0.000000

                    Cartesian Multipole Moments
 -----------------------------------------------------------------
    Charge (ESU x 10^10)
                -0.0000
    Dipole Moment (Debye)
         X       0.7478      Y       1.0695      Z       4.1305
       Tot       4.3317
    Quadrupole Moments (Debye-Ang)
        XX     -95.7473     XY       1.2281     YY     -82.6285
        XZ      -1.9104     YZ     -13.3488     ZZ     -94.9892

 Total job time:  53.21s(wall), 1936.29s(cpu)
        *  Thank you very much for using Q-Chem.  Have a nice day.  *
