 Q-Chem 5.4, Q-Chem, Inc., Pleasanton, CA (2021)
 Q-Chem 5.4.0 for Intel X86 EM64T Linux

User input:
--------------------------------------------------------------
$molecule
0 1
C	-0.166619	-0.824378	1.023176
S	-0.008219	0.061022	2.533876
C	0.264281	1.612622	1.750776
C	-0.008919	0.070022	-0.041524
C	0.230781	1.438022	0.344876
C	-0.018819	0.004422	-1.462924
C	0.200681	1.250022	-2.083724
S	0.413981	2.479122	-0.942524
C	0.249481	1.499822	-3.536824
O	0.090281	0.580022	-4.327124
O	0.475481	2.762922	-3.981224
F	-0.208419	-1.093478	-2.223124
C	0.547781	3.114422	-5.311824
H	0.740181	4.202522	-5.347124
H	-0.397319	2.885722	-5.852424
H	1.365281	2.574322	-5.838724
C	0.082581	-2.237778	1.023176
H	1.147681	-2.059078	1.014676
H	0.201681	-2.911178	1.859076
H	0.165781	-2.755578	0.079076
H	0.424081	2.518622	2.344676
$end

$rem
JOBTYPE		SP
EXCHANGE	HF
CORRELATION	pRIMP2
BASIS		cc-pvtz
METHOD		rimp2
AUX_BASIS	rimp2-cc-pvtz
SOLVENT_METHOD	PCM
PURECART	11111
SYMMETRY	false
MEM_TOTAL	110000
SCF_CONVERGENCE = 6
THRESH=10
GUI = 2
$end

$solvent
dielectric 4.90
$end
--------------------------------------------------------------

             Standard Nuclear Orientation (Angstroms)
    I     Atom           X                Y                Z
 ----------------------------------------------------------------
    1      C      -0.1666190000    -0.8243780000     1.0231760000
    2      S      -0.0082190000     0.0610220000     2.5338760000
    3      C       0.2642810000     1.6126220000     1.7507760000
    4      C      -0.0089190000     0.0700220000    -0.0415240000
    5      C       0.2307810000     1.4380220000     0.3448760000
    6      C      -0.0188190000     0.0044220000    -1.4629240000
    7      C       0.2006810000     1.2500220000    -2.0837240000
    8      S       0.4139810000     2.4791220000    -0.9425240000
    9      C       0.2494810000     1.4998220000    -3.5368240000
   10      O       0.0902810000     0.5800220000    -4.3271240000
   11      O       0.4754810000     2.7629220000    -3.9812240000
   12      F      -0.2084190000    -1.0934780000    -2.2231240000
   13      C       0.5477810000     3.1144220000    -5.3118240000
   14      H       0.7401810000     4.2025220000    -5.3471240000
   15      H      -0.3973190000     2.8857220000    -5.8524240000
   16      H       1.3652810000     2.5743220000    -5.8387240000
   17      C       0.0825810000    -2.2377780000     1.0231760000
   18      H       1.1476810000    -2.0590780000     1.0146760000
   19      H       0.2016810000    -2.9111780000     1.8590760000
   20      H       0.1657810000    -2.7555780000     0.0790760000
   21      H       0.4240810000     2.5186220000     2.3446760000
 ----------------------------------------------------------------

   11   -1389.2516512139      4.32e-07  Convergence criterion met
 Total energy in the final basis set =    -1389.2516512139
        RIMP2         total energy =     -1391.7550237112 a.u.

                    Orbital Energies (a.u.)
 --------------------------------------------------------------

 Alpha MOs
 -- Occupied --
-92.0054 -91.9880 -26.3345 -20.6091 -20.5448 -11.4057 -11.3769 -11.3209
-11.2918 -11.2870 -11.2867 -11.2751 -11.2667 -11.2372  -9.0044  -8.9923
 -6.6852  -6.6846  -6.6841  -6.6736  -6.6729  -6.6715  -1.6475  -1.4685
 -1.3632  -1.2269  -1.1483  -1.0680  -1.0270  -1.0058  -0.9675  -0.9104
 -0.8625  -0.7959  -0.7845  -0.7660  -0.7261  -0.7151  -0.6964  -0.6773
 -0.6761  -0.6671  -0.6103  -0.6026  -0.5991  -0.5862  -0.5848  -0.5594
 -0.5304  -0.5263  -0.5191  -0.4951  -0.4782  -0.4620  -0.4584  -0.4562
 -0.3900  -0.3471  -0.2717

          Ground-State Mulliken Net Atomic Charges

     Atom                 Charge (a.u.)
  ----------------------------------------
      1 C                     0.064268
      2 S                     0.084133
      3 C                    -0.277794
      4 C                    -0.115765
      5 C                    -0.009534
      6 C                     0.378715
      7 C                    -0.169838
      8 S                     0.026067
      9 C                     0.458768
     10 O                    -0.459184
     11 O                    -0.299221
     12 F                    -0.212301
     13 C                    -0.054810
     14 H                     0.115896
     15 H                     0.083563
     16 H                     0.083347
     17 C                    -0.377293
     18 H                     0.155942
     19 H                     0.168875
     20 H                     0.146876
     21 H                     0.209291
  ----------------------------------------
  Sum of atomic charges =     0.000000

                    Cartesian Multipole Moments
 -----------------------------------------------------------------
    Charge (ESU x 10^10)
                -0.0000
    Dipole Moment (Debye)
         X       1.4704      Y       0.2942      Z       3.7515
       Tot       4.0401
    Quadrupole Moments (Debye-Ang)
        XX     -96.1559     XY      -0.8005     YY     -82.7968
        XZ      -0.7972     YZ     -12.3725     ZZ     -96.9731

 Total job time:  164.39s(wall), 1994.55s(cpu)
        *  Thank you very much for using Q-Chem.  Have a nice day.  *
