 Q-Chem 5.4, Q-Chem, Inc., Pleasanton, CA (2021)
 Q-Chem 5.4.0 for Intel X86 EM64T Linux

User input:
--------------------------------------------------------------
$molecule
0 1
C	-0.442540	-0.717327	1.022261
S	0.009060	0.060473	2.532961
C	0.795860	1.425273	1.749861
C	0.011560	0.069273	-0.042439
C	0.704660	1.272673	0.343961
C	-0.020240	0.010873	-1.463839
C	0.612060	1.106373	-2.084639
S	1.232960	2.188373	-0.943439
C	0.743360	1.324373	-3.537739
O	0.279160	0.514473	-4.328039
O	1.387760	2.434073	-3.982139
F	-0.573840	-0.955927	-2.224039
C	1.575960	2.739673	-5.312739
H	2.128960	3.696273	-5.348039
H	0.609660	2.847873	-5.853339
H	2.159360	1.952473	-5.839639
C	-0.442540	-2.152527	1.022261
H	-1.504640	-2.161527	1.218161
H	-0.588040	-2.836427	0.199161
H	-0.270740	-2.676927	1.950661
H	1.255860	2.221973	2.343761
$end

$rem
JOBTYPE		SP
EXCHANGE	HF
CORRELATION	pRIMP2
BASIS		cc-pvtz
METHOD		rimp2
AUX_BASIS	rimp2-cc-pvtz
SOLVENT_METHOD	PCM
PURECART	11111
SYMMETRY	false
MEM_TOTAL	110000
SCF_CONVERGENCE = 6
THRESH=10
GUI = 2
$end

$solvent
dielectric 4.90
$end
--------------------------------------------------------------

             Standard Nuclear Orientation (Angstroms)
    I     Atom           X                Y                Z
 ----------------------------------------------------------------
    1      C      -0.4425400000    -0.7173270000     1.0222610000
    2      S       0.0090600000     0.0604730000     2.5329610000
    3      C       0.7958600000     1.4252730000     1.7498610000
    4      C       0.0115600000     0.0692730000    -0.0424390000
    5      C       0.7046600000     1.2726730000     0.3439610000
    6      C      -0.0202400000     0.0108730000    -1.4638390000
    7      C       0.6120600000     1.1063730000    -2.0846390000
    8      S       1.2329600000     2.1883730000    -0.9434390000
    9      C       0.7433600000     1.3243730000    -3.5377390000
   10      O       0.2791600000     0.5144730000    -4.3280390000
   11      O       1.3877600000     2.4340730000    -3.9821390000
   12      F      -0.5738400000    -0.9559270000    -2.2240390000
   13      C       1.5759600000     2.7396730000    -5.3127390000
   14      H       2.1289600000     3.6962730000    -5.3480390000
   15      H       0.6096600000     2.8478730000    -5.8533390000
   16      H       2.1593600000     1.9524730000    -5.8396390000
   17      C      -0.4425400000    -2.1525270000     1.0222610000
   18      H      -1.5046400000    -2.1615270000     1.2181610000
   19      H      -0.5880400000    -2.8364270000     0.1991610000
   20      H      -0.2707400000    -2.6769270000     1.9506610000
   21      H       1.2558600000     2.2219730000     2.3437610000
 ----------------------------------------------------------------

   11   -1389.2325504820      5.08e-07  Convergence criterion met
 Total energy in the final basis set =    -1389.2325504820
        RIMP2         total energy =     -1391.7421502372 a.u.

                    Orbital Energies (a.u.)
 --------------------------------------------------------------

 Alpha MOs
 -- Occupied --
-92.0060 -91.9893 -26.3337 -20.6098 -20.5463 -11.4069 -11.3754 -11.3088
-11.2915 -11.2896 -11.2874 -11.2820 -11.2688 -11.2286  -9.0050  -8.9935
 -6.6858  -6.6851  -6.6847  -6.6747  -6.6741  -6.6727  -1.6466  -1.4693
 -1.3643  -1.2269  -1.1473  -1.0660  -1.0278  -1.0050  -0.9679  -0.9103
 -0.8633  -0.7960  -0.7845  -0.7669  -0.7259  -0.7146  -0.6950  -0.6767
 -0.6764  -0.6677  -0.6085  -0.6035  -0.5923  -0.5871  -0.5848  -0.5584
 -0.5307  -0.5244  -0.5183  -0.4945  -0.4795  -0.4602  -0.4575  -0.4545
 -0.3867  -0.3460  -0.2726

          Ground-State Mulliken Net Atomic Charges

     Atom                 Charge (a.u.)
  ----------------------------------------
      1 C                     0.005652
      2 S                     0.088956
      3 C                    -0.256863
      4 C                    -0.077499
      5 C                    -0.011516
      6 C                     0.374406
      7 C                    -0.164882
      8 S                     0.029840
      9 C                     0.457067
     10 O                    -0.456348
     11 O                    -0.298771
     12 F                    -0.211743
     13 C                    -0.054869
     14 H                     0.116104
     15 H                     0.083721
     16 H                     0.083719
     17 C                    -0.378014
     18 H                     0.141413
     19 H                     0.168146
     20 H                     0.150471
     21 H                     0.211009
  ----------------------------------------
  Sum of atomic charges =     0.000000

                    Cartesian Multipole Moments
 -----------------------------------------------------------------
    Charge (ESU x 10^10)
                -0.0000
    Dipole Moment (Debye)
         X       0.6254      Y       0.4739      Z       3.7697
       Tot       3.8505
    Quadrupole Moments (Debye-Ang)
        XX     -93.7555     XY       6.1418     YY     -84.7761
        XZ      -5.9002     YZ     -10.8718     ZZ     -95.9211

 Total job time:  53.67s(wall), 1906.68s(cpu)
        *  Thank you very much for using Q-Chem.  Have a nice day.  *
