 Q-Chem 5.4, Q-Chem, Inc., Pleasanton, CA (2021)
 Q-Chem 5.4.0 for Intel X86 EM64T Linux

User input:
--------------------------------------------------------------
$molecule
0 1
C	-0.229210	-0.806326	1.024233
S	0.005690	0.061874	2.534933
C	0.412390	1.583774	1.751833
C	0.005790	0.070974	-0.040467
C	0.363790	1.412774	0.345933
C	-0.009710	0.006374	-1.461867
C	0.317490	1.228174	-2.082667
S	0.637090	2.434074	-0.941467
C	0.387890	1.472774	-3.535767
O	0.149090	0.570274	-4.326067
O	0.723090	2.711374	-3.980167
F	-0.294310	-1.070726	-2.222067
C	0.825790	3.055274	-5.310767
H	1.112290	4.122374	-5.346067
H	-0.135610	2.909774	-5.851367
H	1.593090	2.445874	-5.837667
C	-0.229210	-2.241526	1.024233
H	-1.061910	-2.250526	0.336533
H	0.307790	-2.925426	0.383733
H	-0.829910	-2.765926	1.752633
H	0.650590	2.472474	2.345733
$end

$rem
JOBTYPE		SP
EXCHANGE	HF
CORRELATION	pRIMP2
BASIS		cc-pvtz
METHOD		rimp2
AUX_BASIS	rimp2-cc-pvtz
SOLVENT_METHOD	PCM
PURECART	11111
SYMMETRY	false
MEM_TOTAL	110000
SCF_CONVERGENCE = 6
THRESH=10
GUI = 2
$end

$solvent
dielectric 4.90
$end
--------------------------------------------------------------

             Standard Nuclear Orientation (Angstroms)
    I     Atom           X                Y                Z
 ----------------------------------------------------------------
    1      C      -0.2292100000    -0.8063260000     1.0242330000
    2      S       0.0056900000     0.0618740000     2.5349330000
    3      C       0.4123900000     1.5837740000     1.7518330000
    4      C       0.0057900000     0.0709740000    -0.0404670000
    5      C       0.3637900000     1.4127740000     0.3459330000
    6      C      -0.0097100000     0.0063740000    -1.4618670000
    7      C       0.3174900000     1.2281740000    -2.0826670000
    8      S       0.6370900000     2.4340740000    -0.9414670000
    9      C       0.3878900000     1.4727740000    -3.5357670000
   10      O       0.1490900000     0.5702740000    -4.3260670000
   11      O       0.7230900000     2.7113740000    -3.9801670000
   12      F      -0.2943100000    -1.0707260000    -2.2220670000
   13      C       0.8257900000     3.0552740000    -5.3107670000
   14      H       1.1122900000     4.1223740000    -5.3460670000
   15      H      -0.1356100000     2.9097740000    -5.8513670000
   16      H       1.5930900000     2.4458740000    -5.8376670000
   17      C      -0.2292100000    -2.2415260000     1.0242330000
   18      H      -1.0619100000    -2.2505260000     0.3365330000
   19      H       0.3077900000    -2.9254260000     0.3837330000
   20      H      -0.8299100000    -2.7659260000     1.7526330000
   21      H       0.6505900000     2.4724740000     2.3457330000
 ----------------------------------------------------------------

   11   -1389.2507081753      4.76e-07  Convergence criterion met
 Total energy in the final basis set =    -1389.2507081753
        RIMP2         total energy =     -1391.7571582688 a.u.

                    Orbital Energies (a.u.)
 --------------------------------------------------------------

 Alpha MOs
 -- Occupied --
-92.0055 -91.9897 -26.3347 -20.6100 -20.5465 -11.4071 -11.3764 -11.3126
-11.2918 -11.2898 -11.2875 -11.2795 -11.2701 -11.2307  -9.0043  -8.9938
 -6.6851  -6.6844  -6.6840  -6.6751  -6.6744  -6.6731  -1.6477  -1.4695
 -1.3645  -1.2270  -1.1457  -1.0673  -1.0268  -1.0063  -0.9680  -0.9116
 -0.8631  -0.7956  -0.7851  -0.7663  -0.7260  -0.7155  -0.6970  -0.6783
 -0.6768  -0.6680  -0.6090  -0.6037  -0.5949  -0.5871  -0.5806  -0.5639
 -0.5425  -0.5237  -0.5079  -0.4885  -0.4794  -0.4609  -0.4588  -0.4555
 -0.3913  -0.3459  -0.2764

          Ground-State Mulliken Net Atomic Charges

     Atom                 Charge (a.u.)
  ----------------------------------------
      1 C                     0.043384
      2 S                     0.087092
      3 C                    -0.263893
      4 C                    -0.107200
      5 C                    -0.009639
      6 C                     0.381884
      7 C                    -0.163225
      8 S                     0.027965
      9 C                     0.458864
     10 O                    -0.456787
     11 O                    -0.298639
     12 F                    -0.213562
     13 C                    -0.054888
     14 H                     0.116178
     15 H                     0.083773
     16 H                     0.083693
     17 C                    -0.371147
     18 H                     0.134140
     19 H                     0.165305
     20 H                     0.147363
     21 H                     0.209338
  ----------------------------------------
  Sum of atomic charges =     0.000000

                    Cartesian Multipole Moments
 -----------------------------------------------------------------
    Charge (ESU x 10^10)
                -0.0000
    Dipole Moment (Debye)
         X       0.1039      Y       0.6396      Z       3.1696
       Tot       3.2351
    Quadrupole Moments (Debye-Ang)
        XX     -95.4196     XY       3.9338     YY     -82.6827
        XZ      -3.6201     YZ     -10.8272     ZZ     -97.4067

 Total job time:  53.28s(wall), 1952.00s(cpu)
        *  Thank you very much for using Q-Chem.  Have a nice day.  *
