 Q-Chem 5.4, Q-Chem, Inc., Pleasanton, CA (2021)
 Q-Chem 5.4.0 for Intel X86 EM64T Linux

User input:
--------------------------------------------------------------
$molecule
0 1
C	-0.076755	-0.833466	1.023483
S	0.003845	0.062334	2.534183
C	0.140045	1.631734	1.751083
C	0.002345	0.071334	-0.041217
C	0.121945	1.454934	0.345183
C	-0.001755	0.005034	-1.462617
C	0.108345	1.265034	-2.083417
S	0.213745	2.508134	-0.942217
C	0.135145	1.518134	-3.536517
O	0.056745	0.587934	-4.326817
O	0.250245	2.796134	-3.980917
F	-0.094955	-1.105166	-2.222817
C	0.291645	3.152634	-5.311517
H	0.388545	4.253334	-5.346817
H	-0.629855	2.842434	-5.852117
H	1.153145	2.685834	-5.838417
C	-0.076755	-2.268666	1.023483
H	-1.094455	-2.277666	0.662083
H	0.208745	-2.952566	0.237883
H	-0.392155	-2.793066	1.913383
H	0.220345	2.548234	2.344983
$end

$rem
JOBTYPE		SP
EXCHANGE	HF
CORRELATION	pRIMP2
BASIS		cc-pvtz
METHOD		rimp2
AUX_BASIS	rimp2-cc-pvtz
SOLVENT_METHOD	PCM
PURECART	11111
SYMMETRY	false
MEM_TOTAL	110000
SCF_CONVERGENCE = 6
THRESH=10
GUI = 2
$end

$solvent
dielectric 4.90
$end
--------------------------------------------------------------

             Standard Nuclear Orientation (Angstroms)
    I     Atom           X                Y                Z
 ----------------------------------------------------------------
    1      C      -0.0767550000    -0.8334660000     1.0234830000
    2      S       0.0038450000     0.0623340000     2.5341830000
    3      C       0.1400450000     1.6317340000     1.7510830000
    4      C       0.0023450000     0.0713340000    -0.0412170000
    5      C       0.1219450000     1.4549340000     0.3451830000
    6      C      -0.0017550000     0.0050340000    -1.4626170000
    7      C       0.1083450000     1.2650340000    -2.0834170000
    8      S       0.2137450000     2.5081340000    -0.9422170000
    9      C       0.1351450000     1.5181340000    -3.5365170000
   10      O       0.0567450000     0.5879340000    -4.3268170000
   11      O       0.2502450000     2.7961340000    -3.9809170000
   12      F      -0.0949550000    -1.1051660000    -2.2228170000
   13      C       0.2916450000     3.1526340000    -5.3115170000
   14      H       0.3885450000     4.2533340000    -5.3468170000
   15      H      -0.6298550000     2.8424340000    -5.8521170000
   16      H       1.1531450000     2.6858340000    -5.8384170000
   17      C      -0.0767550000    -2.2686660000     1.0234830000
   18      H      -1.0944550000    -2.2776660000     0.6620830000
   19      H       0.2087450000    -2.9525660000     0.2378830000
   20      H      -0.3921550000    -2.7930660000     1.9133830000
   21      H       0.2203450000     2.5482340000     2.3449830000
 ----------------------------------------------------------------

   11   -1389.2560702113      4.29e-07  Convergence criterion met
 Total energy in the final basis set =    -1389.2560702113
        RIMP2         total energy =     -1391.7588058705 a.u.

                    Orbital Energies (a.u.)
 --------------------------------------------------------------

 Alpha MOs
 -- Occupied --
-92.0072 -91.9879 -26.3346 -20.6090 -20.5447 -11.4056 -11.3766 -11.3201
-11.2915 -11.2870 -11.2864 -11.2740 -11.2663 -11.2354  -9.0058  -8.9921
 -6.6866  -6.6860  -6.6855  -6.6734  -6.6728  -6.6714  -1.6475  -1.4685
 -1.3632  -1.2259  -1.1463  -1.0675  -1.0267  -1.0067  -0.9673  -0.9117
 -0.8623  -0.7956  -0.7843  -0.7655  -0.7256  -0.7152  -0.6971  -0.6782
 -0.6761  -0.6669  -0.6099  -0.6026  -0.5921  -0.5869  -0.5852  -0.5605
 -0.5388  -0.5231  -0.5143  -0.4941  -0.4784  -0.4623  -0.4585  -0.4562
 -0.3899  -0.3466  -0.2727

          Ground-State Mulliken Net Atomic Charges

     Atom                 Charge (a.u.)
  ----------------------------------------
      1 C                     0.052620
      2 S                     0.087737
      3 C                    -0.281660
      4 C                    -0.108751
      5 C                    -0.004456
      6 C                     0.394487
      7 C                    -0.171926
      8 S                     0.022943
      9 C                     0.460579
     10 O                    -0.459854
     11 O                    -0.299126
     12 F                    -0.214430
     13 C                    -0.055094
     14 H                     0.115940
     15 H                     0.083485
     16 H                     0.083464
     17 C                    -0.379360
     18 H                     0.146304
     19 H                     0.170887
     20 H                     0.147060
     21 H                     0.209149
  ----------------------------------------
  Sum of atomic charges =     0.000000

                    Cartesian Multipole Moments
 -----------------------------------------------------------------
    Charge (ESU x 10^10)
                -0.0000
    Dipole Moment (Debye)
         X      -0.5335      Y       0.1712      Z       3.5593
       Tot       3.6031
    Quadrupole Moments (Debye-Ang)
        XX     -96.3488     XY       2.6830     YY     -81.8197
        XZ      -1.9115     YZ     -11.8520     ZZ     -97.4164

 Total job time:  53.38s(wall), 1944.47s(cpu)
        *  Thank you very much for using Q-Chem.  Have a nice day.  *
