 Q-Chem 5.4, Q-Chem, Inc., Pleasanton, CA (2021)
 Q-Chem 5.4.0 for Intel X86 EM64T Linux

User input:
--------------------------------------------------------------
$molecule
0 1
C	-0.306857	-0.782911	1.021608
S	0.002843	0.061489	2.532308
C	0.540643	1.542189	1.749208
C	0.003743	0.070589	-0.043092
C	0.477343	1.376089	0.343308
C	-0.017357	0.007589	-1.464492
C	0.415043	1.196189	-2.085292
S	0.838643	2.369589	-0.944092
C	0.506543	1.433689	-3.538392
O	0.190043	0.555489	-4.328692
O	0.948443	2.638389	-3.982792
F	-0.394757	-1.040711	-2.224692
C	1.080643	2.971989	-5.313392
H	1.459143	4.010189	-5.348692
H	0.110243	2.910889	-5.853992
H	1.791943	2.298089	-5.840292
C	-0.306857	-2.218111	1.021608
H	0.525843	-2.227111	1.709308
H	-0.843857	-2.902011	1.662108
H	0.293843	-2.742511	0.293208
H	0.855343	2.406689	2.343108
$end

$rem
JOBTYPE		SP
EXCHANGE	HF
CORRELATION	pRIMP2
BASIS		cc-pvtz
METHOD		rimp2
AUX_BASIS	rimp2-cc-pvtz
SOLVENT_METHOD	PCM
PURECART	11111
SYMMETRY	false
MEM_TOTAL	110000
SCF_CONVERGENCE = 6
THRESH=10
GUI = 2
$end

$solvent
dielectric 4.90
$end
--------------------------------------------------------------

             Standard Nuclear Orientation (Angstroms)
    I     Atom           X                Y                Z
 ----------------------------------------------------------------
    1      C      -0.3068570000    -0.7829110000     1.0216080000
    2      S       0.0028430000     0.0614890000     2.5323080000
    3      C       0.5406430000     1.5421890000     1.7492080000
    4      C       0.0037430000     0.0705890000    -0.0430920000
    5      C       0.4773430000     1.3760890000     0.3433080000
    6      C      -0.0173570000     0.0075890000    -1.4644920000
    7      C       0.4150430000     1.1961890000    -2.0852920000
    8      S       0.8386430000     2.3695890000    -0.9440920000
    9      C       0.5065430000     1.4336890000    -3.5383920000
   10      O       0.1900430000     0.5554890000    -4.3286920000
   11      O       0.9484430000     2.6383890000    -3.9827920000
   12      F      -0.3947570000    -1.0407110000    -2.2246920000
   13      C       1.0806430000     2.9719890000    -5.3133920000
   14      H       1.4591430000     4.0101890000    -5.3486920000
   15      H       0.1102430000     2.9108890000    -5.8539920000
   16      H       1.7919430000     2.2980890000    -5.8402920000
   17      C      -0.3068570000    -2.2181110000     1.0216080000
   18      H       0.5258430000    -2.2271110000     1.7093080000
   19      H      -0.8438570000    -2.9020110000     1.6621080000
   20      H       0.2938430000    -2.7425110000     0.2932080000
   21      H       0.8553430000     2.4066890000     2.3431080000
 ----------------------------------------------------------------

   11   -1389.2472287924      4.55e-07  Convergence criterion met
 Total energy in the final basis set =    -1389.2472287924
        RIMP2         total energy =     -1391.7522802615 a.u.

                    Orbital Energies (a.u.)
 --------------------------------------------------------------

 Alpha MOs
 -- Occupied --
-92.0040 -91.9886 -26.3336 -20.6100 -20.5465 -11.4071 -11.3762 -11.3135
-11.2910 -11.2900 -11.2874 -11.2808 -11.2697 -11.2315  -9.0033  -8.9929
 -6.6841  -6.6835  -6.6830  -6.6742  -6.6735  -6.6722  -1.6464  -1.4695
 -1.3644  -1.2272  -1.1481  -1.0663  -1.0287  -1.0050  -0.9681  -0.9094
 -0.8636  -0.7964  -0.7843  -0.7672  -0.7263  -0.7143  -0.6957  -0.6768
 -0.6765  -0.6676  -0.6098  -0.6036  -0.5993  -0.5867  -0.5768  -0.5624
 -0.5413  -0.5251  -0.5116  -0.4897  -0.4789  -0.4605  -0.4582  -0.4554
 -0.3934  -0.3462  -0.2754

          Ground-State Mulliken Net Atomic Charges

     Atom                 Charge (a.u.)
  ----------------------------------------
      1 C                     0.060247
      2 S                     0.077842
      3 C                    -0.259883
      4 C                    -0.117654
      5 C                    -0.011961
      6 C                     0.385493
      7 C                    -0.167204
      8 S                     0.026249
      9 C                     0.459050
     10 O                    -0.455778
     11 O                    -0.298597
     12 F                    -0.211591
     13 C                    -0.054788
     14 H                     0.116084
     15 H                     0.083945
     16 H                     0.083639
     17 C                    -0.376239
     18 H                     0.141652
     19 H                     0.160766
     20 H                     0.148283
     21 H                     0.210444
  ----------------------------------------
  Sum of atomic charges =     0.000000

                    Cartesian Multipole Moments
 -----------------------------------------------------------------
    Charge (ESU x 10^10)
                -0.0000
    Dipole Moment (Debye)
         X       1.4527      Y       0.5436      Z       3.9905
       Tot       4.2813
    Quadrupole Moments (Debye-Ang)
        XX     -95.6070     XY       1.9800     YY     -83.3255
        XZ      -3.4772     YZ     -12.8086     ZZ     -95.5803

 Total job time:  142.06s(wall), 1953.26s(cpu)
        *  Thank you very much for using Q-Chem.  Have a nice day.  *
