 Q-Chem 5.4, Q-Chem, Inc., Pleasanton, CA (2021)
 Q-Chem 5.4.0 for Intel X86 EM64T Linux

User input:
--------------------------------------------------------------
$molecule
0 1
C	-0.378546	-0.753180	1.023580
S	0.003554	0.061020	2.534280
C	0.668354	1.489220	1.751180
C	0.005254	0.069920	-0.041120
C	0.590854	1.329320	0.345280
C	-0.021346	0.009120	-1.462520
C	0.513154	1.155520	-2.083320
S	1.037354	2.287520	-0.942120
C	0.624954	1.384120	-3.536420
O	0.233054	0.536820	-4.326720
O	1.170154	2.545720	-3.980820
F	-0.488646	-1.002280	-2.222720
C	1.330954	2.866520	-5.311420
H	1.798454	3.867720	-5.346720
H	0.358854	2.890220	-5.852020
H	1.980854	2.133220	-5.838320
C	-0.378546	-2.188380	1.023580
H	0.683554	-2.197380	0.827680
H	-0.233046	-2.872280	1.846680
H	-0.550346	-2.712780	0.095180
H	1.057254	2.323020	2.345080
$end

$rem
JOBTYPE		SP
EXCHANGE	HF
CORRELATION	pRIMP2
BASIS		cc-pvtz
METHOD		rimp2
AUX_BASIS	rimp2-cc-pvtz
SOLVENT_METHOD	PCM
PURECART	11111
SYMMETRY	false
MEM_TOTAL	110000
SCF_CONVERGENCE = 6
THRESH=10
GUI = 2
$end

$solvent
dielectric 4.90
$end
--------------------------------------------------------------

             Standard Nuclear Orientation (Angstroms)
    I     Atom           X                Y                Z
 ----------------------------------------------------------------
    1      C      -0.3785460000    -0.7531800000     1.0235800000
    2      S       0.0035540000     0.0610200000     2.5342800000
    3      C       0.6683540000     1.4892200000     1.7511800000
    4      C       0.0052540000     0.0699200000    -0.0411200000
    5      C       0.5908540000     1.3293200000     0.3452800000
    6      C      -0.0213460000     0.0091200000    -1.4625200000
    7      C       0.5131540000     1.1555200000    -2.0833200000
    8      S       1.0373540000     2.2875200000    -0.9421200000
    9      C       0.6249540000     1.3841200000    -3.5364200000
   10      O       0.2330540000     0.5368200000    -4.3267200000
   11      O       1.1701540000     2.5457200000    -3.9808200000
   12      F      -0.4886460000    -1.0022800000    -2.2227200000
   13      C       1.3309540000     2.8665200000    -5.3114200000
   14      H       1.7984540000     3.8677200000    -5.3467200000
   15      H       0.3588540000     2.8902200000    -5.8520200000
   16      H       1.9808540000     2.1332200000    -5.8383200000
   17      C      -0.3785460000    -2.1883800000     1.0235800000
   18      H       0.6835540000    -2.1973800000     0.8276800000
   19      H      -0.2330460000    -2.8722800000     1.8466800000
   20      H      -0.5503460000    -2.7127800000     0.0951800000
   21      H       1.0572540000     2.3230200000     2.3450800000
 ----------------------------------------------------------------

   11   -1389.2466630083      4.54e-07  Convergence criterion met
 Total energy in the final basis set =    -1389.2466630083
        RIMP2         total energy =     -1391.7521817693 a.u.

                    Orbital Energies (a.u.)
 --------------------------------------------------------------

 Alpha MOs
 -- Occupied --
-92.0063 -91.9888 -26.3345 -20.6093 -20.5451 -11.4060 -11.3766 -11.3188
-11.2924 -11.2874 -11.2872 -11.2764 -11.2668 -11.2360  -9.0052  -8.9930
 -6.6860  -6.6854  -6.6849  -6.6744  -6.6737  -6.6723  -1.6475  -1.4687
 -1.3635  -1.2274  -1.1488  -1.0681  -1.0268  -1.0055  -0.9677  -0.9099
 -0.8627  -0.7958  -0.7847  -0.7662  -0.7261  -0.7152  -0.6965  -0.6773
 -0.6763  -0.6674  -0.6099  -0.6029  -0.5990  -0.5874  -0.5850  -0.5600
 -0.5314  -0.5239  -0.5165  -0.4955  -0.4786  -0.4622  -0.4586  -0.4566
 -0.3889  -0.3470  -0.2722

          Ground-State Mulliken Net Atomic Charges

     Atom                 Charge (a.u.)
  ----------------------------------------
      1 C                     0.053184
      2 S                     0.088838
      3 C                    -0.275405
      4 C                    -0.108277
      5 C                    -0.007486
      6 C                     0.374973
      7 C                    -0.170024
      8 S                     0.029153
      9 C                     0.458117
     10 O                    -0.458628
     11 O                    -0.299198
     12 F                    -0.212060
     13 C                    -0.054774
     14 H                     0.115941
     15 H                     0.083632
     16 H                     0.083377
     17 C                    -0.378759
     18 H                     0.154091
     19 H                     0.169262
     20 H                     0.144807
     21 H                     0.209237
  ----------------------------------------
  Sum of atomic charges =     0.000000

                    Cartesian Multipole Moments
 -----------------------------------------------------------------
    Charge (ESU x 10^10)
                -0.0000
    Dipole Moment (Debye)
         X       1.6930      Y       0.1185      Z       3.6159
       Tot       3.9944
    Quadrupole Moments (Debye-Ang)
        XX     -95.5505     XY       2.2478     YY     -83.6917
        XZ      -3.6857     YZ     -11.3001     ZZ     -97.0331

 Total job time:  53.42s(wall), 1910.11s(cpu)
        *  Thank you very much for using Q-Chem.  Have a nice day.  *
