 Q-Chem 5.4, Q-Chem, Inc., Pleasanton, CA (2021)
 Q-Chem 5.4.0 for Intel X86 EM64T Linux

User input:
--------------------------------------------------------------
$molecule
0 1
C	-0.307188	-0.782911	1.022358
S	0.002512	0.061489	2.533058
C	0.540312	1.542189	1.749958
C	0.003412	0.070589	-0.042342
C	0.477012	1.376089	0.344058
C	-0.017688	0.007589	-1.463742
C	0.414712	1.196189	-2.084542
S	0.838312	2.369589	-0.943342
C	0.506212	1.433689	-3.537642
O	0.189712	0.555489	-4.327942
O	0.948112	2.638389	-3.982042
F	-0.395088	-1.040711	-2.223942
C	1.080312	2.971989	-5.312642
H	1.458812	4.010189	-5.347942
H	0.109912	2.910889	-5.853242
H	1.791612	2.298089	-5.839542
C	-0.307188	-2.218111	1.022358
H	0.710512	-2.227111	1.383758
H	-0.592688	-2.902011	1.807958
H	0.008212	-2.742511	0.132458
H	0.855012	2.406689	2.343858
$end

$rem
JOBTYPE		SP
EXCHANGE	HF
CORRELATION	pRIMP2
BASIS		cc-pvtz
METHOD		rimp2
AUX_BASIS	rimp2-cc-pvtz
SOLVENT_METHOD	PCM
PURECART	11111
SYMMETRY	false
MEM_TOTAL	110000
SCF_CONVERGENCE = 6
THRESH=10
GUI = 2
$end

$solvent
dielectric 4.90
$end
--------------------------------------------------------------

             Standard Nuclear Orientation (Angstroms)
    I     Atom           X                Y                Z
 ----------------------------------------------------------------
    1      C      -0.3071880000    -0.7829110000     1.0223580000
    2      S       0.0025120000     0.0614890000     2.5330580000
    3      C       0.5403120000     1.5421890000     1.7499580000
    4      C       0.0034120000     0.0705890000    -0.0423420000
    5      C       0.4770120000     1.3760890000     0.3440580000
    6      C      -0.0176880000     0.0075890000    -1.4637420000
    7      C       0.4147120000     1.1961890000    -2.0845420000
    8      S       0.8383120000     2.3695890000    -0.9433420000
    9      C       0.5062120000     1.4336890000    -3.5376420000
   10      O       0.1897120000     0.5554890000    -4.3279420000
   11      O       0.9481120000     2.6383890000    -3.9820420000
   12      F      -0.3950880000    -1.0407110000    -2.2239420000
   13      C       1.0803120000     2.9719890000    -5.3126420000
   14      H       1.4588120000     4.0101890000    -5.3479420000
   15      H       0.1099120000     2.9108890000    -5.8532420000
   16      H       1.7916120000     2.2980890000    -5.8395420000
   17      C      -0.3071880000    -2.2181110000     1.0223580000
   18      H       0.7105120000    -2.2271110000     1.3837580000
   19      H      -0.5926880000    -2.9020110000     1.8079580000
   20      H       0.0082120000    -2.7425110000     0.1324580000
   21      H       0.8550120000     2.4066890000     2.3438580000
 ----------------------------------------------------------------

   11   -1389.2504340608      4.35e-07  Convergence criterion met
 Total energy in the final basis set =    -1389.2504340608
        RIMP2         total energy =     -1391.7539145822 a.u.

                    Orbital Energies (a.u.)
 --------------------------------------------------------------

 Alpha MOs
 -- Occupied --
-92.0039 -91.9879 -26.3341 -20.6094 -20.5454 -11.4062 -11.3767 -11.3186
-11.2913 -11.2878 -11.2872 -11.2773 -11.2681 -11.2354  -9.0031  -8.9922
 -6.6840  -6.6833  -6.6828  -6.6735  -6.6728  -6.6715  -1.6470  -1.4688
 -1.3636  -1.2270  -1.1483  -1.0673  -1.0278  -1.0055  -0.9676  -0.9100
 -0.8629  -0.7962  -0.7843  -0.7665  -0.7262  -0.7147  -0.6960  -0.6770
 -0.6763  -0.6672  -0.6102  -0.6030  -0.5998  -0.5860  -0.5811  -0.5597
 -0.5356  -0.5264  -0.5170  -0.4932  -0.4784  -0.4608  -0.4580  -0.4561
 -0.3916  -0.3468  -0.2726

          Ground-State Mulliken Net Atomic Charges

     Atom                 Charge (a.u.)
  ----------------------------------------
      1 C                     0.069282
      2 S                     0.077754
      3 C                    -0.270209
      4 C                    -0.124701
      5 C                    -0.010733
      6 C                     0.381026
      7 C                    -0.167324
      8 S                     0.025183
      9 C                     0.458923
     10 O                    -0.457878
     11 O                    -0.298987
     12 F                    -0.211747
     13 C                    -0.054794
     14 H                     0.115954
     15 H                     0.083749
     16 H                     0.083417
     17 C                    -0.374209
     18 H                     0.152051
     19 H                     0.165846
     20 H                     0.147640
     21 H                     0.209757
  ----------------------------------------
  Sum of atomic charges =     0.000000

                    Cartesian Multipole Moments
 -----------------------------------------------------------------
    Charge (ESU x 10^10)
                -0.0000
    Dipole Moment (Debye)
         X       1.4995      Y       0.1810      Z       3.9003
       Tot       4.1825
    Quadrupole Moments (Debye-Ang)
        XX     -95.9156     XY       1.6610     YY     -83.0335
        XZ      -3.1946     YZ     -12.5469     ZZ     -96.3529

 Total job time:  58.12s(wall), 1972.78s(cpu)
        *  Thank you very much for using Q-Chem.  Have a nice day.  *
