 Q-Chem 5.4, Q-Chem, Inc., Pleasanton, CA (2021)
 Q-Chem 5.4.0 for Intel X86 EM64T Linux

User input:
--------------------------------------------------------------
$molecule
0 1
C	-0.303852	-0.782911	1.025038
S	0.005848	0.061489	2.535738
C	0.543648	1.542189	1.752638
C	0.006748	0.070589	-0.039662
C	0.480348	1.376089	0.346738
C	-0.014352	0.007589	-1.461062
C	0.418048	1.196189	-2.081862
S	0.841648	2.369589	-0.940662
C	0.509548	1.433689	-3.534962
O	0.193048	0.555489	-4.325262
O	0.951448	2.638389	-3.979362
F	-0.391752	-1.040711	-2.221262
C	1.083648	2.971989	-5.309962
H	1.462148	4.010189	-5.345262
H	0.113248	2.910889	-5.850562
H	1.794948	2.298089	-5.836862
C	-0.303852	-2.218111	1.025038
H	-0.681152	-2.227111	0.013138
H	0.481448	-2.902011	0.738838
H	-1.188252	-2.742511	1.355438
H	0.858348	2.406689	2.346538
$end

$rem
JOBTYPE		SP
EXCHANGE	HF
CORRELATION	pRIMP2
BASIS		cc-pvtz
METHOD		rimp2
AUX_BASIS	rimp2-cc-pvtz
SOLVENT_METHOD	PCM
PURECART	11111
SYMMETRY	false
MEM_TOTAL	110000
SCF_CONVERGENCE = 6
THRESH=10
GUI = 2
$end

$solvent
dielectric 4.90
$end
--------------------------------------------------------------

             Standard Nuclear Orientation (Angstroms)
    I     Atom           X                Y                Z
 ----------------------------------------------------------------
    1      C      -0.3038520000    -0.7829110000     1.0250380000
    2      S       0.0058480000     0.0614890000     2.5357380000
    3      C       0.5436480000     1.5421890000     1.7526380000
    4      C       0.0067480000     0.0705890000    -0.0396620000
    5      C       0.4803480000     1.3760890000     0.3467380000
    6      C      -0.0143520000     0.0075890000    -1.4610620000
    7      C       0.4180480000     1.1961890000    -2.0818620000
    8      S       0.8416480000     2.3695890000    -0.9406620000
    9      C       0.5095480000     1.4336890000    -3.5349620000
   10      O       0.1930480000     0.5554890000    -4.3252620000
   11      O       0.9514480000     2.6383890000    -3.9793620000
   12      F      -0.3917520000    -1.0407110000    -2.2212620000
   13      C       1.0836480000     2.9719890000    -5.3099620000
   14      H       1.4621480000     4.0101890000    -5.3452620000
   15      H       0.1132480000     2.9108890000    -5.8505620000
   16      H       1.7949480000     2.2980890000    -5.8368620000
   17      C      -0.3038520000    -2.2181110000     1.0250380000
   18      H      -0.6811520000    -2.2271110000     0.0131380000
   19      H       0.4814480000    -2.9020110000     0.7388380000
   20      H      -1.1882520000    -2.7425110000     1.3554380000
   21      H       0.8583480000     2.4066890000     2.3465380000
 ----------------------------------------------------------------

   11   -1389.2469377454      5.28e-07  Convergence criterion met
 Total energy in the final basis set =    -1389.2469377454
        RIMP2         total energy =     -1391.7565281177 a.u.

                    Orbital Energies (a.u.)
 --------------------------------------------------------------

 Alpha MOs
 -- Occupied --
-92.0034 -91.9917 -26.3352 -20.6113 -20.5488 -11.4091 -11.3764 -11.3040
-11.2942 -11.2920 -11.2882 -11.2867 -11.2748 -11.2261  -9.0025  -8.9958
 -6.6832  -6.6825  -6.6822  -6.6771  -6.6765  -6.6751  -1.6485  -1.4710
 -1.3662  -1.2285  -1.1455  -1.0676  -1.0273  -1.0057  -0.9689  -0.9112
 -0.8641  -0.7959  -0.7866  -0.7676  -0.7269  -0.7164  -0.6971  -0.6782
 -0.6779  -0.6696  -0.6076  -0.6051  -0.5979  -0.5891  -0.5767  -0.5683
 -0.5438  -0.5250  -0.5058  -0.4817  -0.4754  -0.4616  -0.4604  -0.4503
 -0.3961  -0.3451  -0.2827

          Ground-State Mulliken Net Atomic Charges

     Atom                 Charge (a.u.)
  ----------------------------------------
      1 C                     0.021215
      2 S                     0.085962
      3 C                    -0.244279
      4 C                    -0.098412
      5 C                    -0.011744
      6 C                     0.373271
      7 C                    -0.151747
      8 S                     0.034044
      9 C                     0.457787
     10 O                    -0.452849
     11 O                    -0.298019
     12 F                    -0.213184
     13 C                    -0.054789
     14 H                     0.116445
     15 H                     0.084215
     16 H                     0.084023
     17 C                    -0.356392
     18 H                     0.115198
     19 H                     0.156236
     20 H                     0.142436
     21 H                     0.210587
  ----------------------------------------
  Sum of atomic charges =     0.000000

                    Cartesian Multipole Moments
 -----------------------------------------------------------------
    Charge (ESU x 10^10)
                -0.0000
    Dipole Moment (Debye)
         X       0.8179      Y       1.2096      Z       2.7519
       Tot       3.1153
    Quadrupole Moments (Debye-Ang)
        XX     -94.6943     XY       3.8781     YY     -83.4338
        XZ      -3.9075     YZ      -9.8575     ZZ     -97.3021

 Total job time:  54.35s(wall), 1955.06s(cpu)
        *  Thank you very much for using Q-Chem.  Have a nice day.  *
