 Q-Chem 5.4, Q-Chem, Inc., Pleasanton, CA (2021)
 Q-Chem 5.4.0 for Intel X86 EM64T Linux

User input:
--------------------------------------------------------------
$molecule
0 1
C	-0.004090	-0.836989	1.022358
S	-0.001890	0.062411	2.533058
C	-0.002890	1.637711	1.749958
C	-0.004090	0.071211	-0.042342
C	-0.005590	1.460011	0.344058
C	-0.002490	0.004811	-1.463742
C	-0.002590	1.269711	-2.084542
S	-0.005890	2.517211	-0.943342
C	0.002110	1.524111	-3.537642
O	0.005110	0.590611	-4.327942
O	0.005310	2.807311	-3.982042
F	0.001410	-1.109289	-2.223942
C	0.015510	3.166011	-5.312642
H	0.016110	4.271011	-5.347942
H	-0.875490	2.776711	-5.853242
H	0.914410	2.776111	-5.839542
C	-0.004090	-2.272189	1.022358
H	1.013610	-2.281189	1.383758
H	-0.289590	-2.956089	1.807958
H	0.311310	-2.796589	0.132458
H	-0.002890	2.557811	2.343858
$end

$rem
JOBTYPE		SP
EXCHANGE	HF
CORRELATION	pRIMP2
BASIS		cc-pvtz
METHOD		rimp2
AUX_BASIS	rimp2-cc-pvtz
SOLVENT_METHOD	PCM
PURECART	11111
SYMMETRY	false
MEM_TOTAL	110000
SCF_CONVERGENCE = 6
THRESH=10
GUI = 2
$end

$solvent
dielectric 4.90
$end
--------------------------------------------------------------

             Standard Nuclear Orientation (Angstroms)
    I     Atom           X                Y                Z
 ----------------------------------------------------------------
    1      C      -0.0040900000    -0.8369890000     1.0223580000
    2      S      -0.0018900000     0.0624110000     2.5330580000
    3      C      -0.0028900000     1.6377110000     1.7499580000
    4      C      -0.0040900000     0.0712110000    -0.0423420000
    5      C      -0.0055900000     1.4600110000     0.3440580000
    6      C      -0.0024900000     0.0048110000    -1.4637420000
    7      C      -0.0025900000     1.2697110000    -2.0845420000
    8      S      -0.0058900000     2.5172110000    -0.9433420000
    9      C       0.0021100000     1.5241110000    -3.5376420000
   10      O       0.0051100000     0.5906110000    -4.3279420000
   11      O       0.0053100000     2.8073110000    -3.9820420000
   12      F       0.0014100000    -1.1092890000    -2.2239420000
   13      C       0.0155100000     3.1660110000    -5.3126420000
   14      H       0.0161100000     4.2710110000    -5.3479420000
   15      H      -0.8754900000     2.7767110000    -5.8532420000
   16      H       0.9144100000     2.7761110000    -5.8395420000
   17      C      -0.0040900000    -2.2721890000     1.0223580000
   18      H       1.0136100000    -2.2811890000     1.3837580000
   19      H      -0.2895900000    -2.9560890000     1.8079580000
   20      H       0.3113100000    -2.7965890000     0.1324580000
   21      H      -0.0028900000     2.5578110000     2.3438580000
 ----------------------------------------------------------------

   11   -1389.2566610967      4.19e-07  Convergence criterion met
 Total energy in the final basis set =    -1389.2566610967
        RIMP2         total energy =     -1391.7583933944 a.u.

                    Orbital Energies (a.u.)
 --------------------------------------------------------------

 Alpha MOs
 -- Occupied --
-92.0054 -91.9873 -26.3340 -20.6090 -20.5448 -11.4056 -11.3766 -11.3205
-11.2910 -11.2870 -11.2866 -11.2749 -11.2671 -11.2357  -9.0043  -8.9916
 -6.6852  -6.6846  -6.6841  -6.6729  -6.6722  -6.6708  -1.6470  -1.4685
 -1.3632  -1.2259  -1.1467  -1.0671  -1.0275  -1.0064  -0.9673  -0.9113
 -0.8624  -0.7960  -0.7841  -0.7659  -0.7258  -0.7146  -0.6959  -0.6768
 -0.6760  -0.6668  -0.6103  -0.6026  -0.5967  -0.5867  -0.5851  -0.5591
 -0.5329  -0.5265  -0.5168  -0.4933  -0.4780  -0.4618  -0.4584  -0.4561
 -0.3913  -0.3468  -0.2725

          Ground-State Mulliken Net Atomic Charges

     Atom                 Charge (a.u.)
  ----------------------------------------
      1 C                     0.039730
      2 S                     0.074637
      3 C                    -0.273201
      4 C                    -0.089003
      5 C                    -0.015767
      6 C                     0.402443
      7 C                    -0.169740
      8 S                     0.020733
      9 C                     0.460511
     10 O                    -0.459422
     11 O                    -0.299080
     12 F                    -0.214356
     13 C                    -0.055043
     14 H                     0.115908
     15 H                     0.083596
     16 H                     0.083399
     17 C                    -0.381332
     18 H                     0.147534
     19 H                     0.168698
     20 H                     0.149626
     21 H                     0.210128
  ----------------------------------------
  Sum of atomic charges =     0.000000

                    Cartesian Multipole Moments
 -----------------------------------------------------------------
    Charge (ESU x 10^10)
                -0.0000
    Dipole Moment (Debye)
         X       0.7312      Y       0.1557      Z       3.9953
       Tot       4.0647
    Quadrupole Moments (Debye-Ang)
        XX     -96.5491     XY      -1.6744     YY     -81.6887
        XZ       0.5157     YZ     -13.2959     ZZ     -96.4819

 Total job time:  54.32s(wall), 1978.65s(cpu)
        *  Thank you very much for using Q-Chem.  Have a nice day.  *
