 Q-Chem 5.4, Q-Chem, Inc., Pleasanton, CA (2021)
 Q-Chem 5.4.0 for Intel X86 EM64T Linux

User input:
--------------------------------------------------------------
$molecule
0 1
C	-0.770347	-0.392188	1.021287
S	0.009653	0.055612	2.531987
C	1.373453	0.844212	1.748887
C	0.016153	0.061912	-0.043413
C	1.218153	0.757612	0.342987
C	-0.040447	0.027312	-1.464813
C	1.054853	0.659812	-2.085613
S	2.133553	1.286512	-0.944413
C	1.277553	0.783012	-3.538713
O	0.470653	0.313712	-4.329013
O	2.390453	1.421812	-3.983113
F	-1.003347	-0.533088	-2.225013
C	2.706153	1.592412	-5.313713
H	3.663353	2.144312	-5.349013
H	1.923453	2.169312	-5.854313
H	2.817853	0.618912	-5.840613
C	-0.770347	-1.827388	1.021287
H	-0.069747	-1.836388	1.843087
H	-1.410447	-2.511288	1.558887
H	-0.052247	-2.351788	0.408287
H	2.170253	1.304112	2.342787
$end

$rem
JOBTYPE		SP
EXCHANGE	HF
CORRELATION	pRIMP2
BASIS		cc-pvtz
METHOD		rimp2
AUX_BASIS	rimp2-cc-pvtz
SOLVENT_METHOD	PCM
PURECART	11111
SYMMETRY	false
MEM_TOTAL	110000
SCF_CONVERGENCE = 6
THRESH=10
GUI = 2
$end

$solvent
dielectric 4.90
$end
--------------------------------------------------------------

             Standard Nuclear Orientation (Angstroms)
    I     Atom           X                Y                Z
 ----------------------------------------------------------------
    1      C      -0.7703470000    -0.3921880000     1.0212870000
    2      S       0.0096530000     0.0556120000     2.5319870000
    3      C       1.3734530000     0.8442120000     1.7488870000
    4      C       0.0161530000     0.0619120000    -0.0434130000
    5      C       1.2181530000     0.7576120000     0.3429870000
    6      C      -0.0404470000     0.0273120000    -1.4648130000
    7      C       1.0548530000     0.6598120000    -2.0856130000
    8      S       2.1335530000     1.2865120000    -0.9444130000
    9      C       1.2775530000     0.7830120000    -3.5387130000
   10      O       0.4706530000     0.3137120000    -4.3290130000
   11      O       2.3904530000     1.4218120000    -3.9831130000
   12      F      -1.0033470000    -0.5330880000    -2.2250130000
   13      C       2.7061530000     1.5924120000    -5.3137130000
   14      H       3.6633530000     2.1443120000    -5.3490130000
   15      H       1.9234530000     2.1693120000    -5.8543130000
   16      H       2.8178530000     0.6189120000    -5.8406130000
   17      C      -0.7703470000    -1.8273880000     1.0212870000
   18      H      -0.0697470000    -1.8363880000     1.8430870000
   19      H      -1.4104470000    -2.5112880000     1.5588870000
   20      H      -0.0522470000    -2.3517880000     0.4082870000
   21      H       2.1702530000     1.3041120000     2.3427870000
 ----------------------------------------------------------------

   11   -1389.1661420699      8.40e-07  Convergence criterion met
 Total energy in the final basis set =    -1389.1661420699
        RIMP2         total energy =     -1391.6908477422 a.u.

                    Orbital Energies (a.u.)
 --------------------------------------------------------------

 Alpha MOs
 -- Occupied --
-91.9987 -91.9981 -26.3331 -20.6146 -20.5550 -11.4142 -11.3743 -11.3140
-11.3071 -11.2934 -11.2898 -11.2853 -11.2720 -11.2129  -9.0025  -8.9992
 -6.6837  -6.6831  -6.6818  -6.6797  -6.6787  -6.6786  -1.6461  -1.4747
 -1.3707  -1.2369  -1.1591  -1.0697  -1.0344  -1.0003  -0.9728  -0.8998
 -0.8701  -0.7999  -0.7876  -0.7749  -0.7306  -0.7152  -0.6979  -0.6806
 -0.6752  -0.6733  -0.6105  -0.6082  -0.6053  -0.5923  -0.5668  -0.5594
 -0.5381  -0.5286  -0.5163  -0.4908  -0.4829  -0.4643  -0.4634  -0.4297
 -0.3888  -0.3389  -0.2823

          Ground-State Mulliken Net Atomic Charges

     Atom                 Charge (a.u.)
  ----------------------------------------
      1 C                    -0.088994
      2 S                     0.087212
      3 C                    -0.169943
      4 C                    -0.037095
      5 C                    -0.036999
      6 C                     0.369775
      7 C                    -0.135886
      8 S                     0.050999
      9 C                     0.457513
     10 O                    -0.441309
     11 O                    -0.296484
     12 F                    -0.209620
     13 C                    -0.054707
     14 H                     0.117231
     15 H                     0.085474
     16 H                     0.085078
     17 C                    -0.389012
     18 H                     0.127514
     19 H                     0.134694
     20 H                     0.128279
     21 H                     0.216279
  ----------------------------------------
  Sum of atomic charges =     0.000000

                    Cartesian Multipole Moments
 -----------------------------------------------------------------
    Charge (ESU x 10^10)
                -0.0000
    Dipole Moment (Debye)
         X       4.7246      Y       1.0108      Z       3.1537
       Tot       5.7697
    Quadrupole Moments (Debye-Ang)
        XX     -89.8155     XY       4.3556     YY     -91.5466
        XZ      -8.2818     YZ      -7.3087     ZZ     -92.2089

 Total job time:  55.32s(wall), 1957.07s(cpu)
        *  Thank you very much for using Q-Chem.  Have a nice day.  *
