 Q-Chem 5.4, Q-Chem, Inc., Pleasanton, CA (2021)
 Q-Chem 5.4.0 for Intel X86 EM64T Linux

User input:
--------------------------------------------------------------
$molecule
0 1
C	-0.572167	-0.628442	1.025081
S	0.007733	0.059158	2.535781
C	1.019433	1.266558	1.752681
C	0.011633	0.067358	-0.039619
C	0.903133	1.132158	0.346781
C	-0.029767	0.015358	-1.461019
C	0.783133	0.984358	-2.081819
S	1.582433	1.942158	-0.940619
C	0.950233	1.176358	-3.534919
O	0.352533	0.459358	-4.325219
O	1.777533	2.157258	-3.979319
F	-0.742967	-0.840542	-2.221219
C	2.015933	2.425458	-5.309919
H	2.726633	3.271558	-5.345219
H	1.083133	2.699958	-5.850519
H	2.453833	1.548958	-5.836819
C	-0.572167	-2.063642	1.025081
H	-0.039567	-2.072642	0.085581
H	0.151933	-2.747542	1.442681
H	-1.393767	-2.588042	0.559981
H	1.610933	1.971358	2.346581
$end

$rem
JOBTYPE		SP
EXCHANGE	HF
CORRELATION	pRIMP2
BASIS		cc-pvtz
METHOD		rimp2
AUX_BASIS	rimp2-cc-pvtz
SOLVENT_METHOD	PCM
PURECART	11111
SYMMETRY	false
MEM_TOTAL	110000
SCF_CONVERGENCE = 6
THRESH=10
GUI = 2
$end

$solvent
dielectric 4.90
$end
--------------------------------------------------------------

             Standard Nuclear Orientation (Angstroms)
    I     Atom           X                Y                Z
 ----------------------------------------------------------------
    1      C      -0.5721670000    -0.6284420000     1.0250810000
    2      S       0.0077330000     0.0591580000     2.5357810000
    3      C       1.0194330000     1.2665580000     1.7526810000
    4      C       0.0116330000     0.0673580000    -0.0396190000
    5      C       0.9031330000     1.1321580000     0.3467810000
    6      C      -0.0297670000     0.0153580000    -1.4610190000
    7      C       0.7831330000     0.9843580000    -2.0818190000
    8      S       1.5824330000     1.9421580000    -0.9406190000
    9      C       0.9502330000     1.1763580000    -3.5349190000
   10      O       0.3525330000     0.4593580000    -4.3252190000
   11      O       1.7775330000     2.1572580000    -3.9793190000
   12      F      -0.7429670000    -0.8405420000    -2.2212190000
   13      C       2.0159330000     2.4254580000    -5.3099190000
   14      H       2.7266330000     3.2715580000    -5.3452190000
   15      H       1.0831330000     2.6999580000    -5.8505190000
   16      H       2.4538330000     1.5489580000    -5.8368190000
   17      C      -0.5721670000    -2.0636420000     1.0250810000
   18      H      -0.0395670000    -2.0726420000     0.0855810000
   19      H       0.1519330000    -2.7475420000     1.4426810000
   20      H      -1.3937670000    -2.5880420000     0.5599810000
   21      H       1.6109330000     1.9713580000     2.3465810000
 ----------------------------------------------------------------

   11   -1389.2175408639      6.32e-07  Convergence criterion met
 Total energy in the final basis set =    -1389.2175408639
        RIMP2         total energy =     -1391.7352175933 a.u.

                    Orbital Energies (a.u.)
 --------------------------------------------------------------

 Alpha MOs
 -- Occupied --
-92.0067 -91.9948 -26.3346 -20.6121 -20.5503 -11.4104 -11.3750 -11.2975
-11.2940 -11.2934 -11.2923 -11.2886 -11.2741 -11.2220  -9.0055  -8.9988
 -6.6862  -6.6855  -6.6852  -6.6800  -6.6794  -6.6780  -1.6478  -1.4719
 -1.3674  -1.2309  -1.1494  -1.0693  -1.0279  -1.0031  -0.9699  -0.9080
 -0.8650  -0.7958  -0.7868  -0.7690  -0.7274  -0.7163  -0.6969  -0.6787
 -0.6774  -0.6706  -0.6072  -0.6055  -0.5977  -0.5901  -0.5865  -0.5630
 -0.5348  -0.5264  -0.5071  -0.4843  -0.4684  -0.4635  -0.4608  -0.4573
 -0.3882  -0.3435  -0.2828

          Ground-State Mulliken Net Atomic Charges

     Atom                 Charge (a.u.)
  ----------------------------------------
      1 C                    -0.031061
      2 S                     0.101322
      3 C                    -0.230993
      4 C                    -0.059680
      5 C                    -0.012017
      6 C                     0.344216
      7 C                    -0.146547
      8 S                     0.045801
      9 C                     0.456984
     10 O                    -0.450144
     11 O                    -0.297905
     12 F                    -0.211979
     13 C                    -0.054606
     14 H                     0.116627
     15 H                     0.084511
     16 H                     0.084212
     17 C                    -0.369773
     18 H                     0.127796
     19 H                     0.162715
     20 H                     0.129276
     21 H                     0.211247
  ----------------------------------------
  Sum of atomic charges =     0.000000

                    Cartesian Multipole Moments
 -----------------------------------------------------------------
    Charge (ESU x 10^10)
                -0.0000
    Dipole Moment (Debye)
         X       2.6719      Y       1.1902      Z       2.7727
       Tot       4.0304
    Quadrupole Moments (Debye-Ang)
        XX     -92.6538     XY       4.3363     YY     -87.0405
        XZ      -5.7171     YZ      -8.1530     ZZ     -96.0892

 Total job time:  56.13s(wall), 1973.52s(cpu)
        *  Thank you very much for using Q-Chem.  Have a nice day.  *
