 Q-Chem 5.4, Q-Chem, Inc., Pleasanton, CA (2021)
 Q-Chem 5.4.0 for Intel X86 EM64T Linux

User input:
--------------------------------------------------------------
$molecule
0 1
C	-0.445466	-0.717327	1.020653
S	0.006134	0.060473	2.531353
C	0.792934	1.425273	1.748253
C	0.008634	0.069273	-0.044047
C	0.701734	1.272673	0.342353
C	-0.023166	0.010873	-1.465447
C	0.609134	1.106373	-2.086247
S	1.230034	2.188373	-0.945047
C	0.740434	1.324373	-3.539347
O	0.276234	0.514473	-4.329647
O	1.384834	2.434073	-3.983747
F	-0.576766	-0.955927	-2.225647
C	1.573034	2.739673	-5.314347
H	2.126034	3.696273	-5.349647
H	0.606734	2.847873	-5.854947
H	2.156434	1.952473	-5.841247
C	-0.445466	-2.152527	1.020653
H	-0.249566	-2.161527	2.082753
H	-1.268566	-2.836427	1.166153
H	0.482934	-2.676927	0.848853
H	1.252934	2.221973	2.342153
$end

$rem
JOBTYPE		SP
EXCHANGE	HF
CORRELATION	pRIMP2
BASIS		cc-pvtz
METHOD		rimp2
AUX_BASIS	rimp2-cc-pvtz
SOLVENT_METHOD	PCM
PURECART	11111
SYMMETRY	false
MEM_TOTAL	110000
SCF_CONVERGENCE = 6
THRESH=10
GUI = 2
$end

$solvent
dielectric 4.90
$end
--------------------------------------------------------------

             Standard Nuclear Orientation (Angstroms)
    I     Atom           X                Y                Z
 ----------------------------------------------------------------
    1      C      -0.4454660000    -0.7173270000     1.0206530000
    2      S       0.0061340000     0.0604730000     2.5313530000
    3      C       0.7929340000     1.4252730000     1.7482530000
    4      C       0.0086340000     0.0692730000    -0.0440470000
    5      C       0.7017340000     1.2726730000     0.3423530000
    6      C      -0.0231660000     0.0108730000    -1.4654470000
    7      C       0.6091340000     1.1063730000    -2.0862470000
    8      S       1.2300340000     2.1883730000    -0.9450470000
    9      C       0.7404340000     1.3243730000    -3.5393470000
   10      O       0.2762340000     0.5144730000    -4.3296470000
   11      O       1.3848340000     2.4340730000    -3.9837470000
   12      F      -0.5767660000    -0.9559270000    -2.2256470000
   13      C       1.5730340000     2.7396730000    -5.3143470000
   14      H       2.1260340000     3.6962730000    -5.3496470000
   15      H       0.6067340000     2.8478730000    -5.8549470000
   16      H       2.1564340000     1.9524730000    -5.8412470000
   17      C      -0.4454660000    -2.1525270000     1.0206530000
   18      H      -0.2495660000    -2.1615270000     2.0827530000
   19      H      -1.2685660000    -2.8364270000     1.1661530000
   20      H       0.4829340000    -2.6769270000     0.8488530000
   21      H       1.2529340000     2.2219730000     2.3421530000
 ----------------------------------------------------------------

   11   -1389.2334322008      5.51e-07  Convergence criterion met
 Total energy in the final basis set =    -1389.2334322008
        RIMP2         total energy =     -1391.7449570740 a.u.

                    Orbital Energies (a.u.)
 --------------------------------------------------------------

 Alpha MOs
 -- Occupied --
-92.0076 -91.9917 -26.3328 -20.6112 -20.5490 -11.4091 -11.3745 -11.2983
-11.2949 -11.2918 -11.2902 -11.2880 -11.2720 -11.2245  -9.0067  -8.9959
 -6.6874  -6.6867  -6.6863  -6.6771  -6.6765  -6.6751  -1.6458  -1.4709
 -1.3662  -1.2285  -1.1489  -1.0652  -1.0305  -1.0037  -0.9693  -0.9075
 -0.8656  -0.7971  -0.7846  -0.7692  -0.7269  -0.7140  -0.6954  -0.6778
 -0.6754  -0.6690  -0.6087  -0.6052  -0.5981  -0.5885  -0.5725  -0.5670
 -0.5425  -0.5255  -0.5061  -0.4831  -0.4743  -0.4610  -0.4601  -0.4542
 -0.3950  -0.3446  -0.2836

          Ground-State Mulliken Net Atomic Charges

     Atom                 Charge (a.u.)
  ----------------------------------------
      1 C                     0.020573
      2 S                     0.086394
      3 C                    -0.237616
      4 C                    -0.090899
      5 C                    -0.008638
      6 C                     0.367482
      7 C                    -0.157311
      8 S                     0.035834
      9 C                     0.456822
     10 O                    -0.451300
     11 O                    -0.298055
     12 F                    -0.210843
     13 C                    -0.054849
     14 H                     0.116433
     15 H                     0.084279
     16 H                     0.084184
     17 C                    -0.363225
     18 H                     0.116767
     19 H                     0.146745
     20 H                     0.144457
     21 H                     0.212764
  ----------------------------------------
  Sum of atomic charges =     0.000000

                    Cartesian Multipole Moments
 -----------------------------------------------------------------
    Charge (ESU x 10^10)
                -0.0000
    Dipole Moment (Debye)
         X       1.8204      Y       1.2836      Z       3.9816
       Tot       4.5623
    Quadrupole Moments (Debye-Ang)
        XX     -93.7671     XY       4.2301     YY     -85.2549
        XZ      -5.3587     YZ     -11.7154     ZZ     -94.2747

 Total job time:  55.33s(wall), 1979.29s(cpu)
        *  Thank you very much for using Q-Chem.  Have a nice day.  *
