 Q-Chem 5.4, Q-Chem, Inc., Pleasanton, CA (2021)
 Q-Chem 5.4.0 for Intel X86 EM64T Linux

User input:
--------------------------------------------------------------
$molecule
0 1
C	-0.680106	-0.518946	1.020565
S	0.010294	0.057454	2.531265
C	1.216394	1.070954	1.748165
C	0.015594	0.064854	-0.044135
C	1.078494	0.958754	0.342265
C	-0.034206	0.020954	-1.465535
C	0.934694	0.834054	-2.086335
S	1.888194	1.638454	-0.945135
C	1.132594	0.994054	-3.539435
O	0.419394	0.391754	-4.329735
O	2.117694	1.816354	-3.983835
F	-0.885106	-0.698246	-2.225735
C	2.398994	2.039154	-5.314435
H	3.245794	2.748954	-5.349735
H	1.527994	2.471454	-5.855035
H	2.677994	1.099854	-5.841335
C	-0.680106	-1.954146	1.020565
H	-0.859306	-1.963146	2.085565
H	-1.503306	-2.638046	0.875765
H	0.251094	-2.478546	1.176665
H	1.921194	1.662254	2.342065
$end

$rem
JOBTYPE		SP
EXCHANGE	HF
CORRELATION	pRIMP2
BASIS		cc-pvtz
METHOD		rimp2
AUX_BASIS	rimp2-cc-pvtz
SOLVENT_METHOD	PCM
PURECART	11111
SYMMETRY	false
MEM_TOTAL	110000
SCF_CONVERGENCE = 6
THRESH=10
GUI = 2
$end

$solvent
dielectric 4.90
$end
--------------------------------------------------------------

             Standard Nuclear Orientation (Angstroms)
    I     Atom           X                Y                Z
 ----------------------------------------------------------------
    1      C      -0.6801060000    -0.5189460000     1.0205650000
    2      S       0.0102940000     0.0574540000     2.5312650000
    3      C       1.2163940000     1.0709540000     1.7481650000
    4      C       0.0155940000     0.0648540000    -0.0441350000
    5      C       1.0784940000     0.9587540000     0.3422650000
    6      C      -0.0342060000     0.0209540000    -1.4655350000
    7      C       0.9346940000     0.8340540000    -2.0863350000
    8      S       1.8881940000     1.6384540000    -0.9451350000
    9      C       1.1325940000     0.9940540000    -3.5394350000
   10      O       0.4193940000     0.3917540000    -4.3297350000
   11      O       2.1176940000     1.8163540000    -3.9838350000
   12      F      -0.8851060000    -0.6982460000    -2.2257350000
   13      C       2.3989940000     2.0391540000    -5.3144350000
   14      H       3.2457940000     2.7489540000    -5.3497350000
   15      H       1.5279940000     2.4714540000    -5.8550350000
   16      H       2.6779940000     1.0998540000    -5.8413350000
   17      C      -0.6801060000    -1.9541460000     1.0205650000
   18      H      -0.8593060000    -1.9631460000     2.0855650000
   19      H      -1.5033060000    -2.6380460000     0.8757650000
   20      H       0.2510940000    -2.4785460000     1.1766650000
   21      H       1.9211940000     1.6622540000     2.3420650000
 ----------------------------------------------------------------

   11   -1389.2022254542      7.48e-07  Convergence criterion met
 Total energy in the final basis set =    -1389.2022254542
        RIMP2         total energy =     -1391.7222791179 a.u.

                    Orbital Energies (a.u.)
 --------------------------------------------------------------

 Alpha MOs
 -- Occupied --
-92.0072 -91.9966 -26.3322 -20.6130 -20.5523 -11.4119 -11.3729 -11.3059
-11.3016 -11.2927 -11.2890 -11.2777 -11.2765 -11.2187  -9.0065  -9.0004
 -6.6871  -6.6863  -6.6861  -6.6816  -6.6810  -6.6797  -1.6452  -1.4730
 -1.3686  -1.2319  -1.1526  -1.0665  -1.0322  -1.0017  -0.9709  -0.9040
 -0.8679  -0.7981  -0.7858  -0.7721  -0.7284  -0.7140  -0.6961  -0.6792
 -0.6737  -0.6714  -0.6097  -0.6071  -0.5994  -0.5893  -0.5771  -0.5623
 -0.5342  -0.5274  -0.5077  -0.4847  -0.4649  -0.4629  -0.4617  -0.4528
 -0.3900  -0.3423  -0.2890

          Ground-State Mulliken Net Atomic Charges

     Atom                 Charge (a.u.)
  ----------------------------------------
      1 C                    -0.071822
      2 S                     0.100819
      3 C                    -0.196511
      4 C                    -0.040438
      5 C                    -0.018734
      6 C                     0.351693
      7 C                    -0.141674
      8 S                     0.049101
      9 C                     0.455887
     10 O                    -0.445658
     11 O                    -0.297273
     12 F                    -0.210412
     13 C                    -0.054613
     14 H                     0.116814
     15 H                     0.084817
     16 H                     0.084681
     17 C                    -0.356632
     18 H                     0.105909
     19 H                     0.139642
     20 H                     0.128847
     21 H                     0.215556
  ----------------------------------------
  Sum of atomic charges =     0.000000

                    Cartesian Multipole Moments
 -----------------------------------------------------------------
    Charge (ESU x 10^10)
                -0.0000
    Dipole Moment (Debye)
         X       3.3360      Y       1.4342      Z       3.6396
       Tot       5.1413
    Quadrupole Moments (Debye-Ang)
        XX     -90.4388     XY       5.8279     YY     -89.2101
        XZ      -7.6807     YZ      -8.5581     ZZ     -92.9581

 Total job time:  56.99s(wall), 1984.89s(cpu)
        *  Thank you very much for using Q-Chem.  Have a nice day.  *
