 Q-Chem 5.4, Q-Chem, Inc., Pleasanton, CA (2021)
 Q-Chem 5.4.0 for Intel X86 EM64T Linux

User input:
--------------------------------------------------------------
$molecule
0 1
C	-0.446712	-0.717327	1.024315
S	0.004888	0.060473	2.535015
C	0.791688	1.425273	1.751915
C	0.007388	0.069273	-0.040385
C	0.700488	1.272673	0.346015
C	-0.024412	0.010873	-1.461785
C	0.607888	1.106373	-2.082585
S	1.228788	2.188373	-0.941385
C	0.739188	1.324373	-3.535685
O	0.274988	0.514473	-4.325985
O	1.383588	2.434073	-3.980085
F	-0.578012	-0.955927	-2.221985
C	1.571788	2.739673	-5.310685
H	2.124788	3.696273	-5.345985
H	0.605488	2.847873	-5.851285
H	2.155188	1.952473	-5.837585
C	-0.446712	-2.152527	1.024315
H	0.484288	-2.161527	0.477015
H	-0.028512	-2.836427	1.748015
H	-0.925712	-2.676927	0.210715
H	1.251688	2.221973	2.345815
$end

$rem
JOBTYPE		SP
EXCHANGE	HF
CORRELATION	pRIMP2
BASIS		cc-pvtz
METHOD		rimp2
AUX_BASIS	rimp2-cc-pvtz
SOLVENT_METHOD	PCM
PURECART	11111
SYMMETRY	false
MEM_TOTAL	110000
SCF_CONVERGENCE = 6
THRESH=10
GUI = 2
$end

$solvent
dielectric 4.90
$end
--------------------------------------------------------------

             Standard Nuclear Orientation (Angstroms)
    I     Atom           X                Y                Z
 ----------------------------------------------------------------
    1      C      -0.4467120000    -0.7173270000     1.0243150000
    2      S       0.0048880000     0.0604730000     2.5350150000
    3      C       0.7916880000     1.4252730000     1.7519150000
    4      C       0.0073880000     0.0692730000    -0.0403850000
    5      C       0.7004880000     1.2726730000     0.3460150000
    6      C      -0.0244120000     0.0108730000    -1.4617850000
    7      C       0.6078880000     1.1063730000    -2.0825850000
    8      S       1.2287880000     2.1883730000    -0.9413850000
    9      C       0.7391880000     1.3243730000    -3.5356850000
   10      O       0.2749880000     0.5144730000    -4.3259850000
   11      O       1.3835880000     2.4340730000    -3.9800850000
   12      F      -0.5780120000    -0.9559270000    -2.2219850000
   13      C       1.5717880000     2.7396730000    -5.3106850000
   14      H       2.1247880000     3.6962730000    -5.3459850000
   15      H       0.6054880000     2.8478730000    -5.8512850000
   16      H       2.1551880000     1.9524730000    -5.8375850000
   17      C      -0.4467120000    -2.1525270000     1.0243150000
   18      H       0.4842880000    -2.1615270000     0.4770150000
   19      H      -0.0285120000    -2.8364270000     1.7480150000
   20      H      -0.9257120000    -2.6769270000     0.2107150000
   21      H       1.2516880000     2.2219730000     2.3458150000
 ----------------------------------------------------------------

   11   -1389.2375417996      5.02e-07  Convergence criterion met
 Total energy in the final basis set =    -1389.2375417996
        RIMP2         total energy =     -1391.7473353241 a.u.

                    Orbital Energies (a.u.)
 --------------------------------------------------------------

 Alpha MOs
 -- Occupied --
-92.0078 -91.9907 -26.3345 -20.6100 -20.5464 -11.4071 -11.3760 -11.3126
-11.2928 -11.2899 -11.2875 -11.2800 -11.2680 -11.2316  -9.0065  -8.9948
 -6.6872  -6.6866  -6.6862  -6.6761  -6.6754  -6.6741  -1.6475  -1.4695
 -1.3645  -1.2283  -1.1489  -1.0684  -1.0267  -1.0049  -0.9683  -0.9093
 -0.8633  -0.7955  -0.7852  -0.7668  -0.7262  -0.7154  -0.6966  -0.6775
 -0.6769  -0.6682  -0.6092  -0.6036  -0.5968  -0.5906  -0.5857  -0.5614
 -0.5336  -0.5242  -0.5077  -0.4919  -0.4786  -0.4635  -0.4593  -0.4576
 -0.3877  -0.3462  -0.2747

          Ground-State Mulliken Net Atomic Charges

     Atom                 Charge (a.u.)
  ----------------------------------------
      1 C                     0.023544
      2 S                     0.096120
      3 C                    -0.266728
      4 C                    -0.087383
      5 C                    -0.006286
      6 C                     0.365943
      7 C                    -0.166306
      8 S                     0.034691
      9 C                     0.457979
     10 O                    -0.456648
     11 O                    -0.298933
     12 F                    -0.211700
     13 C                    -0.054853
     14 H                     0.116141
     15 H                     0.083844
     16 H                     0.083644
     17 C                    -0.381447
     18 H                     0.146175
     19 H                     0.170140
     20 H                     0.142526
     21 H                     0.209539
  ----------------------------------------
  Sum of atomic charges =     0.000000

                    Cartesian Multipole Moments
 -----------------------------------------------------------------
    Charge (ESU x 10^10)
                -0.0000
    Dipole Moment (Debye)
         X       1.9209      Y       0.4418      Z       3.3265
       Tot       3.8666
    Quadrupole Moments (Debye-Ang)
        XX     -94.7425     XY       3.0038     YY     -84.7582
        XZ      -4.3551     YZ     -10.1617     ZZ     -96.9343

 Total job time:  54.29s(wall), 1921.31s(cpu)
        *  Thank you very much for using Q-Chem.  Have a nice day.  *
