 Q-Chem 5.4, Q-Chem, Inc., Pleasanton, CA (2021)
 Q-Chem 5.4.0 for Intel X86 EM64T Linux

User input:
--------------------------------------------------------------
$molecule
0 1
C	-0.679699	-0.518946	1.020627
S	0.010701	0.057454	2.531327
C	1.216801	1.070954	1.748227
C	0.016001	0.064854	-0.044073
C	1.078901	0.958754	0.342327
C	-0.033799	0.020954	-1.465473
C	0.935101	0.834054	-2.086273
S	1.888601	1.638454	-0.945073
C	1.133001	0.994054	-3.539373
O	0.419801	0.391754	-4.329673
O	2.118101	1.816354	-3.983773
F	-0.884699	-0.698246	-2.225673
C	2.399401	2.039154	-5.314373
H	3.246201	2.748954	-5.349673
H	1.528401	2.471454	-5.854973
H	2.678401	1.099854	-5.841273
C	-0.679699	-1.954146	1.020627
H	-1.041099	-1.963146	2.038327
H	-1.465299	-2.638046	0.735127
H	0.210201	-2.478546	1.336027
H	1.921601	1.662254	2.342127
$end

$rem
JOBTYPE		SP
EXCHANGE	HF
CORRELATION	pRIMP2
BASIS		cc-pvtz
METHOD		rimp2
AUX_BASIS	rimp2-cc-pvtz
SOLVENT_METHOD	PCM
PURECART	11111
SYMMETRY	false
MEM_TOTAL	110000
SCF_CONVERGENCE = 6
THRESH=10
GUI = 2
$end

$solvent
dielectric 4.90
$end
--------------------------------------------------------------

             Standard Nuclear Orientation (Angstroms)
    I     Atom           X                Y                Z
 ----------------------------------------------------------------
    1      C      -0.6796990000    -0.5189460000     1.0206270000
    2      S       0.0107010000     0.0574540000     2.5313270000
    3      C       1.2168010000     1.0709540000     1.7482270000
    4      C       0.0160010000     0.0648540000    -0.0440730000
    5      C       1.0789010000     0.9587540000     0.3423270000
    6      C      -0.0337990000     0.0209540000    -1.4654730000
    7      C       0.9351010000     0.8340540000    -2.0862730000
    8      S       1.8886010000     1.6384540000    -0.9450730000
    9      C       1.1330010000     0.9940540000    -3.5393730000
   10      O       0.4198010000     0.3917540000    -4.3296730000
   11      O       2.1181010000     1.8163540000    -3.9837730000
   12      F      -0.8846990000    -0.6982460000    -2.2256730000
   13      C       2.3994010000     2.0391540000    -5.3143730000
   14      H       3.2462010000     2.7489540000    -5.3496730000
   15      H       1.5284010000     2.4714540000    -5.8549730000
   16      H       2.6784010000     1.0998540000    -5.8412730000
   17      C      -0.6796990000    -1.9541460000     1.0206270000
   18      H      -1.0410990000    -1.9631460000     2.0383270000
   19      H      -1.4652990000    -2.6380460000     0.7351270000
   20      H       0.2102010000    -2.4785460000     1.3360270000
   21      H       1.9216010000     1.6622540000     2.3421270000
 ----------------------------------------------------------------

   11   -1389.2034765507      7.52e-07  Convergence criterion met
 Total energy in the final basis set =    -1389.2034765507
        RIMP2         total energy =     -1391.7233492987 a.u.

                    Orbital Energies (a.u.)
 --------------------------------------------------------------

 Alpha MOs
 -- Occupied --
-92.0076 -91.9965 -26.3322 -20.6130 -20.5522 -11.4118 -11.3730 -11.3059
-11.3014 -11.2930 -11.2889 -11.2775 -11.2763 -11.2190  -9.0068  -9.0004
 -6.6874  -6.6866  -6.6864  -6.6816  -6.6810  -6.6797  -1.6452  -1.4729
 -1.3686  -1.2318  -1.1521  -1.0664  -1.0319  -1.0018  -0.9708  -0.9046
 -0.8677  -0.7979  -0.7858  -0.7719  -0.7283  -0.7140  -0.6960  -0.6792
 -0.6734  -0.6714  -0.6099  -0.6072  -0.5988  -0.5889  -0.5788  -0.5620
 -0.5330  -0.5275  -0.5076  -0.4843  -0.4639  -0.4627  -0.4598  -0.4579
 -0.3884  -0.3435  -0.2883

          Ground-State Mulliken Net Atomic Charges

     Atom                 Charge (a.u.)
  ----------------------------------------
      1 C                    -0.078919
      2 S                     0.101537
      3 C                    -0.196096
      4 C                    -0.032723
      5 C                    -0.019875
      6 C                     0.351041
      7 C                    -0.141838
      8 S                     0.048942
      9 C                     0.456136
     10 O                    -0.445846
     11 O                    -0.297301
     12 F                    -0.210492
     13 C                    -0.054611
     14 H                     0.116805
     15 H                     0.084791
     16 H                     0.084667
     17 C                    -0.359053
     18 H                     0.104500
     19 H                     0.143091
     20 H                     0.129628
     21 H                     0.215616
  ----------------------------------------
  Sum of atomic charges =     0.000000

                    Cartesian Multipole Moments
 -----------------------------------------------------------------
    Charge (ESU x 10^10)
                -0.0000
    Dipole Moment (Debye)
         X       3.2318      Y       1.4264      Z       3.6065
       Tot       5.0484
    Quadrupole Moments (Debye-Ang)
        XX     -90.3376     XY       6.0871     YY     -89.1568
        XZ      -7.6332     YZ      -8.4224     ZZ     -93.0839

 Total job time:  57.27s(wall), 2040.73s(cpu)
        *  Thank you very much for using Q-Chem.  Have a nice day.  *
