 Q-Chem 5.4, Q-Chem, Inc., Pleasanton, CA (2021)
 Q-Chem 5.4.0 for Intel X86 EM64T Linux

User input:
--------------------------------------------------------------
$molecule
0 1
C	-0.678357	-0.518946	1.021526
S	0.012043	0.057454	2.532226
C	1.218143	1.070954	1.749126
C	0.017343	0.064854	-0.043174
C	1.080243	0.958754	0.343226
C	-0.032457	0.020954	-1.464574
C	0.936443	0.834054	-2.085374
S	1.889943	1.638454	-0.944174
C	1.134343	0.994054	-3.538474
O	0.421143	0.391754	-4.328774
O	2.119443	1.816354	-3.982874
F	-0.883357	-0.698246	-2.224774
C	2.400743	2.039154	-5.313474
H	3.247543	2.748954	-5.348774
H	1.529743	2.471454	-5.854074
H	2.679743	1.099854	-5.840374
C	-0.678357	-1.954146	1.021526
H	-1.609357	-1.963146	1.568826
H	-1.096557	-2.638046	0.297826
H	-0.199357	-2.478546	1.835126
H	1.922943	1.662254	2.343026
$end

$rem
JOBTYPE		SP
EXCHANGE	HF
CORRELATION	pRIMP2
BASIS		cc-pvtz
METHOD		rimp2
AUX_BASIS	rimp2-cc-pvtz
SOLVENT_METHOD	PCM
PURECART	11111
SYMMETRY	false
MEM_TOTAL	110000
SCF_CONVERGENCE = 6
THRESH=10
GUI = 2
$end

$solvent
dielectric 4.90
$end
--------------------------------------------------------------

             Standard Nuclear Orientation (Angstroms)
    I     Atom           X                Y                Z
 ----------------------------------------------------------------
    1      C      -0.6783570000    -0.5189460000     1.0215260000
    2      S       0.0120430000     0.0574540000     2.5322260000
    3      C       1.2181430000     1.0709540000     1.7491260000
    4      C       0.0173430000     0.0648540000    -0.0431740000
    5      C       1.0802430000     0.9587540000     0.3432260000
    6      C      -0.0324570000     0.0209540000    -1.4645740000
    7      C       0.9364430000     0.8340540000    -2.0853740000
    8      S       1.8899430000     1.6384540000    -0.9441740000
    9      C       1.1343430000     0.9940540000    -3.5384740000
   10      O       0.4211430000     0.3917540000    -4.3287740000
   11      O       2.1194430000     1.8163540000    -3.9828740000
   12      F      -0.8833570000    -0.6982460000    -2.2247740000
   13      C       2.4007430000     2.0391540000    -5.3134740000
   14      H       3.2475430000     2.7489540000    -5.3487740000
   15      H       1.5297430000     2.4714540000    -5.8540740000
   16      H       2.6797430000     1.0998540000    -5.8403740000
   17      C      -0.6783570000    -1.9541460000     1.0215260000
   18      H      -1.6093570000    -1.9631460000     1.5688260000
   19      H      -1.0965570000    -2.6380460000     0.2978260000
   20      H      -0.1993570000    -2.4785460000     1.8351260000
   21      H       1.9229430000     1.6622540000     2.3430260000
 ----------------------------------------------------------------

   11   -1389.1971048061      7.45e-07  Convergence criterion met
 Total energy in the final basis set =    -1389.1971048061
        RIMP2         total energy =     -1391.7176325077 a.u.

                    Orbital Energies (a.u.)
 --------------------------------------------------------------

 Alpha MOs
 -- Occupied --
-92.0058 -91.9950 -26.3326 -20.6123 -20.5510 -11.4108 -11.3734 -11.3017
-11.2991 -11.2926 -11.2886 -11.2816 -11.2755 -11.2177  -9.0051  -8.9989
 -6.6858  -6.6850  -6.6848  -6.6801  -6.6795  -6.6782  -1.6457  -1.4722
 -1.3677  -1.2308  -1.1506  -1.0660  -1.0303  -1.0021  -0.9700  -0.9065
 -0.8664  -0.7970  -0.7858  -0.7706  -0.7277  -0.7142  -0.6952  -0.6787
 -0.6735  -0.6706  -0.6089  -0.6066  -0.5950  -0.5893  -0.5800  -0.5603
 -0.5299  -0.5250  -0.5104  -0.4876  -0.4817  -0.4618  -0.4609  -0.4483
 -0.3810  -0.3449  -0.2788

          Ground-State Mulliken Net Atomic Charges

     Atom                 Charge (a.u.)
  ----------------------------------------
      1 C                    -0.103022
      2 S                     0.096067
      3 C                    -0.200221
      4 C                    -0.007698
      5 C                    -0.023402
      6 C                     0.361116
      7 C                    -0.148228
      8 S                     0.043969
      9 C                     0.457198
     10 O                    -0.448119
     11 O                    -0.297567
     12 F                    -0.211351
     13 C                    -0.054625
     14 H                     0.116674
     15 H                     0.084569
     16 H                     0.084449
     17 C                    -0.387453
     18 H                     0.128283
     19 H                     0.155175
     20 H                     0.139764
     21 H                     0.214421
  ----------------------------------------
  Sum of atomic charges =     0.000000

                    Cartesian Multipole Moments
 -----------------------------------------------------------------
    Charge (ESU x 10^10)
                -0.0000
    Dipole Moment (Debye)
         X       2.6439      Y       1.1018      Z       3.4820
       Tot       4.5087
    Quadrupole Moments (Debye-Ang)
        XX     -90.3646     XY       6.6578     YY     -89.0898
        XZ      -7.7683     YZ      -8.0626     ZZ     -93.7376

 Total job time:  57.06s(wall), 2017.48s(cpu)
        *  Thank you very much for using Q-Chem.  Have a nice day.  *
