 Q-Chem 5.4, Q-Chem, Inc., Pleasanton, CA (2021)
 Q-Chem 5.4.0 for Intel X86 EM64T Linux

User input:
--------------------------------------------------------------
$molecule
0 1
C	-0.447163	-0.717327	1.022765
S	0.004437	0.060473	2.533465
C	0.791237	1.425273	1.750365
C	0.006937	0.069273	-0.041935
C	0.700037	1.272673	0.344465
C	-0.024863	0.010873	-1.463335
C	0.607437	1.106373	-2.084135
S	1.228337	2.188373	-0.942935
C	0.738737	1.324373	-3.537235
O	0.274537	0.514473	-4.327535
O	1.383137	2.434073	-3.981635
F	-0.578463	-0.955927	-2.223535
C	1.571337	2.739673	-5.312235
H	2.124337	3.696273	-5.347535
H	0.605037	2.847873	-5.852835
H	2.154737	1.952473	-5.839135
C	-0.447163	-2.152527	1.022765
H	0.617837	-2.161527	1.201965
H	-0.591963	-2.836427	1.845965
H	-0.291063	-2.676927	0.091565
H	1.251237	2.221973	2.344265
$end

$rem
JOBTYPE		SP
EXCHANGE	HF
CORRELATION	pRIMP2
BASIS		cc-pvtz
METHOD		rimp2
AUX_BASIS	rimp2-cc-pvtz
SOLVENT_METHOD	PCM
PURECART	11111
SYMMETRY	false
MEM_TOTAL	110000
SCF_CONVERGENCE = 6
THRESH=10
GUI = 2
$end

$solvent
dielectric 4.90
$end
--------------------------------------------------------------

             Standard Nuclear Orientation (Angstroms)
    I     Atom           X                Y                Z
 ----------------------------------------------------------------
    1      C      -0.4471630000    -0.7173270000     1.0227650000
    2      S       0.0044370000     0.0604730000     2.5334650000
    3      C       0.7912370000     1.4252730000     1.7503650000
    4      C       0.0069370000     0.0692730000    -0.0419350000
    5      C       0.7000370000     1.2726730000     0.3444650000
    6      C      -0.0248630000     0.0108730000    -1.4633350000
    7      C       0.6074370000     1.1063730000    -2.0841350000
    8      S       1.2283370000     2.1883730000    -0.9429350000
    9      C       0.7387370000     1.3243730000    -3.5372350000
   10      O       0.2745370000     0.5144730000    -4.3275350000
   11      O       1.3831370000     2.4340730000    -3.9816350000
   12      F      -0.5784630000    -0.9559270000    -2.2235350000
   13      C       1.5713370000     2.7396730000    -5.3122350000
   14      H       2.1243370000     3.6962730000    -5.3475350000
   15      H       0.6050370000     2.8478730000    -5.8528350000
   16      H       2.1547370000     1.9524730000    -5.8391350000
   17      C      -0.4471630000    -2.1525270000     1.0227650000
   18      H       0.6178370000    -2.1615270000     1.2019650000
   19      H      -0.5919630000    -2.8364270000     1.8459650000
   20      H      -0.2910630000    -2.6769270000     0.0915650000
   21      H       1.2512370000     2.2219730000     2.3442650000
 ----------------------------------------------------------------

   11   -1389.2415419188      4.70e-07  Convergence criterion met
 Total energy in the final basis set =    -1389.2415419188
        RIMP2         total energy =     -1391.7480589734 a.u.

                    Orbital Energies (a.u.)
 --------------------------------------------------------------

 Alpha MOs
 -- Occupied --
-92.0038 -91.9890 -26.3342 -20.6097 -20.5459 -11.4066 -11.3767 -11.3160
-11.2922 -11.2889 -11.2874 -11.2799 -11.2687 -11.2351  -9.0031  -8.9932
 -6.6839  -6.6833  -6.6828  -6.6745  -6.6739  -6.6725  -1.6472  -1.4692
 -1.3640  -1.2282  -1.1499  -1.0678  -1.0277  -1.0048  -0.9680  -0.9090
 -0.8633  -0.7963  -0.7848  -0.7671  -0.7265  -0.7150  -0.6961  -0.6771
 -0.6766  -0.6678  -0.6097  -0.6035  -0.6013  -0.5869  -0.5803  -0.5597
 -0.5317  -0.5275  -0.5187  -0.4945  -0.4789  -0.4606  -0.4578  -0.4559
 -0.3901  -0.3471  -0.2724

          Ground-State Mulliken Net Atomic Charges

     Atom                 Charge (a.u.)
  ----------------------------------------
      1 C                     0.065552
      2 S                     0.081131
      3 C                    -0.265688
      4 C                    -0.124775
      5 C                    -0.007702
      6 C                     0.369989
      7 C                    -0.165425
      8 S                     0.029602
      9 C                     0.458028
     10 O                    -0.457139
     11 O                    -0.299037
     12 F                    -0.210791
     13 C                    -0.054844
     14 H                     0.116080
     15 H                     0.083787
     16 H                     0.083569
     17 C                    -0.372855
     18 H                     0.152155
     19 H                     0.164735
     20 H                     0.143739
     21 H                     0.209889
  ----------------------------------------
  Sum of atomic charges =     0.000000

                    Cartesian Multipole Moments
 -----------------------------------------------------------------
    Charge (ESU x 10^10)
                -0.0000
    Dipole Moment (Debye)
         X       1.9558      Y       0.1918      Z       3.7368
       Tot       4.2220
    Quadrupole Moments (Debye-Ang)
        XX     -95.0108     XY       2.9074     YY     -84.4980
        XZ      -4.7194     YZ     -11.3315     ZZ     -96.3968

 Total job time:  60.28s(wall), 2315.89s(cpu)
        *  Thank you very much for using Q-Chem.  Have a nice day.  *
