 Q-Chem 5.4, Q-Chem, Inc., Pleasanton, CA (2021)
 Q-Chem 5.4.0 for Intel X86 EM64T Linux

User input:
--------------------------------------------------------------
$molecule
0 1
C	-0.377913	-0.753180	1.024624
S	0.004187	0.061020	2.535324
C	0.668987	1.489220	1.752224
C	0.005887	0.069920	-0.040076
C	0.591487	1.329320	0.346324
C	-0.020713	0.009120	-1.461476
C	0.513787	1.155520	-2.082276
S	1.037987	2.287520	-0.941076
C	0.625587	1.384120	-3.535376
O	0.233687	0.536820	-4.325676
O	1.170787	2.545720	-3.979776
F	-0.488013	-1.002280	-2.221676
C	1.331587	2.866520	-5.310376
H	1.799087	3.867720	-5.345676
H	0.359487	2.890220	-5.850976
H	1.981487	2.133220	-5.837276
C	-0.377913	-2.188380	1.024624
H	0.443887	-2.197380	0.324024
H	0.159687	-2.872280	1.664724
H	-0.990913	-2.712780	0.306524
H	1.057887	2.323020	2.346124
$end

$rem
JOBTYPE		SP
EXCHANGE	HF
CORRELATION	pRIMP2
BASIS		cc-pvtz
METHOD		rimp2
AUX_BASIS	rimp2-cc-pvtz
SOLVENT_METHOD	PCM
PURECART	11111
SYMMETRY	false
MEM_TOTAL	110000
SCF_CONVERGENCE = 6
THRESH=10
GUI = 2
$end

$solvent
dielectric 4.90
$end
--------------------------------------------------------------

             Standard Nuclear Orientation (Angstroms)
    I     Atom           X                Y                Z
 ----------------------------------------------------------------
    1      C      -0.3779130000    -0.7531800000     1.0246240000
    2      S       0.0041870000     0.0610200000     2.5353240000
    3      C       0.6689870000     1.4892200000     1.7522240000
    4      C       0.0058870000     0.0699200000    -0.0400760000
    5      C       0.5914870000     1.3293200000     0.3463240000
    6      C      -0.0207130000     0.0091200000    -1.4614760000
    7      C       0.5137870000     1.1555200000    -2.0822760000
    8      S       1.0379870000     2.2875200000    -0.9410760000
    9      C       0.6255870000     1.3841200000    -3.5353760000
   10      O       0.2336870000     0.5368200000    -4.3256760000
   11      O       1.1707870000     2.5457200000    -3.9797760000
   12      F      -0.4880130000    -1.0022800000    -2.2216760000
   13      C       1.3315870000     2.8665200000    -5.3103760000
   14      H       1.7990870000     3.8677200000    -5.3456760000
   15      H       0.3594870000     2.8902200000    -5.8509760000
   16      H       1.9814870000     2.1332200000    -5.8372760000
   17      C      -0.3779130000    -2.1883800000     1.0246240000
   18      H       0.4438870000    -2.1973800000     0.3240240000
   19      H       0.1596870000    -2.8722800000     1.6647240000
   20      H      -0.9909130000    -2.7127800000     0.3065240000
   21      H       1.0578870000     2.3230200000     2.3461240000
 ----------------------------------------------------------------

   11   -1389.2420411541      4.94e-07  Convergence criterion met
 Total energy in the final basis set =    -1389.2420411541
        RIMP2         total energy =     -1391.7509611845 a.u.

                    Orbital Energies (a.u.)
 --------------------------------------------------------------

 Alpha MOs
 -- Occupied --
-92.0075 -91.9906 -26.3347 -20.6101 -20.5467 -11.4073 -11.3760 -11.3124
-11.2925 -11.2903 -11.2876 -11.2797 -11.2688 -11.2307  -9.0061  -8.9947
 -6.6868  -6.6862  -6.6858  -6.6760  -6.6753  -6.6740  -1.6477  -1.4697
 -1.3646  -1.2279  -1.1478  -1.0683  -1.0266  -1.0053  -0.9683  -0.9100
 -0.8632  -0.7954  -0.7853  -0.7666  -0.7262  -0.7157  -0.6969  -0.6778
 -0.6770  -0.6683  -0.6092  -0.6037  -0.5942  -0.5923  -0.5858  -0.5624
 -0.5363  -0.5243  -0.5059  -0.4879  -0.4772  -0.4648  -0.4596  -0.4575
 -0.3892  -0.3458  -0.2763

          Ground-State Mulliken Net Atomic Charges

     Atom                 Charge (a.u.)
  ----------------------------------------
      1 C                     0.028677
      2 S                     0.093259
      3 C                    -0.266246
      4 C                    -0.086466
      5 C                    -0.006952
      6 C                     0.364505
      7 C                    -0.163717
      8 S                     0.033683
      9 C                     0.457830
     10 O                    -0.456313
     11 O                    -0.298740
     12 F                    -0.212101
     13 C                    -0.054761
     14 H                     0.116162
     15 H                     0.083860
     16 H                     0.083645
     17 C                    -0.380743
     18 H                     0.140892
     19 H                     0.170079
     20 H                     0.144018
     21 H                     0.209429
  ----------------------------------------
  Sum of atomic charges =     0.000000

                    Cartesian Multipole Moments
 -----------------------------------------------------------------
    Charge (ESU x 10^10)
                -0.0000
    Dipole Moment (Debye)
         X       1.6479      Y       0.5688      Z       3.1942
       Tot       3.6390
    Quadrupole Moments (Debye-Ang)
        XX     -95.1033     XY       2.5640     YY     -84.0123
        XZ      -3.5632     YZ     -10.3763     ZZ     -97.1682

 Total job time:  58.45s(wall), 1942.95s(cpu)
        *  Thank you very much for using Q-Chem.  Have a nice day.  *
