 Q-Chem 5.4, Q-Chem, Inc., Pleasanton, CA (2021)
 Q-Chem 5.4.0 for Intel X86 EM64T Linux

User input:
--------------------------------------------------------------
$molecule
0 1
C	-0.076692	-0.833466	1.023076
S	0.003908	0.062334	2.533776
C	0.140108	1.631734	1.750676
C	0.002408	0.071334	-0.041624
C	0.122008	1.454934	0.344776
C	-0.001692	0.005034	-1.463024
C	0.108408	1.265034	-2.083824
S	0.213808	2.508134	-0.942624
C	0.135208	1.518134	-3.536924
O	0.056808	0.587934	-4.327224
O	0.250308	2.796134	-3.981324
F	-0.094892	-1.105166	-2.223224
C	0.291708	3.152634	-5.311924
H	0.388608	4.253334	-5.347224
H	-0.629792	2.842434	-5.852524
H	1.153208	2.685834	-5.838824
C	-0.076692	-2.268666	1.023076
H	-1.141692	-2.277666	0.843876
H	0.068108	-2.952566	0.199876
H	-0.232792	-2.793066	1.954276
H	0.220408	2.548234	2.344576
$end

$rem
JOBTYPE		SP
EXCHANGE	HF
CORRELATION	pRIMP2
BASIS		cc-pvtz
METHOD		rimp2
AUX_BASIS	rimp2-cc-pvtz
SOLVENT_METHOD	PCM
PURECART	11111
SYMMETRY	false
MEM_TOTAL	110000
SCF_CONVERGENCE = 6
THRESH=10
GUI = 2
$end

$solvent
dielectric 4.90
$end
--------------------------------------------------------------

             Standard Nuclear Orientation (Angstroms)
    I     Atom           X                Y                Z
 ----------------------------------------------------------------
    1      C      -0.0766920000    -0.8334660000     1.0230760000
    2      S       0.0039080000     0.0623340000     2.5337760000
    3      C       0.1401080000     1.6317340000     1.7506760000
    4      C       0.0024080000     0.0713340000    -0.0416240000
    5      C       0.1220080000     1.4549340000     0.3447760000
    6      C      -0.0016920000     0.0050340000    -1.4630240000
    7      C       0.1084080000     1.2650340000    -2.0838240000
    8      S       0.2138080000     2.5081340000    -0.9426240000
    9      C       0.1352080000     1.5181340000    -3.5369240000
   10      O       0.0568080000     0.5879340000    -4.3272240000
   11      O       0.2503080000     2.7961340000    -3.9813240000
   12      F      -0.0948920000    -1.1051660000    -2.2232240000
   13      C       0.2917080000     3.1526340000    -5.3119240000
   14      H       0.3886080000     4.2533340000    -5.3472240000
   15      H      -0.6297920000     2.8424340000    -5.8525240000
   16      H       1.1532080000     2.6858340000    -5.8388240000
   17      C      -0.0766920000    -2.2686660000     1.0230760000
   18      H      -1.1416920000    -2.2776660000     0.8438760000
   19      H       0.0681080000    -2.9525660000     0.1998760000
   20      H      -0.2327920000    -2.7930660000     1.9542760000
   21      H       0.2204080000     2.5482340000     2.3445760000
 ----------------------------------------------------------------

   11   -1389.2562234494      4.21e-07  Convergence criterion met
 Total energy in the final basis set =    -1389.2562234494
        RIMP2         total energy =     -1391.7582247045 a.u.

                    Orbital Energies (a.u.)
 --------------------------------------------------------------

 Alpha MOs
 -- Occupied --
-92.0072 -91.9874 -26.3344 -20.6088 -20.5444 -11.4053 -11.3766 -11.3213
-11.2914 -11.2869 -11.2858 -11.2733 -11.2657 -11.2363  -9.0058  -8.9917
 -6.6867  -6.6861  -6.6855  -6.6730  -6.6723  -6.6710  -1.6474  -1.4682
 -1.3629  -1.2257  -1.1465  -1.0675  -1.0269  -1.0066  -0.9672  -0.9116
 -0.8622  -0.7957  -0.7841  -0.7654  -0.7256  -0.7150  -0.6969  -0.6781
 -0.6759  -0.6667  -0.6099  -0.6024  -0.5919  -0.5876  -0.5850  -0.5593
 -0.5362  -0.5236  -0.5183  -0.4949  -0.4782  -0.4622  -0.4583  -0.4560
 -0.3897  -0.3468  -0.2718

          Ground-State Mulliken Net Atomic Charges

     Atom                 Charge (a.u.)
  ----------------------------------------
      1 C                     0.049511
      2 S                     0.087657
      3 C                    -0.283740
      4 C                    -0.106074
      5 C                    -0.005113
      6 C                     0.397042
      7 C                    -0.173724
      8 S                     0.022129
      9 C                     0.460789
     10 O                    -0.460333
     11 O                    -0.299218
     12 F                    -0.214428
     13 C                    -0.055103
     14 H                     0.115884
     15 H                     0.083424
     16 H                     0.083413
     17 C                    -0.382043
     18 H                     0.150069
     19 H                     0.173092
     20 H                     0.147396
     21 H                     0.209371
  ----------------------------------------
  Sum of atomic charges =     0.000000

                    Cartesian Multipole Moments
 -----------------------------------------------------------------
    Charge (ESU x 10^10)
                -0.0000
    Dipole Moment (Debye)
         X      -0.5833      Y       0.0686      Z       3.7136
       Tot       3.7597
    Quadrupole Moments (Debye-Ang)
        XX     -96.4107     XY       2.7892     YY     -81.7637
        XZ      -1.8651     YZ     -12.1719     ZZ     -97.2461

 Total job time:  53.13s(wall), 1928.38s(cpu)
        *  Thank you very much for using Q-Chem.  Have a nice day.  *
