 Q-Chem 5.4, Q-Chem, Inc., Pleasanton, CA (2021)
 Q-Chem 5.4.0 for Intel X86 EM64T Linux

User input:
--------------------------------------------------------------
$molecule
0 1
C	-0.000754	-0.836989	1.025038
S	0.001446	0.062411	2.535738
C	0.000446	1.637711	1.752638
C	-0.000754	0.071211	-0.039662
C	-0.002254	1.460011	0.346738
C	0.000846	0.004811	-1.461062
C	0.000746	1.269711	-2.081862
S	-0.002554	2.517211	-0.940662
C	0.005446	1.524111	-3.534962
O	0.008446	0.590611	-4.325262
O	0.008646	2.807311	-3.979362
F	0.004746	-1.109289	-2.221262
C	0.018846	3.166011	-5.309962
H	0.019446	4.271011	-5.345262
H	-0.872154	2.776711	-5.850562
H	0.917746	2.776111	-5.836862
C	-0.000754	-2.272189	1.025038
H	-0.378054	-2.281189	0.013138
H	0.784546	-2.956089	0.738838
H	-0.885154	-2.796589	1.355438
H	0.000446	2.557811	2.346538
$end

$rem
JOBTYPE		SP
EXCHANGE	HF
CORRELATION	pRIMP2
BASIS		cc-pvtz
METHOD		rimp2
AUX_BASIS	rimp2-cc-pvtz
SOLVENT_METHOD	PCM
PURECART	11111
SYMMETRY	false
MEM_TOTAL	110000
SCF_CONVERGENCE = 6
THRESH=10
GUI = 2
$end

$solvent
dielectric 4.90
$end
--------------------------------------------------------------

             Standard Nuclear Orientation (Angstroms)
    I     Atom           X                Y                Z
 ----------------------------------------------------------------
    1      C      -0.0007540000    -0.8369890000     1.0250380000
    2      S       0.0014460000     0.0624110000     2.5357380000
    3      C       0.0004460000     1.6377110000     1.7526380000
    4      C      -0.0007540000     0.0712110000    -0.0396620000
    5      C      -0.0022540000     1.4600110000     0.3467380000
    6      C       0.0008460000     0.0048110000    -1.4610620000
    7      C       0.0007460000     1.2697110000    -2.0818620000
    8      S      -0.0025540000     2.5172110000    -0.9406620000
    9      C       0.0054460000     1.5241110000    -3.5349620000
   10      O       0.0084460000     0.5906110000    -4.3252620000
   11      O       0.0086460000     2.8073110000    -3.9793620000
   12      F       0.0047460000    -1.1092890000    -2.2212620000
   13      C       0.0188460000     3.1660110000    -5.3099620000
   14      H       0.0194460000     4.2710110000    -5.3452620000
   15      H      -0.8721540000     2.7767110000    -5.8505620000
   16      H       0.9177460000     2.7761110000    -5.8368620000
   17      C      -0.0007540000    -2.2721890000     1.0250380000
   18      H      -0.3780540000    -2.2811890000     0.0131380000
   19      H       0.7845460000    -2.9560890000     0.7388380000
   20      H      -0.8851540000    -2.7965890000     1.3554380000
   21      H       0.0004460000     2.5578110000     2.3465380000
 ----------------------------------------------------------------

   11   -1389.2549112668      4.92e-07  Convergence criterion met
 Total energy in the final basis set =    -1389.2549112668
        RIMP2         total energy =     -1391.7616286542 a.u.

                    Orbital Energies (a.u.)
 --------------------------------------------------------------

 Alpha MOs
 -- Occupied --
-92.0044 -91.9905 -26.3355 -20.6108 -20.5479 -11.4083 -11.3766 -11.3100
-11.2924 -11.2916 -11.2879 -11.2825 -11.2730 -11.2286  -9.0033  -8.9947
 -6.6840  -6.6834  -6.6830  -6.6760  -6.6753  -6.6740  -1.6487  -1.4704
 -1.3656  -1.2278  -1.1452  -1.0678  -1.0270  -1.0064  -0.9685  -0.9116
 -0.8637  -0.7959  -0.7863  -0.7670  -0.7266  -0.7165  -0.6975  -0.6786
 -0.6775  -0.6691  -0.6093  -0.6046  -0.5966  -0.5877  -0.5787  -0.5697
 -0.5445  -0.5247  -0.5049  -0.4813  -0.4736  -0.4633  -0.4603  -0.4546
 -0.3962  -0.3454  -0.2815

          Ground-State Mulliken Net Atomic Charges

     Atom                 Charge (a.u.)
  ----------------------------------------
      1 C                     0.048512
      2 S                     0.080492
      3 C                    -0.254673
      4 C                    -0.099867
      5 C                    -0.011988
      6 C                     0.382727
      7 C                    -0.151315
      8 S                     0.029196
      9 C                     0.458332
     10 O                    -0.454765
     11 O                    -0.298253
     12 F                    -0.214399
     13 C                    -0.055001
     14 H                     0.116404
     15 H                     0.084011
     16 H                     0.083959
     17 C                    -0.371724
     18 H                     0.118644
     19 H                     0.153288
     20 H                     0.145979
     21 H                     0.210440
  ----------------------------------------
  Sum of atomic charges =     0.000000

                    Cartesian Multipole Moments
 -----------------------------------------------------------------
    Charge (ESU x 10^10)
                -0.0000
    Dipole Moment (Debye)
         X      -0.2490      Y       1.0388      Z       2.8481
       Tot       3.0419
    Quadrupole Moments (Debye-Ang)
        XX     -95.9391     XY       0.6266     YY     -82.0438
        XZ      -0.5230     YZ     -10.6689     ZZ     -97.6295

 Total job time:  63.39s(wall), 2523.68s(cpu)
        *  Thank you very much for using Q-Chem.  Have a nice day.  *
