 Q-Chem 5.4, Q-Chem, Inc., Pleasanton, CA (2021)
 Q-Chem 5.4.0 for Intel X86 EM64T Linux

User input:
--------------------------------------------------------------
$molecule
0 1
C	-0.231327	-0.806326	1.025276
S	0.003573	0.061874	2.535976
C	0.410273	1.583774	1.752876
C	0.003673	0.070974	-0.039424
C	0.361673	1.412774	0.346976
C	-0.011827	0.006374	-1.460824
C	0.315373	1.228174	-2.081624
S	0.634973	2.434074	-0.940424
C	0.385773	1.472774	-3.534724
O	0.146973	0.570274	-4.325024
O	0.720973	2.711374	-3.979124
F	-0.296427	-1.070726	-2.221024
C	0.823673	3.055274	-5.309724
H	1.110173	4.122374	-5.345024
H	-0.137727	2.909774	-5.850324
H	1.590973	2.445874	-5.836624
C	-0.231327	-2.241526	1.025276
H	-0.052127	-2.250526	-0.039724
H	0.591873	-2.925426	1.170076
H	-1.162527	-2.765926	0.869176
H	0.648473	2.472474	2.346776
$end

$rem
JOBTYPE		SP
EXCHANGE	HF
CORRELATION	pRIMP2
BASIS		cc-pvtz
METHOD		rimp2
AUX_BASIS	rimp2-cc-pvtz
SOLVENT_METHOD	PCM
PURECART	11111
SYMMETRY	false
MEM_TOTAL	110000
SCF_CONVERGENCE = 6
THRESH=10
GUI = 2
$end

$solvent
dielectric 4.90
$end
--------------------------------------------------------------

             Standard Nuclear Orientation (Angstroms)
    I     Atom           X                Y                Z
 ----------------------------------------------------------------
    1      C      -0.2313270000    -0.8063260000     1.0252760000
    2      S       0.0035730000     0.0618740000     2.5359760000
    3      C       0.4102730000     1.5837740000     1.7528760000
    4      C       0.0036730000     0.0709740000    -0.0394240000
    5      C       0.3616730000     1.4127740000     0.3469760000
    6      C      -0.0118270000     0.0063740000    -1.4608240000
    7      C       0.3153730000     1.2281740000    -2.0816240000
    8      S       0.6349730000     2.4340740000    -0.9404240000
    9      C       0.3857730000     1.4727740000    -3.5347240000
   10      O       0.1469730000     0.5702740000    -4.3250240000
   11      O       0.7209730000     2.7113740000    -3.9791240000
   12      F      -0.2964270000    -1.0707260000    -2.2210240000
   13      C       0.8236730000     3.0552740000    -5.3097240000
   14      H       1.1101730000     4.1223740000    -5.3450240000
   15      H      -0.1377270000     2.9097740000    -5.8503240000
   16      H       1.5909730000     2.4458740000    -5.8366240000
   17      C      -0.2313270000    -2.2415260000     1.0252760000
   18      H      -0.0521270000    -2.2505260000    -0.0397240000
   19      H       0.5918730000    -2.9254260000     1.1700760000
   20      H      -1.1625270000    -2.7659260000     0.8691760000
   21      H       0.6484730000     2.4724740000     2.3467760000
 ----------------------------------------------------------------

   11   -1389.2493680115      5.15e-07  Convergence criterion met
 Total energy in the final basis set =    -1389.2493680115
        RIMP2         total energy =     -1391.7581126891 a.u.

                    Orbital Energies (a.u.)
 --------------------------------------------------------------

 Alpha MOs
 -- Occupied --
-92.0040 -91.9914 -26.3357 -20.6112 -20.5486 -11.4090 -11.3765 -11.3064
-11.2938 -11.2917 -11.2881 -11.2851 -11.2743 -11.2267  -9.0029  -8.9955
 -6.6837  -6.6830  -6.6827  -6.6768  -6.6761  -6.6748  -1.6490  -1.4709
 -1.3661  -1.2284  -1.1455  -1.0680  -1.0271  -1.0059  -0.9689  -0.9112
 -0.8640  -0.7960  -0.7868  -0.7675  -0.7269  -0.7168  -0.6974  -0.6783
 -0.6778  -0.6696  -0.6080  -0.6050  -0.5981  -0.5887  -0.5813  -0.5675
 -0.5432  -0.5251  -0.5050  -0.4818  -0.4697  -0.4637  -0.4606  -0.4533
 -0.3968  -0.3450  -0.2830

          Ground-State Mulliken Net Atomic Charges

     Atom                 Charge (a.u.)
  ----------------------------------------
      1 C                     0.032732
      2 S                     0.084816
      3 C                    -0.248429
      4 C                    -0.095510
      5 C                    -0.011990
      6 C                     0.364193
      7 C                    -0.142544
      8 S                     0.033021
      9 C                     0.457136
     10 O                    -0.453308
     11 O                    -0.298042
     12 F                    -0.213185
     13 C                    -0.054904
     14 H                     0.116528
     15 H                     0.084178
     16 H                     0.083994
     17 C                    -0.362106
     18 H                     0.117511
     19 H                     0.158335
     20 H                     0.137196
     21 H                     0.210378
  ----------------------------------------
  Sum of atomic charges =     0.000000

                    Cartesian Multipole Moments
 -----------------------------------------------------------------
    Charge (ESU x 10^10)
                -0.0000
    Dipole Moment (Debye)
         X       0.8776      Y       1.1848      Z       2.7483
       Tot       3.1188
    Quadrupole Moments (Debye-Ang)
        XX     -95.2930     XY       2.2088     YY     -82.8830
        XZ      -2.4059     YZ     -10.1953     ZZ     -97.4547

 Total job time:  53.54s(wall), 1909.04s(cpu)
        *  Thank you very much for using Q-Chem.  Have a nice day.  *
