 Q-Chem 5.4, Q-Chem, Inc., Pleasanton, CA (2021)
 Q-Chem 5.4.0 for Intel X86 EM64T Linux

User input:
--------------------------------------------------------------
$molecule
0 1
C	-0.156369	-0.823218	1.020653
S	0.002031	0.062182	2.531353
C	0.274531	1.613782	1.748253
C	0.001331	0.071182	-0.044047
C	0.241031	1.439182	0.342353
C	-0.008569	0.005582	-1.465447
C	0.210931	1.251182	-2.086247
S	0.424231	2.480282	-0.945047
C	0.259731	1.500982	-3.539347
O	0.100531	0.581182	-4.329647
O	0.485731	2.764082	-3.983747
F	-0.198169	-1.092318	-2.225647
C	0.558031	3.115582	-5.314347
H	0.750431	4.203682	-5.349647
H	-0.387069	2.886882	-5.854947
H	1.375531	2.575482	-5.841247
C	-0.156369	-2.258418	1.020653
H	0.039531	-2.267418	2.082753
H	-0.979469	-2.942318	1.166153
H	0.772031	-2.782818	0.848853
H	0.434331	2.519782	2.342153
$end

$rem
JOBTYPE		SP
EXCHANGE	HF
CORRELATION	pRIMP2
BASIS		cc-pvtz
METHOD		rimp2
AUX_BASIS	rimp2-cc-pvtz
SOLVENT_METHOD	PCM
PURECART	11111
SYMMETRY	false
MEM_TOTAL	110000
SCF_CONVERGENCE = 6
THRESH=10
GUI = 2
$end

$solvent
dielectric 4.90
$end
--------------------------------------------------------------

             Standard Nuclear Orientation (Angstroms)
    I     Atom           X                Y                Z
 ----------------------------------------------------------------
    1      C      -0.1563690000    -0.8232180000     1.0206530000
    2      S       0.0020310000     0.0621820000     2.5313530000
    3      C       0.2745310000     1.6137820000     1.7482530000
    4      C       0.0013310000     0.0711820000    -0.0440470000
    5      C       0.2410310000     1.4391820000     0.3423530000
    6      C      -0.0085690000     0.0055820000    -1.4654470000
    7      C       0.2109310000     1.2511820000    -2.0862470000
    8      S       0.4242310000     2.4802820000    -0.9450470000
    9      C       0.2597310000     1.5009820000    -3.5393470000
   10      O       0.1005310000     0.5811820000    -4.3296470000
   11      O       0.4857310000     2.7640820000    -3.9837470000
   12      F      -0.1981690000    -1.0923180000    -2.2256470000
   13      C       0.5580310000     3.1155820000    -5.3143470000
   14      H       0.7504310000     4.2036820000    -5.3496470000
   15      H      -0.3870690000     2.8868820000    -5.8549470000
   16      H       1.3755310000     2.5754820000    -5.8412470000
   17      C      -0.1563690000    -2.2584180000     1.0206530000
   18      H       0.0395310000    -2.2674180000     2.0827530000
   19      H      -0.9794690000    -2.9423180000     1.1661530000
   20      H       0.7720310000    -2.7828180000     0.8488530000
   21      H       0.4343310000     2.5197820000     2.3421530000
 ----------------------------------------------------------------

   11   -1389.2504443385      4.87e-07  Convergence criterion met
 Total energy in the final basis set =    -1389.2504443385
        RIMP2         total energy =     -1391.7570767549 a.u.

                    Orbital Energies (a.u.)
 --------------------------------------------------------------

 Alpha MOs
 -- Occupied --
-92.0094 -91.9900 -26.3329 -20.6104 -20.5474 -11.4078 -11.3750 -11.3068
-11.2918 -11.2915 -11.2876 -11.2843 -11.2693 -11.2282  -9.0081  -8.9942
 -6.6888  -6.6882  -6.6878  -6.6755  -6.6748  -6.6734  -1.6459  -1.4700
 -1.3651  -1.2269  -1.1470  -1.0650  -1.0298  -1.0052  -0.9685  -0.9097
 -0.8644  -0.7967  -0.7841  -0.7679  -0.7263  -0.7139  -0.6955  -0.6771
 -0.6761  -0.6680  -0.6090  -0.6042  -0.5975  -0.5874  -0.5733  -0.5695
 -0.5442  -0.5247  -0.5050  -0.4811  -0.4746  -0.4626  -0.4599  -0.4577
 -0.3960  -0.3461  -0.2823

          Ground-State Mulliken Net Atomic Charges

     Atom                 Charge (a.u.)
  ----------------------------------------
      1 C                     0.045336
      2 S                     0.084353
      3 C                    -0.255789
      4 C                    -0.093072
      5 C                    -0.009515
      6 C                     0.387694
      7 C                    -0.163628
      8 S                     0.029953
      9 C                     0.458697
     10 O                    -0.454175
     11 O                    -0.298336
     12 F                    -0.213313
     13 C                    -0.054925
     14 H                     0.116189
     15 H                     0.084003
     16 H                     0.083922
     17 C                    -0.367119
     18 H                     0.113388
     19 H                     0.152856
     20 H                     0.141185
     21 H                     0.212296
  ----------------------------------------
  Sum of atomic charges =     0.000000

                    Cartesian Multipole Moments
 -----------------------------------------------------------------
    Charge (ESU x 10^10)
                -0.0000
    Dipole Moment (Debye)
         X       0.6462      Y       1.1659      Z       4.1431
       Tot       4.3522
    Quadrupole Moments (Debye-Ang)
        XX     -95.6414     XY       1.5288     YY     -82.6637
        XZ      -1.9218     YZ     -13.3019     ZZ     -94.8952

 Total job time:  67.23s(wall), 2713.01s(cpu)
        *  Thank you very much for using Q-Chem.  Have a nice day.  *
