 Q-Chem 5.4, Q-Chem, Inc., Pleasanton, CA (2021)
 Q-Chem 5.4.0 for Intel X86 EM64T Linux

User input:
--------------------------------------------------------------
$molecule
0 1
C	-0.157022	-0.823218	1.024882
S	0.001378	0.062182	2.535582
C	0.273878	1.613782	1.752482
C	0.000678	0.071182	-0.039818
C	0.240378	1.439182	0.346582
C	-0.009222	0.005582	-1.461218
C	0.210278	1.251182	-2.082018
S	0.423578	2.480282	-0.940818
C	0.259078	1.500982	-3.535118
O	0.099878	0.581182	-4.325418
O	0.485078	2.764082	-3.979518
F	-0.198822	-1.092318	-2.221418
C	0.557378	3.115582	-5.310118
H	0.749778	4.203682	-5.345418
H	-0.387722	2.886882	-5.850718
H	1.374878	2.575482	-5.837018
C	-0.157022	-2.258418	1.024882
H	0.530678	-2.267418	0.192182
H	0.483478	-2.942318	1.561882
H	-0.885422	-2.782818	0.424182
H	0.433678	2.519782	2.346382
$end

$rem
JOBTYPE		SP
EXCHANGE	HF
CORRELATION	pRIMP2
BASIS		cc-pvtz
METHOD		rimp2
AUX_BASIS	rimp2-cc-pvtz
SOLVENT_METHOD	PCM
PURECART	11111
SYMMETRY	false
MEM_TOTAL	110000
SCF_CONVERGENCE = 6
THRESH=10
GUI = 2
$end

$solvent
dielectric 4.90
$end
--------------------------------------------------------------

             Standard Nuclear Orientation (Angstroms)
    I     Atom           X                Y                Z
 ----------------------------------------------------------------
    1      C      -0.1570220000    -0.8232180000     1.0248820000
    2      S       0.0013780000     0.0621820000     2.5355820000
    3      C       0.2738780000     1.6137820000     1.7524820000
    4      C       0.0006780000     0.0711820000    -0.0398180000
    5      C       0.2403780000     1.4391820000     0.3465820000
    6      C      -0.0092220000     0.0055820000    -1.4612180000
    7      C       0.2102780000     1.2511820000    -2.0820180000
    8      S       0.4235780000     2.4802820000    -0.9408180000
    9      C       0.2590780000     1.5009820000    -3.5351180000
   10      O       0.0998780000     0.5811820000    -4.3254180000
   11      O       0.4850780000     2.7640820000    -3.9795180000
   12      F      -0.1988220000    -1.0923180000    -2.2214180000
   13      C       0.5573780000     3.1155820000    -5.3101180000
   14      H       0.7497780000     4.2036820000    -5.3454180000
   15      H      -0.3877220000     2.8868820000    -5.8507180000
   16      H       1.3748780000     2.5754820000    -5.8370180000
   17      C      -0.1570220000    -2.2584180000     1.0248820000
   18      H       0.5306780000    -2.2674180000     0.1921820000
   19      H       0.4834780000    -2.9423180000     1.5618820000
   20      H      -0.8854220000    -2.7828180000     0.4241820000
   21      H       0.4336780000     2.5197820000     2.3463820000
 ----------------------------------------------------------------

   11   -1389.2529259682      4.69e-07  Convergence criterion met
 Total energy in the final basis set =    -1389.2529259682
        RIMP2         total energy =     -1391.7590141594 a.u.

                    Orbital Energies (a.u.)
 --------------------------------------------------------------

 Alpha MOs
 -- Occupied --
-92.0061 -91.9899 -26.3351 -20.6101 -20.5466 -11.4073 -11.3765 -11.3145
-11.2919 -11.2901 -11.2876 -11.2785 -11.2700 -11.2312  -9.0047  -8.9940
 -6.6855  -6.6849  -6.6845  -6.6753  -6.6746  -6.6733  -1.6482  -1.4697
 -1.3646  -1.2273  -1.1460  -1.0681  -1.0266  -1.0064  -0.9681  -0.9113
 -0.8631  -0.7955  -0.7855  -0.7662  -0.7262  -0.7160  -0.6973  -0.6781
 -0.6770  -0.6682  -0.6098  -0.6038  -0.5955  -0.5887  -0.5854  -0.5646
 -0.5409  -0.5241  -0.5050  -0.4848  -0.4760  -0.4648  -0.4597  -0.4568
 -0.3924  -0.3457  -0.2777

          Ground-State Mulliken Net Atomic Charges

     Atom                 Charge (a.u.)
  ----------------------------------------
      1 C                     0.048114
      2 S                     0.084608
      3 C                    -0.267031
      4 C                    -0.093765
      5 C                    -0.010290
      6 C                     0.378562
      7 C                    -0.160788
      8 S                     0.028819
      9 C                     0.458304
     10 O                    -0.456667
     11 O                    -0.298603
     12 F                    -0.213739
     13 C                    -0.054919
     14 H                     0.116176
     15 H                     0.083818
     16 H                     0.083696
     17 C                    -0.379850
     18 H                     0.131455
     19 H                     0.166940
     20 H                     0.145635
     21 H                     0.209524
  ----------------------------------------
  Sum of atomic charges =     0.000000

                    Cartesian Multipole Moments
 -----------------------------------------------------------------
    Charge (ESU x 10^10)
                -0.0000
    Dipole Moment (Debye)
         X       0.8841      Y       0.6546      Z       3.0778
       Tot       3.2685
    Quadrupole Moments (Debye-Ang)
        XX     -96.0237     XY       0.5450     YY     -82.2953
        XZ      -1.0570     YZ     -11.0556     ZZ     -97.6278

 Total job time:  65.29s(wall), 2670.14s(cpu)
        *  Thank you very much for using Q-Chem.  Have a nice day.  *
