 Q-Chem 5.4, Q-Chem, Inc., Pleasanton, CA (2021)
 Q-Chem 5.4.0 for Intel X86 EM64T Linux

User input:
--------------------------------------------------------------
$molecule
0 1
C	0.000108	-0.836989	1.021526
S	0.002308	0.062411	2.532226
C	0.001308	1.637711	1.749126
C	0.000108	0.071211	-0.043174
C	-0.001392	1.460011	0.343226
C	0.001708	0.004811	-1.464574
C	0.001608	1.269711	-2.085374
S	-0.001692	2.517211	-0.944174
C	0.006308	1.524111	-3.538474
O	0.009308	0.590611	-4.328774
O	0.009508	2.807311	-3.982874
F	0.005608	-1.109289	-2.224774
C	0.019708	3.166011	-5.313474
H	0.020308	4.271011	-5.348774
H	-0.871292	2.776711	-5.854074
H	0.918608	2.776111	-5.840374
C	0.000108	-2.272189	1.021526
H	-0.930892	-2.281189	1.568826
H	-0.418092	-2.956089	0.297826
H	0.479108	-2.796589	1.835126
H	0.001308	2.557811	2.343026
$end

$rem
JOBTYPE		SP
EXCHANGE	HF
CORRELATION	pRIMP2
BASIS		cc-pvtz
METHOD		rimp2
AUX_BASIS	rimp2-cc-pvtz
SOLVENT_METHOD	PCM
PURECART	11111
SYMMETRY	false
MEM_TOTAL	110000
SCF_CONVERGENCE = 6
THRESH=10
GUI = 2
$end

$solvent
dielectric 4.90
$end
--------------------------------------------------------------

             Standard Nuclear Orientation (Angstroms)
    I     Atom           X                Y                Z
 ----------------------------------------------------------------
    1      C       0.0001080000    -0.8369890000     1.0215260000
    2      S       0.0023080000     0.0624110000     2.5322260000
    3      C       0.0013080000     1.6377110000     1.7491260000
    4      C       0.0001080000     0.0712110000    -0.0431740000
    5      C      -0.0013920000     1.4600110000     0.3432260000
    6      C       0.0017080000     0.0048110000    -1.4645740000
    7      C       0.0016080000     1.2697110000    -2.0853740000
    8      S      -0.0016920000     2.5172110000    -0.9441740000
    9      C       0.0063080000     1.5241110000    -3.5384740000
   10      O       0.0093080000     0.5906110000    -4.3287740000
   11      O       0.0095080000     2.8073110000    -3.9828740000
   12      F       0.0056080000    -1.1092890000    -2.2247740000
   13      C       0.0197080000     3.1660110000    -5.3134740000
   14      H       0.0203080000     4.2710110000    -5.3487740000
   15      H      -0.8712920000     2.7767110000    -5.8540740000
   16      H       0.9186080000     2.7761110000    -5.8403740000
   17      C       0.0001080000    -2.2721890000     1.0215260000
   18      H      -0.9308920000    -2.2811890000     1.5688260000
   19      H      -0.4180920000    -2.9560890000     0.2978260000
   20      H       0.4791080000    -2.7965890000     1.8351260000
   21      H       0.0013080000     2.5578110000     2.3430260000
 ----------------------------------------------------------------

   11   -1389.2556244931      4.23e-07  Convergence criterion met
 Total energy in the final basis set =    -1389.2556244931
        RIMP2         total energy =     -1391.7576279956 a.u.

                    Orbital Energies (a.u.)
 --------------------------------------------------------------

 Alpha MOs
 -- Occupied --
-92.0065 -91.9874 -26.3336 -20.6092 -20.5451 -11.4059 -11.3763 -11.3185
-11.2908 -11.2872 -11.2870 -11.2765 -11.2666 -11.2343  -9.0054  -8.9916
 -6.6863  -6.6857  -6.6852  -6.6730  -6.6723  -6.6709  -1.6465  -1.4686
 -1.3634  -1.2258  -1.1469  -1.0664  -1.0281  -1.0060  -0.9674  -0.9109
 -0.8627  -0.7961  -0.7838  -0.7660  -0.7257  -0.7142  -0.6960  -0.6773
 -0.6761  -0.6668  -0.6100  -0.6028  -0.5959  -0.5857  -0.5809  -0.5608
 -0.5386  -0.5258  -0.5143  -0.4916  -0.4784  -0.4618  -0.4585  -0.4563
 -0.3918  -0.3468  -0.2736

          Ground-State Mulliken Net Atomic Charges

     Atom                 Charge (a.u.)
  ----------------------------------------
      1 C                     0.039153
      2 S                     0.077728
      3 C                    -0.269905
      4 C                    -0.091290
      5 C                    -0.016188
      6 C                     0.402485
      7 C                    -0.170504
      8 S                     0.021415
      9 C                     0.460192
     10 O                    -0.458725
     11 O                    -0.298967
     12 F                    -0.213878
     13 C                    -0.055031
     14 H                     0.115928
     15 H                     0.083553
     16 H                     0.083566
     17 C                    -0.378264
     18 H                     0.140403
     19 H                     0.169635
     20 H                     0.147932
     21 H                     0.210762
  ----------------------------------------
  Sum of atomic charges =     0.000000

                    Cartesian Multipole Moments
 -----------------------------------------------------------------
    Charge (ESU x 10^10)
                -0.0000
    Dipole Moment (Debye)
         X      -0.6425      Y       0.3058      Z       4.1077
       Tot       4.1689
    Quadrupole Moments (Debye-Ang)
        XX     -96.4396     XY       1.7052     YY     -81.8188
        XZ      -0.4159     YZ     -13.2505     ZZ     -96.0864

 Total job time:  56.58s(wall), 2096.18s(cpu)
        *  Thank you very much for using Q-Chem.  Have a nice day.  *
