 Q-Chem 5.4, Q-Chem, Inc., Pleasanton, CA (2021)
 Q-Chem 5.4.0 for Intel X86 EM64T Linux

User input:
--------------------------------------------------------------
$molecule
0 1
C	-0.443173	-0.717327	1.021216
S	0.008427	0.060473	2.531916
C	0.795227	1.425273	1.748816
C	0.010927	0.069273	-0.043484
C	0.704027	1.272673	0.342916
C	-0.020873	0.010873	-1.464884
C	0.611427	1.106373	-2.085684
S	1.232327	2.188373	-0.944484
C	0.742727	1.324373	-3.538784
O	0.278527	0.514473	-4.329084
O	1.387127	2.434073	-3.983184
F	-0.574473	-0.955927	-2.225084
C	1.575327	2.739673	-5.313784
H	2.128327	3.696273	-5.349084
H	0.609027	2.847873	-5.854384
H	2.158727	1.952473	-5.840684
C	-0.443173	-2.152527	1.021216
H	-1.264973	-2.161527	1.721816
H	-0.980773	-2.836427	0.381116
H	0.169827	-2.676927	1.739316
H	1.255227	2.221973	2.342716
$end

$rem
JOBTYPE		SP
EXCHANGE	HF
CORRELATION	pRIMP2
BASIS		cc-pvtz
METHOD		rimp2
AUX_BASIS	rimp2-cc-pvtz
SOLVENT_METHOD	PCM
PURECART	11111
SYMMETRY	false
MEM_TOTAL	110000
SCF_CONVERGENCE = 6
THRESH=10
GUI = 2
$end

$solvent
dielectric 4.90
$end
--------------------------------------------------------------

             Standard Nuclear Orientation (Angstroms)
    I     Atom           X                Y                Z
 ----------------------------------------------------------------
    1      C      -0.4431730000    -0.7173270000     1.0212160000
    2      S       0.0084270000     0.0604730000     2.5319160000
    3      C       0.7952270000     1.4252730000     1.7488160000
    4      C       0.0109270000     0.0692730000    -0.0434840000
    5      C       0.7040270000     1.2726730000     0.3429160000
    6      C      -0.0208730000     0.0108730000    -1.4648840000
    7      C       0.6114270000     1.1063730000    -2.0856840000
    8      S       1.2323270000     2.1883730000    -0.9444840000
    9      C       0.7427270000     1.3243730000    -3.5387840000
   10      O       0.2785270000     0.5144730000    -4.3290840000
   11      O       1.3871270000     2.4340730000    -3.9831840000
   12      F      -0.5744730000    -0.9559270000    -2.2250840000
   13      C       1.5753270000     2.7396730000    -5.3137840000
   14      H       2.1283270000     3.6962730000    -5.3490840000
   15      H       0.6090270000     2.8478730000    -5.8543840000
   16      H       2.1587270000     1.9524730000    -5.8406840000
   17      C      -0.4431730000    -2.1525270000     1.0212160000
   18      H      -1.2649730000    -2.1615270000     1.7218160000
   19      H      -0.9807730000    -2.8364270000     0.3811160000
   20      H       0.1698270000    -2.6769270000     1.7393160000
   21      H       1.2552270000     2.2219730000     2.3427160000
 ----------------------------------------------------------------

   11   -1389.2341252564      5.33e-07  Convergence criterion met
 Total energy in the final basis set =    -1389.2341252564
        RIMP2         total energy =     -1391.7444681973 a.u.

                    Orbital Energies (a.u.)
 --------------------------------------------------------------

 Alpha MOs
 -- Occupied --
-92.0076 -91.9903 -26.3329 -20.6104 -20.5475 -11.4079 -11.3748 -11.3034
-11.2921 -11.2916 -11.2876 -11.2867 -11.2696 -11.2266  -9.0064  -8.9944
 -6.6872  -6.6866  -6.6862  -6.6757  -6.6751  -6.6737  -1.6459  -1.4700
 -1.3651  -1.2274  -1.1477  -1.0652  -1.0290  -1.0045  -0.9684  -0.9095
 -0.8642  -0.7963  -0.7844  -0.7678  -0.7262  -0.7140  -0.6948  -0.6771
 -0.6754  -0.6682  -0.6093  -0.6043  -0.5934  -0.5872  -0.5838  -0.5607
 -0.5344  -0.5258  -0.5094  -0.4865  -0.4804  -0.4609  -0.4584  -0.4570
 -0.3891  -0.3461  -0.2774

          Ground-State Mulliken Net Atomic Charges

     Atom                 Charge (a.u.)
  ----------------------------------------
      1 C                    -0.027831
      2 S                     0.086575
      3 C                    -0.241276
      4 C                    -0.044553
      5 C                    -0.015249
      6 C                     0.366718
      7 C                    -0.160527
      8 S                     0.030986
      9 C                     0.457426
     10 O                    -0.453934
     11 O                    -0.298398
     12 F                    -0.211069
     13 C                    -0.054863
     14 H                     0.116255
     15 H                     0.083965
     16 H                     0.083961
     17 C                    -0.371971
     18 H                     0.128806
     19 H                     0.162755
     20 H                     0.150331
     21 H                     0.211890
  ----------------------------------------
  Sum of atomic charges =     0.000000

                    Cartesian Multipole Moments
 -----------------------------------------------------------------
    Charge (ESU x 10^10)
                -0.0000
    Dipole Moment (Debye)
         X       1.0067      Y       0.8830      Z       3.9364
       Tot       4.1579
    Quadrupole Moments (Debye-Ang)
        XX     -93.6078     XY       5.7817     YY     -84.9518
        XZ      -5.4836     YZ     -11.2811     ZZ     -95.0178

 Total job time:  54.08s(wall), 1941.61s(cpu)
        *  Thank you very much for using Q-Chem.  Have a nice day.  *
