 Q-Chem 5.4, Q-Chem, Inc., Pleasanton, CA (2021)
 Q-Chem 5.4.0 for Intel X86 EM64T Linux

User input:
--------------------------------------------------------------
$molecule
0 1
C	-0.770761	-0.392188	1.023963
S	0.009239	0.055612	2.534663
C	1.373039	0.844212	1.751563
C	0.015739	0.061912	-0.040737
C	1.217739	0.757612	0.345663
C	-0.040861	0.027312	-1.462137
C	1.054439	0.659812	-2.082937
S	2.133139	1.286512	-0.941737
C	1.277139	0.783012	-3.536037
O	0.470239	0.313712	-4.326337
O	2.390039	1.421812	-3.980437
F	-1.003761	-0.533088	-2.222337
C	2.705739	1.592412	-5.311037
H	3.662939	2.144312	-5.346337
H	1.923039	2.169312	-5.851637
H	2.817439	0.618912	-5.837937
C	-0.770761	-1.827388	1.023963
H	0.241139	-1.836388	0.646663
H	-0.484561	-2.511288	1.809263
H	-1.101161	-2.351788	0.139563
H	2.169839	1.304112	2.345463
$end

$rem
JOBTYPE		SP
EXCHANGE	HF
CORRELATION	pRIMP2
BASIS		cc-pvtz
METHOD		rimp2
AUX_BASIS	rimp2-cc-pvtz
SOLVENT_METHOD	PCM
PURECART	11111
SYMMETRY	false
MEM_TOTAL	110000
SCF_CONVERGENCE = 6
THRESH=10
GUI = 2
$end

$solvent
dielectric 4.90
$end
--------------------------------------------------------------

             Standard Nuclear Orientation (Angstroms)
    I     Atom           X                Y                Z
 ----------------------------------------------------------------
    1      C      -0.7707610000    -0.3921880000     1.0239630000
    2      S       0.0092390000     0.0556120000     2.5346630000
    3      C       1.3730390000     0.8442120000     1.7515630000
    4      C       0.0157390000     0.0619120000    -0.0407370000
    5      C       1.2177390000     0.7576120000     0.3456630000
    6      C      -0.0408610000     0.0273120000    -1.4621370000
    7      C       1.0544390000     0.6598120000    -2.0829370000
    8      S       2.1331390000     1.2865120000    -0.9417370000
    9      C       1.2771390000     0.7830120000    -3.5360370000
   10      O       0.4702390000     0.3137120000    -4.3263370000
   11      O       2.3900390000     1.4218120000    -3.9804370000
   12      F      -1.0037610000    -0.5330880000    -2.2223370000
   13      C       2.7057390000     1.5924120000    -5.3110370000
   14      H       3.6629390000     2.1443120000    -5.3463370000
   15      H       1.9230390000     2.1693120000    -5.8516370000
   16      H       2.8174390000     0.6189120000    -5.8379370000
   17      C      -0.7707610000    -1.8273880000     1.0239630000
   18      H       0.2411390000    -1.8363880000     0.6466630000
   19      H      -0.4845610000    -2.5112880000     1.8092630000
   20      H      -1.1011610000    -2.3517880000     0.1395630000
   21      H       2.1698390000     1.3041120000     2.3454630000
 ----------------------------------------------------------------

   11   -1389.1769994348      8.45e-07  Convergence criterion met
 Total energy in the final basis set =    -1389.1769994348
        RIMP2         total energy =     -1391.7046541503 a.u.

                    Orbital Energies (a.u.)
 --------------------------------------------------------------

 Alpha MOs
 -- Occupied --
-92.0096 -91.9995 -26.3333 -20.6129 -20.5517 -11.4116 -11.3741 -11.3081
-11.3008 -11.2968 -11.2890 -11.2804 -11.2764 -11.2221  -9.0087  -9.0032
 -6.6893  -6.6884  -6.6883  -6.6844  -6.6838  -6.6825  -1.6464  -1.4728
 -1.3684  -1.2368  -1.1580  -1.0724  -1.0301  -1.0010  -0.9717  -0.9038
 -0.8668  -0.7972  -0.7875  -0.7724  -0.7291  -0.7153  -0.6976  -0.6793
 -0.6772  -0.6724  -0.6101  -0.6078  -0.6036  -0.5934  -0.5777  -0.5621
 -0.5289  -0.5236  -0.5103  -0.4956  -0.4824  -0.4625  -0.4621  -0.4492
 -0.3782  -0.3450  -0.2796

          Ground-State Mulliken Net Atomic Charges

     Atom                 Charge (a.u.)
  ----------------------------------------
      1 C                    -0.119906
      2 S                     0.124310
      3 C                    -0.201716
      4 C                    -0.017991
      5 C                    -0.029679
      6 C                     0.363233
      7 C                    -0.146668
      8 S                     0.060231
      9 C                     0.458039
     10 O                    -0.447417
     11 O                    -0.297927
     12 F                    -0.211356
     13 C                    -0.054765
     14 H                     0.116742
     15 H                     0.084912
     16 H                     0.084478
     17 C                    -0.364250
     18 H                     0.108745
     19 H                     0.153758
     20 H                     0.121851
     21 H                     0.215373
  ----------------------------------------
  Sum of atomic charges =     0.000000

                    Cartesian Multipole Moments
 -----------------------------------------------------------------
    Charge (ESU x 10^10)
                -0.0000
    Dipole Moment (Debye)
         X       4.4270      Y       0.7728      Z       3.1080
       Tot       5.4640
    Quadrupole Moments (Debye-Ang)
        XX     -90.3555     XY       4.3992     YY     -91.0359
        XZ      -7.4491     YZ      -5.8332     ZZ     -93.8061

 Total job time:  54.32s(wall), 1974.49s(cpu)
        *  Thank you very much for using Q-Chem.  Have a nice day.  *
