 Q-Chem 5.4, Q-Chem, Inc., Pleasanton, CA (2021)
 Q-Chem 5.4.0 for Intel X86 EM64T Linux

User input:
--------------------------------------------------------------
$molecule
0 1
C	-0.153805	-0.823218	1.021526
S	0.004595	0.062182	2.532226
C	0.277095	1.613782	1.749126
C	0.003895	0.071182	-0.043174
C	0.243595	1.439182	0.343226
C	-0.006005	0.005582	-1.464574
C	0.213495	1.251182	-2.085374
S	0.426795	2.480282	-0.944174
C	0.262295	1.500982	-3.538474
O	0.103095	0.581182	-4.328774
O	0.488295	2.764082	-3.982874
F	-0.195605	-1.092318	-2.224774
C	0.560595	3.115582	-5.313474
H	0.752995	4.203682	-5.348774
H	-0.384505	2.886882	-5.854074
H	1.378095	2.575482	-5.840374
C	-0.153805	-2.258418	1.021526
H	-1.084805	-2.267418	1.568826
H	-0.572005	-2.942318	0.297826
H	0.325195	-2.782818	1.835126
H	0.436895	2.519782	2.343026
$end

$rem
JOBTYPE		SP
EXCHANGE	HF
CORRELATION	pRIMP2
BASIS		cc-pvtz
METHOD		rimp2
AUX_BASIS	rimp2-cc-pvtz
SOLVENT_METHOD	PCM
PURECART	11111
SYMMETRY	false
MEM_TOTAL	110000
SCF_CONVERGENCE = 6
THRESH=10
GUI = 2
$end

$solvent
dielectric 4.90
$end
--------------------------------------------------------------

             Standard Nuclear Orientation (Angstroms)
    I     Atom           X                Y                Z
 ----------------------------------------------------------------
    1      C      -0.1538050000    -0.8232180000     1.0215260000
    2      S       0.0045950000     0.0621820000     2.5322260000
    3      C       0.2770950000     1.6137820000     1.7491260000
    4      C       0.0038950000     0.0711820000    -0.0431740000
    5      C       0.2435950000     1.4391820000     0.3432260000
    6      C      -0.0060050000     0.0055820000    -1.4645740000
    7      C       0.2134950000     1.2511820000    -2.0853740000
    8      S       0.4267950000     2.4802820000    -0.9441740000
    9      C       0.2622950000     1.5009820000    -3.5384740000
   10      O       0.1030950000     0.5811820000    -4.3287740000
   11      O       0.4882950000     2.7640820000    -3.9828740000
   12      F      -0.1956050000    -1.0923180000    -2.2247740000
   13      C       0.5605950000     3.1155820000    -5.3134740000
   14      H       0.7529950000     4.2036820000    -5.3487740000
   15      H      -0.3845050000     2.8868820000    -5.8540740000
   16      H       1.3780950000     2.5754820000    -5.8403740000
   17      C      -0.1538050000    -2.2584180000     1.0215260000
   18      H      -1.0848050000    -2.2674180000     1.5688260000
   19      H      -0.5720050000    -2.9423180000     0.2978260000
   20      H       0.3251950000    -2.7828180000     1.8351260000
   21      H       0.4368950000     2.5197820000     2.3430260000
 ----------------------------------------------------------------

   11   -1389.2525679263      4.38e-07  Convergence criterion met
 Total energy in the final basis set =    -1389.2525679263
        RIMP2         total energy =     -1391.7558029795 a.u.

                    Orbital Energies (a.u.)
 --------------------------------------------------------------

 Alpha MOs
 -- Occupied --
-92.0070 -91.9877 -26.3335 -20.6092 -20.5453 -11.4060 -11.3760 -11.3166
-11.2909 -11.2876 -11.2871 -11.2776 -11.2668 -11.2330  -9.0058  -8.9919
 -6.6867  -6.6861  -6.6856  -6.6733  -6.6726  -6.6712  -1.6464  -1.4687
 -1.3635  -1.2259  -1.1467  -1.0662  -1.0281  -1.0060  -0.9675  -0.9110
 -0.8628  -0.7960  -0.7839  -0.7661  -0.7257  -0.7141  -0.6957  -0.6770
 -0.6762  -0.6669  -0.6099  -0.6029  -0.5943  -0.5859  -0.5831  -0.5603
 -0.5368  -0.5257  -0.5137  -0.4914  -0.4787  -0.4616  -0.4584  -0.4565
 -0.3911  -0.3467  -0.2739

          Ground-State Mulliken Net Atomic Charges

     Atom                 Charge (a.u.)
  ----------------------------------------
      1 C                     0.021519
      2 S                     0.077480
      3 C                    -0.264240
      4 C                    -0.070822
      5 C                    -0.018059
      6 C                     0.392443
      7 C                    -0.169470
      8 S                     0.022236
      9 C                     0.459224
     10 O                    -0.458109
     11 O                    -0.298847
     12 F                    -0.213268
     13 C                    -0.054958
     14 H                     0.115924
     15 H                     0.083551
     16 H                     0.083601
     17 C                    -0.376541
     18 H                     0.138290
     19 H                     0.169855
     20 H                     0.149183
     21 H                     0.211005
  ----------------------------------------
  Sum of atomic charges =     0.000000

                    Cartesian Multipole Moments
 -----------------------------------------------------------------
    Charge (ESU x 10^10)
                -0.0000
    Dipole Moment (Debye)
         X      -0.2297      Y       0.3853      Z       4.0870
       Tot       4.1115
    Quadrupole Moments (Debye-Ang)
        XX     -95.9650     XY       3.3935     YY     -82.2161
        XZ      -2.2893     YZ     -12.9779     ZZ     -95.9703

 Total job time:  55.11s(wall), 1945.10s(cpu)
        *  Thank you very much for using Q-Chem.  Have a nice day.  *
