 Q-Chem 5.4, Q-Chem, Inc., Pleasanton, CA (2021)
 Q-Chem 5.4.0 for Intel X86 EM64T Linux

User input:
--------------------------------------------------------------
$molecule
0 1
C	-0.302990	-0.782911	1.021526
S	0.006710	0.061489	2.532226
C	0.544510	1.542189	1.749126
C	0.007610	0.070589	-0.043174
C	0.481210	1.376089	0.343226
C	-0.013490	0.007589	-1.464574
C	0.418910	1.196189	-2.085374
S	0.842510	2.369589	-0.944174
C	0.510410	1.433689	-3.538474
O	0.193910	0.555489	-4.328774
O	0.952310	2.638389	-3.982874
F	-0.390890	-1.040711	-2.224774
C	1.084510	2.971989	-5.313474
H	1.463010	4.010189	-5.348774
H	0.114110	2.910889	-5.854074
H	1.795810	2.298089	-5.840374
C	-0.302990	-2.218111	1.021526
H	-1.233990	-2.227111	1.568826
H	-0.721190	-2.902011	0.297826
H	0.176010	-2.742511	1.835126
H	0.859210	2.406689	2.343026
$end

$rem
JOBTYPE		SP
EXCHANGE	HF
CORRELATION	pRIMP2
BASIS		cc-pvtz
METHOD		rimp2
AUX_BASIS	rimp2-cc-pvtz
SOLVENT_METHOD	PCM
PURECART	11111
SYMMETRY	false
MEM_TOTAL	110000
SCF_CONVERGENCE = 6
THRESH=10
GUI = 2
$end

$solvent
dielectric 4.90
$end
--------------------------------------------------------------

             Standard Nuclear Orientation (Angstroms)
    I     Atom           X                Y                Z
 ----------------------------------------------------------------
    1      C      -0.3029900000    -0.7829110000     1.0215260000
    2      S       0.0067100000     0.0614890000     2.5322260000
    3      C       0.5445100000     1.5421890000     1.7491260000
    4      C       0.0076100000     0.0705890000    -0.0431740000
    5      C       0.4812100000     1.3760890000     0.3432260000
    6      C      -0.0134900000     0.0075890000    -1.4645740000
    7      C       0.4189100000     1.1961890000    -2.0853740000
    8      S       0.8425100000     2.3695890000    -0.9441740000
    9      C       0.5104100000     1.4336890000    -3.5384740000
   10      O       0.1939100000     0.5554890000    -4.3287740000
   11      O       0.9523100000     2.6383890000    -3.9828740000
   12      F      -0.3908900000    -1.0407110000    -2.2247740000
   13      C       1.0845100000     2.9719890000    -5.3134740000
   14      H       1.4630100000     4.0101890000    -5.3487740000
   15      H       0.1141100000     2.9108890000    -5.8540740000
   16      H       1.7958100000     2.2980890000    -5.8403740000
   17      C      -0.3029900000    -2.2181110000     1.0215260000
   18      H      -1.2339900000    -2.2271110000     1.5688260000
   19      H      -0.7211900000    -2.9020110000     0.2978260000
   20      H       0.1760100000    -2.7425110000     1.8351260000
   21      H       0.8592100000     2.4066890000     2.3430260000
 ----------------------------------------------------------------

   11   -1389.2451218205      4.69e-07  Convergence criterion met
 Total energy in the final basis set =    -1389.2451218205
        RIMP2         total energy =     -1391.7510398754 a.u.

                    Orbital Energies (a.u.)
 --------------------------------------------------------------

 Alpha MOs
 -- Occupied --
-92.0071 -91.9884 -26.3333 -20.6096 -20.5459 -11.4065 -11.3756 -11.3125
-11.2911 -11.2889 -11.2872 -11.2803 -11.2676 -11.2307  -9.0060  -8.9927
 -6.6868  -6.6862  -6.6857  -6.6740  -6.6733  -6.6720  -1.6463  -1.4691
 -1.3640  -1.2263  -1.1469  -1.0658  -1.0283  -1.0055  -0.9677  -0.9106
 -0.8632  -0.7961  -0.7840  -0.7666  -0.7258  -0.7141  -0.6952  -0.6765
 -0.6764  -0.6673  -0.6096  -0.6032  -0.5930  -0.5864  -0.5846  -0.5599
 -0.5346  -0.5258  -0.5130  -0.4911  -0.4792  -0.4609  -0.4579  -0.4570
 -0.3899  -0.3465  -0.2744

          Ground-State Mulliken Net Atomic Charges

     Atom                 Charge (a.u.)
  ----------------------------------------
      1 C                     0.001337
      2 S                     0.080592
      3 C                    -0.256447
      4 C                    -0.057928
      5 C                    -0.017623
      6 C                     0.379601
      7 C                    -0.167153
      8 S                     0.025120
      9 C                     0.457980
     10 O                    -0.456793
     11 O                    -0.298732
     12 F                    -0.212095
     13 C                    -0.054817
     14 H                     0.115975
     15 H                     0.083725
     16 H                     0.083609
     17 C                    -0.374139
     18 H                     0.137045
     19 H                     0.168066
     20 H                     0.151470
     21 H                     0.211205
  ----------------------------------------
  Sum of atomic charges =     0.000000

                    Cartesian Multipole Moments
 -----------------------------------------------------------------
    Charge (ESU x 10^10)
                -0.0000
    Dipole Moment (Debye)
         X       0.2477      Y       0.5265      Z       4.0198
       Tot       4.0617
    Quadrupole Moments (Debye-Ang)
        XX     -95.0123     XY       4.8534     YY     -83.2747
        XZ      -4.0478     YZ     -12.2812     ZZ     -95.7221

 Total job time:  54.22s(wall), 1945.73s(cpu)
        *  Thank you very much for using Q-Chem.  Have a nice day.  *
