 Q-Chem 5.4, Q-Chem, Inc., Pleasanton, CA (2021)
 Q-Chem 5.4.0 for Intel X86 EM64T Linux

User input:
--------------------------------------------------------------
$molecule
0 1
C	-0.306208	-0.782911	1.024882
S	0.003492	0.061489	2.535582
C	0.541292	1.542189	1.752482
C	0.004392	0.070589	-0.039818
C	0.477992	1.376089	0.346582
C	-0.016708	0.007589	-1.461218
C	0.415692	1.196189	-2.082018
S	0.839292	2.369589	-0.940818
C	0.507192	1.433689	-3.535118
O	0.190692	0.555489	-4.325418
O	0.949092	2.638389	-3.979518
F	-0.394108	-1.040711	-2.221418
C	1.081292	2.971989	-5.310118
H	1.459792	4.010189	-5.345418
H	0.110892	2.910889	-5.850718
H	1.792592	2.298089	-5.837018
C	-0.306208	-2.218111	1.024882
H	0.381492	-2.227111	0.192182
H	0.334292	-2.902011	1.561882
H	-1.034608	-2.742511	0.424182
H	0.855992	2.406689	2.346382
$end

$rem
JOBTYPE		SP
EXCHANGE	HF
CORRELATION	pRIMP2
BASIS		cc-pvtz
METHOD		rimp2
AUX_BASIS	rimp2-cc-pvtz
SOLVENT_METHOD	PCM
PURECART	11111
SYMMETRY	false
MEM_TOTAL	110000
SCF_CONVERGENCE = 6
THRESH=10
GUI = 2
$end

$solvent
dielectric 4.90
$end
--------------------------------------------------------------

             Standard Nuclear Orientation (Angstroms)
    I     Atom           X                Y                Z
 ----------------------------------------------------------------
    1      C      -0.3062080000    -0.7829110000     1.0248820000
    2      S       0.0034920000     0.0614890000     2.5355820000
    3      C       0.5412920000     1.5421890000     1.7524820000
    4      C       0.0043920000     0.0705890000    -0.0398180000
    5      C       0.4779920000     1.3760890000     0.3465820000
    6      C      -0.0167080000     0.0075890000    -1.4612180000
    7      C       0.4156920000     1.1961890000    -2.0820180000
    8      S       0.8392920000     2.3695890000    -0.9408180000
    9      C       0.5071920000     1.4336890000    -3.5351180000
   10      O       0.1906920000     0.5554890000    -4.3254180000
   11      O       0.9490920000     2.6383890000    -3.9795180000
   12      F      -0.3941080000    -1.0407110000    -2.2214180000
   13      C       1.0812920000     2.9719890000    -5.3101180000
   14      H       1.4597920000     4.0101890000    -5.3454180000
   15      H       0.1108920000     2.9108890000    -5.8507180000
   16      H       1.7925920000     2.2980890000    -5.8370180000
   17      C      -0.3062080000    -2.2181110000     1.0248820000
   18      H       0.3814920000    -2.2271110000     0.1921820000
   19      H       0.3342920000    -2.9020110000     1.5618820000
   20      H      -1.0346080000    -2.7425110000     0.4241820000
   21      H       0.8559920000     2.4066890000     2.3463820000
 ----------------------------------------------------------------

   11   -1389.2460360492      4.91e-07  Convergence criterion met
 Total energy in the final basis set =    -1389.2460360492
        RIMP2         total energy =     -1391.7543265021 a.u.

                    Orbital Energies (a.u.)
 --------------------------------------------------------------

 Alpha MOs
 -- Occupied --
-92.0066 -91.9906 -26.3349 -20.6104 -20.5471 -11.4077 -11.3762 -11.3116
-11.2921 -11.2911 -11.2877 -11.2804 -11.2701 -11.2298  -9.0053  -8.9947
 -6.6860  -6.6854  -6.6850  -6.6760  -6.6754  -6.6740  -1.6480  -1.4699
 -1.3650  -1.2278  -1.1468  -1.0682  -1.0267  -1.0057  -0.9684  -0.9106
 -0.8634  -0.7955  -0.7856  -0.7666  -0.7263  -0.7160  -0.6971  -0.6780
 -0.6772  -0.6685  -0.6091  -0.6040  -0.5950  -0.5905  -0.5858  -0.5637
 -0.5390  -0.5245  -0.5052  -0.4845  -0.4748  -0.4657  -0.4599  -0.4574
 -0.3912  -0.3455  -0.2781

          Ground-State Mulliken Net Atomic Charges

     Atom                 Charge (a.u.)
  ----------------------------------------
      1 C                     0.033420
      2 S                     0.089631
      3 C                    -0.262902
      4 C                    -0.087068
      5 C                    -0.009063
      6 C                     0.365441
      7 C                    -0.159201
      8 S                     0.032618
      9 C                     0.457643
     10 O                    -0.455633
     11 O                    -0.298562
     12 F                    -0.212704
     13 C                    -0.054785
     14 H                     0.116204
     15 H                     0.083975
     16 H                     0.083685
     17 C                    -0.378509
     18 H                     0.134157
     19 H                     0.168354
     20 H                     0.143722
     21 H                     0.209576
  ----------------------------------------
  Sum of atomic charges =     0.000000

                    Cartesian Multipole Moments
 -----------------------------------------------------------------
    Charge (ESU x 10^10)
                -0.0000
    Dipole Moment (Debye)
         X       1.3582      Y       0.7277      Z       3.0587
       Tot       3.4249
    Quadrupole Moments (Debye-Ang)
        XX     -95.3771     XY       2.1021     YY     -83.3584
        XZ      -2.7859     YZ     -10.5059     ZZ     -97.3452

 Total job time:  54.39s(wall), 1961.27s(cpu)
        *  Thank you very much for using Q-Chem.  Have a nice day.  *
