 Q-Chem 5.4, Q-Chem, Inc., Pleasanton, CA (2021)
 Q-Chem 5.4.0 for Intel X86 EM64T Linux

User input:
--------------------------------------------------------------
$molecule
0 1
C	-0.678143	-0.518946	1.021878
S	0.012257	0.057454	2.532578
C	1.218357	1.070954	1.749478
C	0.017557	0.064854	-0.042822
C	1.080457	0.958754	0.343578
C	-0.032243	0.020954	-1.464222
C	0.936657	0.834054	-2.085022
S	1.890157	1.638454	-0.943822
C	1.134557	0.994054	-3.538122
O	0.421357	0.391754	-4.328422
O	2.119657	1.816354	-3.982522
F	-0.883143	-0.698246	-2.224422
C	2.400957	2.039154	-5.313122
H	3.247757	2.748954	-5.348422
H	1.529957	2.471454	-5.853722
H	2.679957	1.099854	-5.840022
C	-0.678143	-1.954146	1.021878
H	-1.690043	-1.963146	1.399178
H	-0.964343	-2.638046	0.236578
H	-0.347743	-2.478546	1.906278
H	1.923157	1.662254	2.343378
$end

$rem
JOBTYPE		SP
EXCHANGE	HF
CORRELATION	pRIMP2
BASIS		cc-pvtz
METHOD		rimp2
AUX_BASIS	rimp2-cc-pvtz
SOLVENT_METHOD	PCM
PURECART	11111
SYMMETRY	false
MEM_TOTAL	110000
SCF_CONVERGENCE = 6
THRESH=10
GUI = 2
$end

$solvent
dielectric 4.90
$end
--------------------------------------------------------------

             Standard Nuclear Orientation (Angstroms)
    I     Atom           X                Y                Z
 ----------------------------------------------------------------
    1      C      -0.6781430000    -0.5189460000     1.0218780000
    2      S       0.0122570000     0.0574540000     2.5325780000
    3      C       1.2183570000     1.0709540000     1.7494780000
    4      C       0.0175570000     0.0648540000    -0.0428220000
    5      C       1.0804570000     0.9587540000     0.3435780000
    6      C      -0.0322430000     0.0209540000    -1.4642220000
    7      C       0.9366570000     0.8340540000    -2.0850220000
    8      S       1.8901570000     1.6384540000    -0.9438220000
    9      C       1.1345570000     0.9940540000    -3.5381220000
   10      O       0.4213570000     0.3917540000    -4.3284220000
   11      O       2.1196570000     1.8163540000    -3.9825220000
   12      F      -0.8831430000    -0.6982460000    -2.2244220000
   13      C       2.4009570000     2.0391540000    -5.3131220000
   14      H       3.2477570000     2.7489540000    -5.3484220000
   15      H       1.5299570000     2.4714540000    -5.8537220000
   16      H       2.6799570000     1.0998540000    -5.8400220000
   17      C      -0.6781430000    -1.9541460000     1.0218780000
   18      H      -1.6900430000    -1.9631460000     1.3991780000
   19      H      -0.9643430000    -2.6380460000     0.2365780000
   20      H      -0.3477430000    -2.4785460000     1.9062780000
   21      H       1.9231570000     1.6622540000     2.3433780000
 ----------------------------------------------------------------

   11   -1389.1951298254      7.42e-07  Convergence criterion met
 Total energy in the final basis set =    -1389.1951298254
        RIMP2         total energy =     -1391.7160073191 a.u.

                    Orbital Energies (a.u.)
 --------------------------------------------------------------

 Alpha MOs
 -- Occupied --
-92.0050 -91.9946 -26.3328 -20.6121 -20.5506 -11.4105 -11.3736 -11.3001
-11.2983 -11.2925 -11.2885 -11.2832 -11.2754 -11.2176  -9.0044  -8.9985
 -6.6851  -6.6843  -6.6840  -6.6798  -6.6791  -6.6778  -1.6459  -1.4720
 -1.3674  -1.2305  -1.1502  -1.0660  -1.0298  -1.0021  -0.9698  -0.9069
 -0.8661  -0.7968  -0.7858  -0.7703  -0.7276  -0.7144  -0.6951  -0.6786
 -0.6739  -0.6704  -0.6084  -0.6063  -0.5944  -0.5902  -0.5787  -0.5598
 -0.5303  -0.5232  -0.5125  -0.4916  -0.4817  -0.4617  -0.4607  -0.4465
 -0.3800  -0.3447  -0.2766

          Ground-State Mulliken Net Atomic Charges

     Atom                 Charge (a.u.)
  ----------------------------------------
      1 C                    -0.093612
      2 S                     0.096202
      3 C                    -0.204792
      4 C                    -0.017063
      5 C                    -0.022304
      6 C                     0.362539
      7 C                    -0.149326
      8 S                     0.043373
      9 C                     0.456951
     10 O                    -0.448882
     11 O                    -0.297665
     12 F                    -0.211538
     13 C                    -0.054632
     14 H                     0.116627
     15 H                     0.084496
     16 H                     0.084372
     17 C                    -0.389898
     18 H                     0.132540
     19 H                     0.157744
     20 H                     0.140867
     21 H                     0.214005
  ----------------------------------------
  Sum of atomic charges =     0.000000

                    Cartesian Multipole Moments
 -----------------------------------------------------------------
    Charge (ESU x 10^10)
                -0.0000
    Dipole Moment (Debye)
         X       2.4964      Y       0.9929      Z       3.4363
       Tot       4.3619
    Quadrupole Moments (Debye-Ang)
        XX     -90.4152     XY       6.7167     YY     -89.0621
        XZ      -7.9063     YZ      -7.9748     ZZ     -93.9854

 Total job time:  58.12s(wall), 1989.59s(cpu)
        *  Thank you very much for using Q-Chem.  Have a nice day.  *
