 Q-Chem 5.4, Q-Chem, Inc., Pleasanton, CA (2021)
 Q-Chem 5.4.0 for Intel X86 EM64T Linux

User input:
--------------------------------------------------------------
$molecule
0 1
C	-0.446511	-0.717327	1.021287
S	0.005089	0.060473	2.531987
C	0.791889	1.425273	1.748887
C	0.007589	0.069273	-0.043413
C	0.700689	1.272673	0.342987
C	-0.024211	0.010873	-1.464813
C	0.608089	1.106373	-2.085613
S	1.228989	2.188373	-0.944413
C	0.739389	1.324373	-3.538713
O	0.275189	0.514473	-4.329013
O	1.383789	2.434073	-3.983113
F	-0.577811	-0.955927	-2.225013
C	1.571989	2.739673	-5.313713
H	2.124989	3.696273	-5.349013
H	0.605689	2.847873	-5.854313
H	2.155389	1.952473	-5.840613
C	-0.446511	-2.152527	1.021287
H	0.254089	-2.161527	1.843087
H	-1.086611	-2.836427	1.558887
H	0.271589	-2.676927	0.408287
H	1.251889	2.221973	2.342787
$end

$rem
JOBTYPE		SP
EXCHANGE	HF
CORRELATION	pRIMP2
BASIS		cc-pvtz
METHOD		rimp2
AUX_BASIS	rimp2-cc-pvtz
SOLVENT_METHOD	PCM
PURECART	11111
SYMMETRY	false
MEM_TOTAL	110000
SCF_CONVERGENCE = 6
THRESH=10
GUI = 2
$end

$solvent
dielectric 4.90
$end
--------------------------------------------------------------

             Standard Nuclear Orientation (Angstroms)
    I     Atom           X                Y                Z
 ----------------------------------------------------------------
    1      C      -0.4465110000    -0.7173270000     1.0212870000
    2      S       0.0050890000     0.0604730000     2.5319870000
    3      C       0.7918890000     1.4252730000     1.7488870000
    4      C       0.0075890000     0.0692730000    -0.0434130000
    5      C       0.7006890000     1.2726730000     0.3429870000
    6      C      -0.0242110000     0.0108730000    -1.4648130000
    7      C       0.6080890000     1.1063730000    -2.0856130000
    8      S       1.2289890000     2.1883730000    -0.9444130000
    9      C       0.7393890000     1.3243730000    -3.5387130000
   10      O       0.2751890000     0.5144730000    -4.3290130000
   11      O       1.3837890000     2.4340730000    -3.9831130000
   12      F      -0.5778110000    -0.9559270000    -2.2250130000
   13      C       1.5719890000     2.7396730000    -5.3137130000
   14      H       2.1249890000     3.6962730000    -5.3490130000
   15      H       0.6056890000     2.8478730000    -5.8543130000
   16      H       2.1553890000     1.9524730000    -5.8406130000
   17      C      -0.4465110000    -2.1525270000     1.0212870000
   18      H       0.2540890000    -2.1615270000     1.8430870000
   19      H      -1.0866110000    -2.8364270000     1.5588870000
   20      H       0.2715890000    -2.6769270000     0.4082870000
   21      H       1.2518890000     2.2219730000     2.3427870000
 ----------------------------------------------------------------

   11   -1389.2343429204      5.10e-07  Convergence criterion met
 Total energy in the final basis set =    -1389.2343429204
        RIMP2         total energy =     -1391.7435712289 a.u.

                    Orbital Energies (a.u.)
 --------------------------------------------------------------

 Alpha MOs
 -- Occupied --
-92.0033 -91.9903 -26.3333 -20.6109 -20.5481 -11.4084 -11.3757 -11.3057
-11.2932 -11.2912 -11.2879 -11.2865 -11.2722 -11.2270  -9.0028  -8.9945
 -6.6836  -6.6829  -6.6825  -6.6758  -6.6751  -6.6737  -1.6463  -1.4705
 -1.3656  -1.2285  -1.1494  -1.0660  -1.0297  -1.0039  -0.9688  -0.9077
 -0.8648  -0.7969  -0.7847  -0.7686  -0.7268  -0.7144  -0.6956  -0.6775
 -0.6761  -0.6685  -0.6091  -0.6047  -0.5998  -0.5881  -0.5712  -0.5650
 -0.5428  -0.5254  -0.5100  -0.4876  -0.4795  -0.4608  -0.4592  -0.4513
 -0.3939  -0.3451  -0.2778

          Ground-State Mulliken Net Atomic Charges

     Atom                 Charge (a.u.)
  ----------------------------------------
      1 C                     0.043275
      2 S                     0.078844
      3 C                    -0.243769
      4 C                    -0.109241
      5 C                    -0.012512
      6 C                     0.377689
      7 C                    -0.162897
      8 S                     0.030544
      9 C                     0.458344
     10 O                    -0.452931
     11 O                    -0.298228
     12 F                    -0.210462
     13 C                    -0.054835
     14 H                     0.116358
     15 H                     0.084172
     16 H                     0.084010
     17 C                    -0.379370
     18 H                     0.138103
     19 H                     0.153686
     20 H                     0.148108
     21 H                     0.211111
  ----------------------------------------
  Sum of atomic charges =     0.000000

                    Cartesian Multipole Moments
 -----------------------------------------------------------------
    Charge (ESU x 10^10)
                -0.0000
    Dipole Moment (Debye)
         X       1.9771      Y       0.8411      Z       3.9024
       Tot       4.4548
    Quadrupole Moments (Debye-Ang)
        XX     -94.3573     XY       3.4173     YY     -85.0728
        XZ      -5.2311     YZ     -11.8791     ZZ     -94.8590

 Total job time:  54.39s(wall), 1925.05s(cpu)
        *  Thank you very much for using Q-Chem.  Have a nice day.  *
