 Q-Chem 5.4, Q-Chem, Inc., Pleasanton, CA (2021)
 Q-Chem 5.4.0 for Intel X86 EM64T Linux

User input:
--------------------------------------------------------------
$molecule
0 1
C	-0.572919	-0.628442	1.021287
S	0.006981	0.059158	2.531987
C	1.018681	1.266558	1.748887
C	0.010881	0.067358	-0.043413
C	0.902381	1.132158	0.342987
C	-0.030519	0.015358	-1.464813
C	0.782381	0.984358	-2.085613
S	1.581681	1.942158	-0.944413
C	0.949481	1.176358	-3.538713
O	0.351781	0.459358	-4.329013
O	1.776781	2.157258	-3.983113
F	-0.743719	-0.840542	-2.225013
C	2.015181	2.425458	-5.313713
H	2.725881	3.271558	-5.349013
H	1.082381	2.699958	-5.854313
H	2.453081	1.548958	-5.840613
C	-0.572919	-2.063642	1.021287
H	0.127681	-2.072642	1.843087
H	-1.213019	-2.747542	1.558887
H	0.145181	-2.588042	0.408287
H	1.610181	1.971358	2.342787
$end

$rem
JOBTYPE		SP
EXCHANGE	HF
CORRELATION	pRIMP2
BASIS		cc-pvtz
METHOD		rimp2
AUX_BASIS	rimp2-cc-pvtz
SOLVENT_METHOD	PCM
PURECART	11111
SYMMETRY	false
MEM_TOTAL	110000
SCF_CONVERGENCE = 6
THRESH=10
GUI = 2
$end

$solvent
dielectric 4.90
$end
--------------------------------------------------------------

             Standard Nuclear Orientation (Angstroms)
    I     Atom           X                Y                Z
 ----------------------------------------------------------------
    1      C      -0.5729190000    -0.6284420000     1.0212870000
    2      S       0.0069810000     0.0591580000     2.5319870000
    3      C       1.0186810000     1.2665580000     1.7488870000
    4      C       0.0108810000     0.0673580000    -0.0434130000
    5      C       0.9023810000     1.1321580000     0.3429870000
    6      C      -0.0305190000     0.0153580000    -1.4648130000
    7      C       0.7823810000     0.9843580000    -2.0856130000
    8      S       1.5816810000     1.9421580000    -0.9444130000
    9      C       0.9494810000     1.1763580000    -3.5387130000
   10      O       0.3517810000     0.4593580000    -4.3290130000
   11      O       1.7767810000     2.1572580000    -3.9831130000
   12      F      -0.7437190000    -0.8405420000    -2.2250130000
   13      C       2.0151810000     2.4254580000    -5.3137130000
   14      H       2.7258810000     3.2715580000    -5.3490130000
   15      H       1.0823810000     2.6999580000    -5.8543130000
   16      H       2.4530810000     1.5489580000    -5.8406130000
   17      C      -0.5729190000    -2.0636420000     1.0212870000
   18      H       0.1276810000    -2.0726420000     1.8430870000
   19      H      -1.2130190000    -2.7475420000     1.5588870000
   20      H       0.1451810000    -2.5880420000     0.4082870000
   21      H       1.6101810000     1.9713580000     2.3427870000
 ----------------------------------------------------------------

   11   -1389.2176805611      5.79e-07  Convergence criterion met
 Total energy in the final basis set =    -1389.2176805611
        RIMP2         total energy =     -1391.7313924476 a.u.

                    Orbital Energies (a.u.)
 --------------------------------------------------------------

 Alpha MOs
 -- Occupied --
-92.0014 -91.9921 -26.3333 -20.6118 -20.5498 -11.4098 -11.3754 -11.2980
-11.2965 -11.2931 -11.2914 -11.2883 -11.2752 -11.2233  -9.0014  -8.9962
 -6.6821  -6.6814  -6.6810  -6.6775  -6.6768  -6.6755  -1.6463  -1.4715
 -1.3669  -1.2303  -1.1516  -1.0665  -1.0307  -1.0027  -0.9697  -0.9057
 -0.8660  -0.7975  -0.7853  -0.7700  -0.7276  -0.7146  -0.6958  -0.6782
 -0.6757  -0.6696  -0.6088  -0.6057  -0.6008  -0.5894  -0.5676  -0.5653
 -0.5420  -0.5262  -0.5114  -0.4883  -0.4801  -0.4614  -0.4604  -0.4456
 -0.3932  -0.3440  -0.2786

          Ground-State Mulliken Net Atomic Charges

     Atom                 Charge (a.u.)
  ----------------------------------------
      1 C                     0.014578
      2 S                     0.079688
      3 C                    -0.225698
      4 C                    -0.094576
      5 C                    -0.017344
      6 C                     0.373360
      7 C                    -0.156642
      8 S                     0.034875
      9 C                     0.457942
     10 O                    -0.450145
     11 O                    -0.297806
     12 F                    -0.209854
     13 C                    -0.054618
     14 H                     0.116529
     15 H                     0.084497
     16 H                     0.084191
     17 C                    -0.382667
     18 H                     0.138349
     19 H                     0.148554
     20 H                     0.144979
     21 H                     0.211808
  ----------------------------------------
  Sum of atomic charges =     0.000000

                    Cartesian Multipole Moments
 -----------------------------------------------------------------
    Charge (ESU x 10^10)
                -0.0000
    Dipole Moment (Debye)
         X       2.6852      Y       0.9550      Z       3.7223
       Tot       4.6880
    Quadrupole Moments (Debye-Ang)
        XX     -92.9960     XY       4.2031     YY     -87.0707
        XZ      -6.5998     YZ     -10.5767     ZZ     -94.2570

 Total job time:  55.79s(wall), 1884.82s(cpu)
        *  Thank you very much for using Q-Chem.  Have a nice day.  *
