 Q-Chem 5.4, Q-Chem, Inc., Pleasanton, CA (2021)
 Q-Chem 5.4.0 for Intel X86 EM64T Linux

User input:
--------------------------------------------------------------
$molecule
0 1
C	-0.002052	-0.836989	1.020573
S	0.000148	0.062411	2.531273
C	-0.000852	1.637711	1.748173
C	-0.002052	0.071211	-0.044127
C	-0.003552	1.460011	0.342273
C	-0.000452	0.004811	-1.465527
C	-0.000552	1.269711	-2.086327
S	-0.003852	2.517211	-0.945127
C	0.004148	1.524111	-3.539427
O	0.007148	0.590611	-4.329727
O	0.007348	2.807311	-3.983827
F	0.003448	-1.109289	-2.225727
C	0.017548	3.166011	-5.314427
H	0.018148	4.271011	-5.349727
H	-0.873452	2.776711	-5.855027
H	0.916448	2.776111	-5.841327
C	-0.002052	-2.272189	1.020573
H	0.006448	-2.281189	2.100473
H	-0.837952	-2.956089	1.020973
H	0.942048	-2.796589	1.012573
H	-0.000852	2.557811	2.342073
$end

$rem
JOBTYPE		SP
EXCHANGE	HF
CORRELATION	pRIMP2
BASIS		cc-pvtz
METHOD		rimp2
AUX_BASIS	rimp2-cc-pvtz
SOLVENT_METHOD	PCM
PURECART	11111
SYMMETRY	false
MEM_TOTAL	110000
SCF_CONVERGENCE = 6
THRESH=10
GUI = 2
$end

$solvent
dielectric 4.90
$end
--------------------------------------------------------------

             Standard Nuclear Orientation (Angstroms)
    I     Atom           X                Y                Z
 ----------------------------------------------------------------
    1      C      -0.0020520000    -0.8369890000     1.0205730000
    2      S       0.0001480000     0.0624110000     2.5312730000
    3      C      -0.0008520000     1.6377110000     1.7481730000
    4      C      -0.0020520000     0.0712110000    -0.0441270000
    5      C      -0.0035520000     1.4600110000     0.3422730000
    6      C      -0.0004520000     0.0048110000    -1.4655270000
    7      C      -0.0005520000     1.2697110000    -2.0863270000
    8      S      -0.0038520000     2.5172110000    -0.9451270000
    9      C       0.0041480000     1.5241110000    -3.5394270000
   10      O       0.0071480000     0.5906110000    -4.3297270000
   11      O       0.0073480000     2.8073110000    -3.9838270000
   12      F       0.0034480000    -1.1092890000    -2.2257270000
   13      C       0.0175480000     3.1660110000    -5.3144270000
   14      H       0.0181480000     4.2710110000    -5.3497270000
   15      H      -0.8734520000     2.7767110000    -5.8550270000
   16      H       0.9164480000     2.7761110000    -5.8413270000
   17      C      -0.0020520000    -2.2721890000     1.0205730000
   18      H       0.0064480000    -2.2811890000     2.1004730000
   19      H      -0.8379520000    -2.9560890000     1.0209730000
   20      H       0.9420480000    -2.7965890000     1.0125730000
   21      H      -0.0008520000     2.5578110000     2.3420730000
 ----------------------------------------------------------------

   11   -1389.2522618673      4.85e-07  Convergence criterion met
 Total energy in the final basis set =    -1389.2522618673
        RIMP2         total energy =     -1391.7585329443 a.u.

                    Orbital Energies (a.u.)
 --------------------------------------------------------------

 Alpha MOs
 -- Occupied --
-92.0101 -91.9899 -26.3329 -20.6104 -20.5473 -11.4077 -11.3750 -11.3071
-11.2915 -11.2915 -11.2876 -11.2840 -11.2689 -11.2284  -9.0087  -8.9941
 -6.6894  -6.6889  -6.6884  -6.6754  -6.6747  -6.6734  -1.6458  -1.4699
 -1.3650  -1.2267  -1.1467  -1.0649  -1.0298  -1.0054  -0.9685  -0.9100
 -0.8644  -0.7967  -0.7840  -0.7678  -0.7262  -0.7139  -0.6956  -0.6770
 -0.6762  -0.6679  -0.6087  -0.6042  -0.5973  -0.5873  -0.5742  -0.5693
 -0.5442  -0.5247  -0.5047  -0.4809  -0.4723  -0.4647  -0.4600  -0.4579
 -0.3961  -0.3463  -0.2826

          Ground-State Mulliken Net Atomic Charges

     Atom                 Charge (a.u.)
  ----------------------------------------
      1 C                     0.045346
      2 S                     0.084310
      3 C                    -0.257570
      4 C                    -0.090390
      5 C                    -0.008874
      6 C                     0.391209
      7 C                    -0.162858
      8 S                     0.029233
      9 C                     0.458876
     10 O                    -0.454541
     11 O                    -0.298407
     12 F                    -0.213961
     13 C                    -0.055000
     14 H                     0.116198
     15 H                     0.084001
     16 H                     0.083910
     17 C                    -0.366268
     18 H                     0.111263
     19 H                     0.152841
     20 H                     0.138241
     21 H                     0.212441
  ----------------------------------------
  Sum of atomic charges =     0.000000

                    Cartesian Multipole Moments
 -----------------------------------------------------------------
    Charge (ESU x 10^10)
                -0.0000
    Dipole Moment (Debye)
         X       0.0253      Y       1.1935      Z       4.1702
       Tot       4.3377
    Quadrupole Moments (Debye-Ang)
        XX     -95.8569     XY       0.1290     YY     -82.3045
        XZ      -0.0183     YZ     -13.4644     ZZ     -94.9349

 Total job time:  53.28s(wall), 1926.39s(cpu)
        *  Thank you very much for using Q-Chem.  Have a nice day.  *
