 Q-Chem 5.4, Q-Chem, Inc., Pleasanton, CA (2021)
 Q-Chem 5.4.0 for Intel X86 EM64T Linux

User input:
--------------------------------------------------------------
$molecule
0 1
C	-0.081315	-0.833466	1.023580
S	-0.000715	0.062334	2.534280
C	0.135485	1.631734	1.751180
C	-0.002215	0.071334	-0.041120
C	0.117385	1.454934	0.345280
C	-0.006315	0.005034	-1.462520
C	0.103785	1.265034	-2.083320
S	0.209185	2.508134	-0.942120
C	0.130585	1.518134	-3.536420
O	0.052185	0.587934	-4.326720
O	0.245685	2.796134	-3.980820
F	-0.099515	-1.105166	-2.222720
C	0.287085	3.152634	-5.311420
H	0.383985	4.253334	-5.346720
H	-0.634415	2.842434	-5.852020
H	1.148585	2.685834	-5.838320
C	-0.081315	-2.268666	1.023580
H	0.980785	-2.277666	0.827680
H	0.064185	-2.952566	1.846680
H	-0.253115	-2.793066	0.095180
H	0.215785	2.548234	2.345080
$end

$rem
JOBTYPE		SP
EXCHANGE	HF
CORRELATION	pRIMP2
BASIS		cc-pvtz
METHOD		rimp2
AUX_BASIS	rimp2-cc-pvtz
SOLVENT_METHOD	PCM
PURECART	11111
SYMMETRY	false
MEM_TOTAL	110000
SCF_CONVERGENCE = 6
THRESH=10
GUI = 2
$end

$solvent
dielectric 4.90
$end
--------------------------------------------------------------

             Standard Nuclear Orientation (Angstroms)
    I     Atom           X                Y                Z
 ----------------------------------------------------------------
    1      C      -0.0813150000    -0.8334660000     1.0235800000
    2      S      -0.0007150000     0.0623340000     2.5342800000
    3      C       0.1354850000     1.6317340000     1.7511800000
    4      C      -0.0022150000     0.0713340000    -0.0411200000
    5      C       0.1173850000     1.4549340000     0.3452800000
    6      C      -0.0063150000     0.0050340000    -1.4625200000
    7      C       0.1037850000     1.2650340000    -2.0833200000
    8      S       0.2091850000     2.5081340000    -0.9421200000
    9      C       0.1305850000     1.5181340000    -3.5364200000
   10      O       0.0521850000     0.5879340000    -4.3267200000
   11      O       0.2456850000     2.7961340000    -3.9808200000
   12      F      -0.0995150000    -1.1051660000    -2.2227200000
   13      C       0.2870850000     3.1526340000    -5.3114200000
   14      H       0.3839850000     4.2533340000    -5.3467200000
   15      H      -0.6344150000     2.8424340000    -5.8520200000
   16      H       1.1485850000     2.6858340000    -5.8383200000
   17      C      -0.0813150000    -2.2686660000     1.0235800000
   18      H       0.9807850000    -2.2776660000     0.8276800000
   19      H       0.0641850000    -2.9525660000     1.8466800000
   20      H      -0.2531150000    -2.7930660000     0.0951800000
   21      H       0.2157850000     2.5482340000     2.3450800000
 ----------------------------------------------------------------

   11   -1389.2575339587      4.15e-07  Convergence criterion met
 Total energy in the final basis set =    -1389.2575339587
        RIMP2         total energy =     -1391.7592587602 a.u.

                    Orbital Energies (a.u.)
 --------------------------------------------------------------

 Alpha MOs
 -- Occupied --
-92.0062 -91.9875 -26.3348 -20.6088 -20.5443 -11.4053 -11.3769 -11.3229
-11.2916 -11.2869 -11.2857 -11.2725 -11.2663 -11.2374  -9.0049  -8.9918
 -6.6858  -6.6852  -6.6847  -6.6731  -6.6724  -6.6711  -1.6477  -1.4682
 -1.3629  -1.2260  -1.1468  -1.0680  -1.0266  -1.0067  -0.9672  -0.9115
 -0.8621  -0.7957  -0.7844  -0.7654  -0.7258  -0.7153  -0.6967  -0.6774
 -0.6759  -0.6668  -0.6107  -0.6024  -0.5948  -0.5907  -0.5847  -0.5597
 -0.5342  -0.5233  -0.5168  -0.4950  -0.4778  -0.4630  -0.4585  -0.4559
 -0.3901  -0.3469  -0.2717

          Ground-State Mulliken Net Atomic Charges

     Atom                 Charge (a.u.)
  ----------------------------------------
      1 C                     0.053883
      2 S                     0.083178
      3 C                    -0.283309
      4 C                    -0.101708
      5 C                    -0.008715
      6 C                     0.394265
      7 C                    -0.172339
      8 S                     0.021799
      9 C                     0.460669
     10 O                    -0.460445
     11 O                    -0.299263
     12 F                    -0.214402
     13 C                    -0.055086
     14 H                     0.115890
     15 H                     0.083526
     16 H                     0.083296
     17 C                    -0.385745
     18 H                     0.152641
     19 H                     0.171481
     20 H                     0.151417
     21 H                     0.208966
  ----------------------------------------
  Sum of atomic charges =     0.000000

                    Cartesian Multipole Moments
 -----------------------------------------------------------------
    Charge (ESU x 10^10)
                -0.0000
    Dipole Moment (Debye)
         X       0.9395      Y      -0.0054      Z       3.6798
       Tot       3.7979
    Quadrupole Moments (Debye-Ang)
        XX     -96.6432     XY      -0.9414     YY     -81.6834
        XZ      -0.0820     YZ     -12.4643     ZZ     -97.3926

 Total job time:  62.43s(wall), 2443.82s(cpu)
        *  Thank you very much for using Q-Chem.  Have a nice day.  *
