 Q-Chem 5.4, Q-Chem, Inc., Pleasanton, CA (2021)
 Q-Chem 5.4.0 for Intel X86 EM64T Linux

User input:
--------------------------------------------------------------
$molecule
0 1
C	-0.374885	-0.753180	1.024825
S	0.007215	0.061020	2.535525
C	0.672015	1.489220	1.752425
C	0.008915	0.069920	-0.039875
C	0.594515	1.329320	0.346525
C	-0.017685	0.009120	-1.461275
C	0.516815	1.155520	-2.082075
S	1.041015	2.287520	-0.940875
C	0.628615	1.384120	-3.535175
O	0.236715	0.536820	-4.325475
O	1.173815	2.545720	-3.979575
F	-0.484985	-1.002280	-2.221475
C	1.334615	2.866520	-5.310175
H	1.802115	3.867720	-5.345475
H	0.362515	2.890220	-5.850775
H	1.984515	2.133220	-5.837075
C	-0.374885	-2.188380	1.024825
H	-0.922185	-2.197380	0.093825
H	0.348815	-2.872280	0.606625
H	-1.188485	-2.712780	1.503825
H	1.060915	2.323020	2.346325
$end

$rem
JOBTYPE		SP
EXCHANGE	HF
CORRELATION	pRIMP2
BASIS		cc-pvtz
METHOD		rimp2
AUX_BASIS	rimp2-cc-pvtz
SOLVENT_METHOD	PCM
PURECART	11111
SYMMETRY	false
MEM_TOTAL	110000
SCF_CONVERGENCE = 6
THRESH=10
GUI = 2
$end

$solvent
dielectric 4.90
$end
--------------------------------------------------------------

             Standard Nuclear Orientation (Angstroms)
    I     Atom           X                Y                Z
 ----------------------------------------------------------------
    1      C      -0.3748850000    -0.7531800000     1.0248250000
    2      S       0.0072150000     0.0610200000     2.5355250000
    3      C       0.6720150000     1.4892200000     1.7524250000
    4      C       0.0089150000     0.0699200000    -0.0398750000
    5      C       0.5945150000     1.3293200000     0.3465250000
    6      C      -0.0176850000     0.0091200000    -1.4612750000
    7      C       0.5168150000     1.1555200000    -2.0820750000
    8      S       1.0410150000     2.2875200000    -0.9408750000
    9      C       0.6286150000     1.3841200000    -3.5351750000
   10      O       0.2367150000     0.5368200000    -4.3254750000
   11      O       1.1738150000     2.5457200000    -3.9795750000
   12      F      -0.4849850000    -1.0022800000    -2.2214750000
   13      C       1.3346150000     2.8665200000    -5.3101750000
   14      H       1.8021150000     3.8677200000    -5.3454750000
   15      H       0.3625150000     2.8902200000    -5.8507750000
   16      H       1.9845150000     2.1332200000    -5.8370750000
   17      C      -0.3748850000    -2.1883800000     1.0248250000
   18      H      -0.9221850000    -2.1973800000     0.0938250000
   19      H       0.3488150000    -2.8722800000     0.6066250000
   20      H      -1.1884850000    -2.7127800000     1.5038250000
   21      H       1.0609150000     2.3230200000     2.3463250000
 ----------------------------------------------------------------

   11   -1389.2425688934      5.40e-07  Convergence criterion met
 Total energy in the final basis set =    -1389.2425688934
        RIMP2         total energy =     -1391.7532621493 a.u.

                    Orbital Energies (a.u.)
 --------------------------------------------------------------

 Alpha MOs
 -- Occupied --
-92.0034 -91.9920 -26.3349 -20.6113 -20.5488 -11.4091 -11.3762 -11.3024
-11.2942 -11.2923 -11.2882 -11.2874 -11.2746 -11.2258  -9.0025  -8.9961
 -6.6832  -6.6825  -6.6822  -6.6774  -6.6767  -6.6754  -1.6481  -1.4709
 -1.3662  -1.2286  -1.1459  -1.0675  -1.0273  -1.0054  -0.9689  -0.9110
 -0.8641  -0.7958  -0.7863  -0.7676  -0.7268  -0.7161  -0.6969  -0.6781
 -0.6779  -0.6695  -0.6074  -0.6051  -0.5976  -0.5893  -0.5758  -0.5669
 -0.5434  -0.5249  -0.5067  -0.4822  -0.4787  -0.4613  -0.4601  -0.4496
 -0.3941  -0.3451  -0.2816

          Ground-State Mulliken Net Atomic Charges

     Atom                 Charge (a.u.)
  ----------------------------------------
      1 C                     0.013816
      2 S                     0.088368
      3 C                    -0.241387
      4 C                    -0.095448
      5 C                    -0.014104
      6 C                     0.371649
      7 C                    -0.154104
      8 S                     0.035038
      9 C                     0.457639
     10 O                    -0.452795
     11 O                    -0.298063
     12 F                    -0.212724
     13 C                    -0.054746
     14 H                     0.116464
     15 H                     0.084151
     16 H                     0.084066
     17 C                    -0.361759
     18 H                     0.119765
     19 H                     0.160331
     20 H                     0.143326
     21 H                     0.210516
  ----------------------------------------
  Sum of atomic charges =     0.000000

                    Cartesian Multipole Moments
 -----------------------------------------------------------------
    Charge (ESU x 10^10)
                -0.0000
    Dipole Moment (Debye)
         X       0.9861      Y       1.1556      Z       2.8014
       Tot       3.1868
    Quadrupole Moments (Debye-Ang)
        XX     -94.1136     XY       4.7977     YY     -84.1110
        XZ      -4.8982     YZ      -9.5885     ZZ     -97.1056

 Total job time:  53.50s(wall), 1892.98s(cpu)
        *  Thank you very much for using Q-Chem.  Have a nice day.  *
