 Q-Chem 5.4, Q-Chem, Inc., Pleasanton, CA (2021)
 Q-Chem 5.4.0 for Intel X86 EM64T Linux

User input:
--------------------------------------------------------------
$molecule
0 1
C	-0.078388	-0.833466	1.025187
S	0.002212	0.062334	2.535887
C	0.138412	1.631734	1.752787
C	0.000712	0.071334	-0.039513
C	0.120312	1.454934	0.346887
C	-0.003388	0.005034	-1.460913
C	0.106712	1.265034	-2.081713
S	0.212112	2.508134	-0.940513
C	0.133512	1.518134	-3.534813
O	0.055112	0.587934	-4.325113
O	0.248612	2.796134	-3.979213
F	-0.096588	-1.105166	-2.221113
C	0.290012	3.152634	-5.309813
H	0.386912	4.253334	-5.345113
H	-0.631488	2.842434	-5.850413
H	1.151512	2.685834	-5.836713
C	-0.078388	-2.268666	1.025187
H	-0.274288	-2.277666	-0.036913
H	0.744712	-2.952566	0.879687
H	-1.006788	-2.793066	1.196987
H	0.218712	2.548234	2.346687
$end

$rem
JOBTYPE		SP
EXCHANGE	HF
CORRELATION	pRIMP2
BASIS		cc-pvtz
METHOD		rimp2
AUX_BASIS	rimp2-cc-pvtz
SOLVENT_METHOD	PCM
PURECART	11111
SYMMETRY	false
MEM_TOTAL	110000
SCF_CONVERGENCE = 6
THRESH=10
GUI = 2
$end

$solvent
dielectric 4.90
$end
--------------------------------------------------------------

             Standard Nuclear Orientation (Angstroms)
    I     Atom           X                Y                Z
 ----------------------------------------------------------------
    1      C      -0.0783880000    -0.8334660000     1.0251870000
    2      S       0.0022120000     0.0623340000     2.5358870000
    3      C       0.1384120000     1.6317340000     1.7527870000
    4      C       0.0007120000     0.0713340000    -0.0395130000
    5      C       0.1203120000     1.4549340000     0.3468870000
    6      C      -0.0033880000     0.0050340000    -1.4609130000
    7      C       0.1067120000     1.2650340000    -2.0817130000
    8      S       0.2121120000     2.5081340000    -0.9405130000
    9      C       0.1335120000     1.5181340000    -3.5348130000
   10      O       0.0551120000     0.5879340000    -4.3251130000
   11      O       0.2486120000     2.7961340000    -3.9792130000
   12      F      -0.0965880000    -1.1051660000    -2.2211130000
   13      C       0.2900120000     3.1526340000    -5.3098130000
   14      H       0.3869120000     4.2533340000    -5.3451130000
   15      H      -0.6314880000     2.8424340000    -5.8504130000
   16      H       1.1515120000     2.6858340000    -5.8367130000
   17      C      -0.0783880000    -2.2686660000     1.0251870000
   18      H      -0.2742880000    -2.2776660000    -0.0369130000
   19      H       0.7447120000    -2.9525660000     0.8796870000
   20      H      -1.0067880000    -2.7930660000     1.1969870000
   21      H       0.2187120000     2.5482340000     2.3466870000
 ----------------------------------------------------------------

   11   -1389.2541683829      5.01e-07  Convergence criterion met
 Total energy in the final basis set =    -1389.2541683829
        RIMP2         total energy =     -1391.7614600871 a.u.

                    Orbital Energies (a.u.)
 --------------------------------------------------------------

 Alpha MOs
 -- Occupied --
-92.0038 -91.9909 -26.3357 -20.6111 -20.5483 -11.4087 -11.3767 -11.3083
-11.2932 -11.2916 -11.2880 -11.2840 -11.2741 -11.2276  -9.0027  -8.9951
 -6.6835  -6.6828  -6.6825  -6.6763  -6.6757  -6.6743  -1.6490  -1.4707
 -1.3659  -1.2281  -1.1450  -1.0679  -1.0271  -1.0063  -0.9687  -0.9117
 -0.8639  -0.7960  -0.7867  -0.7673  -0.7269  -0.7168  -0.6975  -0.6785
 -0.6777  -0.6694  -0.6087  -0.6049  -0.5977  -0.5882  -0.5776  -0.5705
 -0.5447  -0.5249  -0.5049  -0.4813  -0.4721  -0.4630  -0.4605  -0.4528
 -0.3976  -0.3453  -0.2827

          Ground-State Mulliken Net Atomic Charges

     Atom                 Charge (a.u.)
  ----------------------------------------
      1 C                     0.044238
      2 S                     0.081010
      3 C                    -0.251304
      4 C                    -0.101857
      5 C                    -0.011470
      6 C                     0.379955
      7 C                    -0.147226
      8 S                     0.030178
      9 C                     0.458287
     10 O                    -0.454040
     11 O                    -0.298108
     12 F                    -0.214433
     13 C                    -0.055077
     14 H                     0.116495
     15 H                     0.084130
     16 H                     0.084021
     17 C                    -0.365015
     18 H                     0.114637
     19 H                     0.152000
     20 H                     0.143001
     21 H                     0.210576
  ----------------------------------------
  Sum of atomic charges =     0.000000

                    Cartesian Multipole Moments
 -----------------------------------------------------------------
    Charge (ESU x 10^10)
                -0.0000
    Dipole Moment (Debye)
         X       0.1198      Y       1.1530      Z       2.7697
       Tot       3.0025
    Quadrupole Moments (Debye-Ang)
        XX     -95.7701     XY       1.1928     YY     -82.1592
        XZ      -1.1771     YZ     -10.5126     ZZ     -97.6188

 Total job time:  53.43s(wall), 1950.74s(cpu)
        *  Thank you very much for using Q-Chem.  Have a nice day.  *
