 Q-Chem 5.4, Q-Chem, Inc., Pleasanton, CA (2021)
 Q-Chem 5.4.0 for Intel X86 EM64T Linux

User input:
--------------------------------------------------------------
$molecule
0 1
C	-0.153747	-0.823218	1.024233
S	0.004653	0.062182	2.534933
C	0.277153	1.613782	1.751833
C	0.003953	0.071182	-0.040467
C	0.243653	1.439182	0.345933
C	-0.005947	0.005582	-1.461867
C	0.213553	1.251182	-2.082667
S	0.426853	2.480282	-0.941467
C	0.262353	1.500982	-3.535767
O	0.103153	0.581182	-4.326067
O	0.488353	2.764082	-3.980167
F	-0.195547	-1.092318	-2.222067
C	0.560653	3.115582	-5.310767
H	0.753053	4.203682	-5.346067
H	-0.384447	2.886882	-5.851367
H	1.378153	2.575482	-5.837667
C	-0.153747	-2.258418	1.024233
H	-0.986447	-2.267418	0.336533
H	0.383253	-2.942318	0.383733
H	-0.754447	-2.782818	1.752633
H	0.436953	2.519782	2.345733
$end

$rem
JOBTYPE		SP
EXCHANGE	HF
CORRELATION	pRIMP2
BASIS		cc-pvtz
METHOD		rimp2
AUX_BASIS	rimp2-cc-pvtz
SOLVENT_METHOD	PCM
PURECART	11111
SYMMETRY	false
MEM_TOTAL	110000
SCF_CONVERGENCE = 6
THRESH=10
GUI = 2
$end

$solvent
dielectric 4.90
$end
--------------------------------------------------------------

             Standard Nuclear Orientation (Angstroms)
    I     Atom           X                Y                Z
 ----------------------------------------------------------------
    1      C      -0.1537470000    -0.8232180000     1.0242330000
    2      S       0.0046530000     0.0621820000     2.5349330000
    3      C       0.2771530000     1.6137820000     1.7518330000
    4      C       0.0039530000     0.0711820000    -0.0404670000
    5      C       0.2436530000     1.4391820000     0.3459330000
    6      C      -0.0059470000     0.0055820000    -1.4618670000
    7      C       0.2135530000     1.2511820000    -2.0826670000
    8      S       0.4268530000     2.4802820000    -0.9414670000
    9      C       0.2623530000     1.5009820000    -3.5357670000
   10      O       0.1031530000     0.5811820000    -4.3260670000
   11      O       0.4883530000     2.7640820000    -3.9801670000
   12      F      -0.1955470000    -1.0923180000    -2.2220670000
   13      C       0.5606530000     3.1155820000    -5.3107670000
   14      H       0.7530530000     4.2036820000    -5.3460670000
   15      H      -0.3844470000     2.8868820000    -5.8513670000
   16      H       1.3781530000     2.5754820000    -5.8376670000
   17      C      -0.1537470000    -2.2584180000     1.0242330000
   18      H      -0.9864470000    -2.2674180000     0.3365330000
   19      H       0.3832530000    -2.9423180000     0.3837330000
   20      H      -0.7544470000    -2.7828180000     1.7526330000
   21      H       0.4369530000     2.5197820000     2.3457330000
 ----------------------------------------------------------------

   11   -1389.2535785899      4.63e-07  Convergence criterion met
 Total energy in the final basis set =    -1389.2535785899
        RIMP2         total energy =     -1391.7589604501 a.u.

                    Orbital Energies (a.u.)
 --------------------------------------------------------------

 Alpha MOs
 -- Occupied --
-92.0060 -91.9893 -26.3347 -20.6098 -20.5462 -11.4069 -11.3764 -11.3145
-11.2918 -11.2892 -11.2874 -11.2782 -11.2694 -11.2317  -9.0047  -8.9935
 -6.6855  -6.6848  -6.6844  -6.6748  -6.6741  -6.6728  -1.6477  -1.4694
 -1.3643  -1.2268  -1.1457  -1.0675  -1.0268  -1.0065  -0.9679  -0.9117
 -0.8629  -0.7956  -0.7850  -0.7661  -0.7259  -0.7155  -0.6972  -0.6784
 -0.6767  -0.6678  -0.6094  -0.6035  -0.5944  -0.5867  -0.5819  -0.5641
 -0.5424  -0.5237  -0.5077  -0.4887  -0.4791  -0.4615  -0.4590  -0.4562
 -0.3915  -0.3460  -0.2762

          Ground-State Mulliken Net Atomic Charges

     Atom                 Charge (a.u.)
  ----------------------------------------
      1 C                     0.049577
      2 S                     0.085316
      3 C                    -0.268240
      4 C                    -0.108102
      5 C                    -0.008500
      6 C                     0.387332
      7 C                    -0.164321
      8 S                     0.026536
      9 C                     0.459375
     10 O                    -0.457381
     11 O                    -0.298700
     12 F                    -0.214210
     13 C                    -0.054938
     14 H                     0.116107
     15 H                     0.083680
     16 H                     0.083698
     17 C                    -0.372874
     18 H                     0.134104
     19 H                     0.163922
     20 H                     0.148191
     21 H                     0.209427
  ----------------------------------------
  Sum of atomic charges =     0.000000

                    Cartesian Multipole Moments
 -----------------------------------------------------------------
    Charge (ESU x 10^10)
                -0.0000
    Dipole Moment (Debye)
         X      -0.1343      Y       0.5742      Z       3.2032
       Tot       3.2570
    Quadrupole Moments (Debye-Ang)
        XX     -95.8400     XY       3.1520     YY     -82.2447
        XZ      -2.7530     YZ     -11.0838     ZZ     -97.5082

 Total job time:  54.13s(wall), 1973.54s(cpu)
        *  Thank you very much for using Q-Chem.  Have a nice day.  *
