 Q-Chem 5.4, Q-Chem, Inc., Pleasanton, CA (2021)
 Q-Chem 5.4.0 for Intel X86 EM64T Linux

User input:
--------------------------------------------------------------
$molecule
0 1
C	-0.305151	-0.782911	1.020573
S	0.004549	0.061489	2.531273
C	0.542349	1.542189	1.748173
C	0.005449	0.070589	-0.044127
C	0.479049	1.376089	0.342273
C	-0.015651	0.007589	-1.465527
C	0.416749	1.196189	-2.086327
S	0.840349	2.369589	-0.945127
C	0.508249	1.433689	-3.539427
O	0.191749	0.555489	-4.329727
O	0.950149	2.638389	-3.983827
F	-0.393051	-1.040711	-2.225727
C	1.082349	2.971989	-5.314427
H	1.460849	4.010189	-5.349727
H	0.111949	2.910889	-5.855027
H	1.793649	2.298089	-5.841327
C	-0.305151	-2.218111	1.020573
H	-0.296651	-2.227111	2.100473
H	-1.141051	-2.902011	1.020973
H	0.638949	-2.742511	1.012573
H	0.857049	2.406689	2.342073
$end

$rem
JOBTYPE		SP
EXCHANGE	HF
CORRELATION	pRIMP2
BASIS		cc-pvtz
METHOD		rimp2
AUX_BASIS	rimp2-cc-pvtz
SOLVENT_METHOD	PCM
PURECART	11111
SYMMETRY	false
MEM_TOTAL	110000
SCF_CONVERGENCE = 6
THRESH=10
GUI = 2
$end

$solvent
dielectric 4.90
$end
--------------------------------------------------------------

             Standard Nuclear Orientation (Angstroms)
    I     Atom           X                Y                Z
 ----------------------------------------------------------------
    1      C      -0.3051510000    -0.7829110000     1.0205730000
    2      S       0.0045490000     0.0614890000     2.5312730000
    3      C       0.5423490000     1.5421890000     1.7481730000
    4      C       0.0054490000     0.0705890000    -0.0441270000
    5      C       0.4790490000     1.3760890000     0.3422730000
    6      C      -0.0156510000     0.0075890000    -1.4655270000
    7      C       0.4167490000     1.1961890000    -2.0863270000
    8      S       0.8403490000     2.3695890000    -0.9451270000
    9      C       0.5082490000     1.4336890000    -3.5394270000
   10      O       0.1917490000     0.5554890000    -4.3297270000
   11      O       0.9501490000     2.6383890000    -3.9838270000
   12      F      -0.3930510000    -1.0407110000    -2.2257270000
   13      C       1.0823490000     2.9719890000    -5.3144270000
   14      H       1.4608490000     4.0101890000    -5.3497270000
   15      H       0.1119490000     2.9108890000    -5.8550270000
   16      H       1.7936490000     2.2980890000    -5.8413270000
   17      C      -0.3051510000    -2.2181110000     1.0205730000
   18      H      -0.2966510000    -2.2271110000     2.1004730000
   19      H      -1.1410510000    -2.9020110000     1.0209730000
   20      H       0.6389490000    -2.7425110000     1.0125730000
   21      H       0.8570490000     2.4066890000     2.3420730000
 ----------------------------------------------------------------

   11   -1389.2445592611      5.15e-07  Convergence criterion met
 Total energy in the final basis set =    -1389.2445592611
        RIMP2         total energy =     -1391.7532239831 a.u.

                    Orbital Energies (a.u.)
 --------------------------------------------------------------

 Alpha MOs
 -- Occupied --
-92.0095 -91.9907 -26.3328 -20.6107 -20.5480 -11.4083 -11.3747 -11.3031
-11.2930 -11.2917 -11.2878 -11.2868 -11.2700 -11.2269  -9.0082  -8.9949
 -6.6889  -6.6883  -6.6879  -6.6762  -6.6755  -6.6742  -1.6457  -1.4703
 -1.3655  -1.2274  -1.1476  -1.0650  -1.0301  -1.0047  -0.9688  -0.9090
 -0.8649  -0.7968  -0.7842  -0.7684  -0.7265  -0.7139  -0.6954  -0.6773
 -0.6757  -0.6683  -0.6090  -0.6046  -0.5973  -0.5878  -0.5738  -0.5683
 -0.5434  -0.5250  -0.5051  -0.4818  -0.4717  -0.4626  -0.4602  -0.4581
 -0.3955  -0.3458  -0.2833

          Ground-State Mulliken Net Atomic Charges

     Atom                 Charge (a.u.)
  ----------------------------------------
      1 C                     0.035124
      2 S                     0.086294
      3 C                    -0.249056
      4 C                    -0.094907
      5 C                    -0.006995
      6 C                     0.372643
      7 C                    -0.159207
      8 S                     0.033017
      9 C                     0.457146
     10 O                    -0.452946
     11 O                    -0.298241
     12 F                    -0.211951
     13 C                    -0.054813
     14 H                     0.116239
     15 H                     0.084155
     16 H                     0.083948
     17 C                    -0.358290
     18 H                     0.110944
     19 H                     0.153298
     20 H                     0.141057
     21 H                     0.212540
  ----------------------------------------
  Sum of atomic charges =     0.000000

                    Cartesian Multipole Moments
 -----------------------------------------------------------------
    Charge (ESU x 10^10)
                -0.0000
    Dipole Moment (Debye)
         X       1.0875      Y       1.2540      Z       4.0881
       Tot       4.4122
    Quadrupole Moments (Debye-Ang)
        XX     -94.8125     XY       3.3502     YY     -83.6736
        XZ      -3.7166     YZ     -12.6350     ZZ     -94.6613

 Total job time:  54.31s(wall), 1937.22s(cpu)
        *  Thank you very much for using Q-Chem.  Have a nice day.  *
