 Q-Chem 5.4, Q-Chem, Inc., Pleasanton, CA (2021)
 Q-Chem 5.4.0 for Intel X86 EM64T Linux

User input:
--------------------------------------------------------------
$molecule
0 1
C	-0.679309	-0.518946	1.020760
S	0.011091	0.057454	2.531460
C	1.217191	1.070954	1.748360
C	0.016391	0.064854	-0.043940
C	1.079291	0.958754	0.342460
C	-0.033409	0.020954	-1.465340
C	0.935491	0.834054	-2.086140
S	1.888991	1.638454	-0.944940
C	1.133391	0.994054	-3.539240
O	0.420191	0.391754	-4.329540
O	2.118491	1.816354	-3.983640
F	-0.884309	-0.698246	-2.225540
C	2.399791	2.039154	-5.314240
H	3.246591	2.748954	-5.349540
H	1.528791	2.471454	-5.854840
H	2.678791	1.099854	-5.841140
C	-0.679309	-1.954146	1.020760
H	-1.211909	-1.963146	1.960260
H	-1.403409	-2.638046	0.603160
H	0.142291	-2.478546	1.485860
H	1.921991	1.662254	2.342260
$end

$rem
JOBTYPE		SP
EXCHANGE	HF
CORRELATION	pRIMP2
BASIS		cc-pvtz
METHOD		rimp2
AUX_BASIS	rimp2-cc-pvtz
SOLVENT_METHOD	PCM
PURECART	11111
SYMMETRY	false
MEM_TOTAL	110000
SCF_CONVERGENCE = 6
THRESH=10
GUI = 2
$end

$solvent
dielectric 4.90
$end
--------------------------------------------------------------

             Standard Nuclear Orientation (Angstroms)
    I     Atom           X                Y                Z
 ----------------------------------------------------------------
    1      C      -0.6793090000    -0.5189460000     1.0207600000
    2      S       0.0110910000     0.0574540000     2.5314600000
    3      C       1.2171910000     1.0709540000     1.7483600000
    4      C       0.0163910000     0.0648540000    -0.0439400000
    5      C       1.0792910000     0.9587540000     0.3424600000
    6      C      -0.0334090000     0.0209540000    -1.4653400000
    7      C       0.9354910000     0.8340540000    -2.0861400000
    8      S       1.8889910000     1.6384540000    -0.9449400000
    9      C       1.1333910000     0.9940540000    -3.5392400000
   10      O       0.4201910000     0.3917540000    -4.3295400000
   11      O       2.1184910000     1.8163540000    -3.9836400000
   12      F      -0.8843090000    -0.6982460000    -2.2255400000
   13      C       2.3997910000     2.0391540000    -5.3142400000
   14      H       3.2465910000     2.7489540000    -5.3495400000
   15      H       1.5287910000     2.4714540000    -5.8548400000
   16      H       2.6787910000     1.0998540000    -5.8411400000
   17      C      -0.6793090000    -1.9541460000     1.0207600000
   18      H      -1.2119090000    -1.9631460000     1.9602600000
   19      H      -1.4034090000    -2.6380460000     0.6031600000
   20      H       0.1422910000    -2.4785460000     1.4858600000
   21      H       1.9219910000     1.6622540000     2.3422600000
 ----------------------------------------------------------------

   11   -1389.2032908888      7.52e-07  Convergence criterion met
 Total energy in the final basis set =    -1389.2032908888
        RIMP2         total energy =     -1391.7231123545 a.u.

                    Orbital Energies (a.u.)
 --------------------------------------------------------------

 Alpha MOs
 -- Occupied --
-92.0075 -91.9963 -26.3322 -20.6129 -20.5520 -11.4116 -11.3731 -11.3055
-11.3011 -11.2931 -11.2889 -11.2777 -11.2762 -11.2188  -9.0067  -9.0002
 -6.6873  -6.6866  -6.6863  -6.6814  -6.6808  -6.6795  -1.6453  -1.4728
 -1.3684  -1.2316  -1.1517  -1.0663  -1.0316  -1.0019  -0.9707  -0.9052
 -0.8674  -0.7977  -0.7859  -0.7716  -0.7282  -0.7140  -0.6958  -0.6791
 -0.6732  -0.6713  -0.6099  -0.6071  -0.5980  -0.5885  -0.5801  -0.5617
 -0.5318  -0.5275  -0.5078  -0.4839  -0.4682  -0.4624  -0.4609  -0.4558
 -0.3864  -0.3443  -0.2866

          Ground-State Mulliken Net Atomic Charges

     Atom                 Charge (a.u.)
  ----------------------------------------
      1 C                    -0.087312
      2 S                     0.100969
      3 C                    -0.195826
      4 C                    -0.023603
      5 C                    -0.021362
      6 C                     0.352390
      7 C                    -0.142698
      8 S                     0.048127
      9 C                     0.456531
     10 O                    -0.446146
     11 O                    -0.297332
     12 F                    -0.210628
     13 C                    -0.054610
     14 H                     0.116792
     15 H                     0.084758
     16 H                     0.084640
     17 C                    -0.365967
     18 H                     0.107328
     19 H                     0.146381
     20 H                     0.132110
     21 H                     0.215460
  ----------------------------------------
  Sum of atomic charges =     0.000000

                    Cartesian Multipole Moments
 -----------------------------------------------------------------
    Charge (ESU x 10^10)
                -0.0000
    Dipole Moment (Debye)
         X       3.1109      Y       1.3886      Z       3.5706
       Tot       4.9351
    Quadrupole Moments (Debye-Ang)
        XX     -90.2856     XY       6.2972     YY     -89.1298
        XZ      -7.6039     YZ      -8.3067     ZZ     -93.2131

 Total job time:  60.99s(wall), 2022.22s(cpu)
        *  Thank you very much for using Q-Chem.  Have a nice day.  *
