 Q-Chem 5.4, Q-Chem, Inc., Pleasanton, CA (2021)
 Q-Chem 5.4.0 for Intel X86 EM64T Linux

User input:
--------------------------------------------------------------
$molecule
0 1
C	-0.374317	-0.753180	1.024233
S	0.007783	0.061020	2.534933
C	0.672583	1.489220	1.751833
C	0.009483	0.069920	-0.040467
C	0.595083	1.329320	0.345933
C	-0.017117	0.009120	-1.461867
C	0.517383	1.155520	-2.082667
S	1.041583	2.287520	-0.941467
C	0.629183	1.384120	-3.535767
O	0.237283	0.536820	-4.326067
O	1.174383	2.545720	-3.980167
F	-0.484417	-1.002280	-2.222067
C	1.335183	2.866520	-5.310767
H	1.802683	3.867720	-5.346067
H	0.363083	2.890220	-5.851367
H	1.985083	2.133220	-5.837667
C	-0.374317	-2.188380	1.024233
H	-1.207017	-2.197380	0.336533
H	0.162683	-2.872280	0.383733
H	-0.975017	-2.712780	1.752633
H	1.061483	2.323020	2.345733
$end

$rem
JOBTYPE		SP
EXCHANGE	HF
CORRELATION	pRIMP2
BASIS		cc-pvtz
METHOD		rimp2
AUX_BASIS	rimp2-cc-pvtz
SOLVENT_METHOD	PCM
PURECART	11111
SYMMETRY	false
MEM_TOTAL	110000
SCF_CONVERGENCE = 6
THRESH=10
GUI = 2
$end

$solvent
dielectric 4.90
$end
--------------------------------------------------------------

             Standard Nuclear Orientation (Angstroms)
    I     Atom           X                Y                Z
 ----------------------------------------------------------------
    1      C      -0.3743170000    -0.7531800000     1.0242330000
    2      S       0.0077830000     0.0610200000     2.5349330000
    3      C       0.6725830000     1.4892200000     1.7518330000
    4      C       0.0094830000     0.0699200000    -0.0404670000
    5      C       0.5950830000     1.3293200000     0.3459330000
    6      C      -0.0171170000     0.0091200000    -1.4618670000
    7      C       0.5173830000     1.1555200000    -2.0826670000
    8      S       1.0415830000     2.2875200000    -0.9414670000
    9      C       0.6291830000     1.3841200000    -3.5357670000
   10      O       0.2372830000     0.5368200000    -4.3260670000
   11      O       1.1743830000     2.5457200000    -3.9801670000
   12      F      -0.4844170000    -1.0022800000    -2.2220670000
   13      C       1.3351830000     2.8665200000    -5.3107670000
   14      H       1.8026830000     3.8677200000    -5.3460670000
   15      H       0.3630830000     2.8902200000    -5.8513670000
   16      H       1.9850830000     2.1332200000    -5.8376670000
   17      C      -0.3743170000    -2.1883800000     1.0242330000
   18      H      -1.2070170000    -2.1973800000     0.3365330000
   19      H       0.1626830000    -2.8722800000     0.3837330000
   20      H      -0.9750170000    -2.7127800000     1.7526330000
   21      H       1.0614830000     2.3230200000     2.3457330000
 ----------------------------------------------------------------

   11   -1389.2418308125      5.15e-07  Convergence criterion met
 Total energy in the final basis set =    -1389.2418308125
        RIMP2         total energy =     -1391.7514306744 a.u.

                    Orbital Energies (a.u.)
 --------------------------------------------------------------

 Alpha MOs
 -- Occupied --
-92.0045 -91.9908 -26.3345 -20.6105 -20.5474 -11.4079 -11.3761 -11.3069
-11.2922 -11.2917 -11.2878 -11.2835 -11.2719 -11.2281  -9.0035  -8.9949
 -6.6842  -6.6836  -6.6832  -6.6762  -6.6756  -6.6742  -1.6475  -1.4701
 -1.3652  -1.2277  -1.1460  -1.0671  -1.0271  -1.0056  -0.9683  -0.9111
 -0.8635  -0.7957  -0.7854  -0.7669  -0.7262  -0.7155  -0.6965  -0.6780
 -0.6773  -0.6686  -0.6080  -0.6043  -0.5960  -0.5882  -0.5776  -0.5634
 -0.5423  -0.5240  -0.5085  -0.4883  -0.4801  -0.4607  -0.4589  -0.4524
 -0.3905  -0.3456  -0.2772

          Ground-State Mulliken Net Atomic Charges

     Atom                 Charge (a.u.)
  ----------------------------------------
      1 C                     0.025827
      2 S                     0.090488
      3 C                    -0.251836
      4 C                    -0.100528
      5 C                    -0.012561
      6 C                     0.371662
      7 C                    -0.159529
      8 S                     0.032253
      9 C                     0.457637
     10 O                    -0.454957
     11 O                    -0.298470
     12 F                    -0.212441
     13 C                    -0.054754
     14 H                     0.116282
     15 H                     0.083905
     16 H                     0.083847
     17 C                    -0.372632
     18 H                     0.133597
     19 H                     0.167241
     20 H                     0.145407
     21 H                     0.209561
  ----------------------------------------
  Sum of atomic charges =     0.000000

                    Cartesian Multipole Moments
 -----------------------------------------------------------------
    Charge (ESU x 10^10)
                -0.0000
    Dipole Moment (Debye)
         X       0.6608      Y       0.8085      Z       3.0766
       Tot       3.2490
    Quadrupole Moments (Debye-Ang)
        XX     -94.2472     XY       5.2609     YY     -84.0092
        XZ      -5.2417     YZ     -10.0465     ZZ     -97.0596

 Total job time:  53.44s(wall), 1929.55s(cpu)
        *  Thank you very much for using Q-Chem.  Have a nice day.  *
