 Q-Chem 5.4, Q-Chem, Inc., Pleasanton, CA (2021)
 Q-Chem 5.4.0 for Intel X86 EM64T Linux

User input:
--------------------------------------------------------------
$molecule
0 1
C	-0.443494	-0.717327	1.020958
S	0.008106	0.060473	2.531658
C	0.794906	1.425273	1.748558
C	0.010606	0.069273	-0.043742
C	0.703706	1.272673	0.342658
C	-0.021194	0.010873	-1.465142
C	0.611106	1.106373	-2.085942
S	1.232006	2.188373	-0.944742
C	0.742406	1.324373	-3.539042
O	0.278206	0.514473	-4.329342
O	1.386806	2.434073	-3.983442
F	-0.574794	-0.955927	-2.225342
C	1.575006	2.739673	-5.314042
H	2.128006	3.696273	-5.349342
H	0.608706	2.847873	-5.854642
H	2.158406	1.952473	-5.840942
C	-0.443494	-2.152527	1.020958
H	-1.131194	-2.161527	1.853658
H	-1.083994	-2.836427	0.483958
H	0.284906	-2.676927	1.621658
H	1.254906	2.221973	2.342458
$end

$rem
JOBTYPE		SP
EXCHANGE	HF
CORRELATION	pRIMP2
BASIS		cc-pvtz
METHOD		rimp2
AUX_BASIS	rimp2-cc-pvtz
SOLVENT_METHOD	PCM
PURECART	11111
SYMMETRY	false
MEM_TOTAL	110000
SCF_CONVERGENCE = 6
THRESH=10
GUI = 2
$end

$solvent
dielectric 4.90
$end
--------------------------------------------------------------

             Standard Nuclear Orientation (Angstroms)
    I     Atom           X                Y                Z
 ----------------------------------------------------------------
    1      C      -0.4434940000    -0.7173270000     1.0209580000
    2      S       0.0081060000     0.0604730000     2.5316580000
    3      C       0.7949060000     1.4252730000     1.7485580000
    4      C       0.0106060000     0.0692730000    -0.0437420000
    5      C       0.7037060000     1.2726730000     0.3426580000
    6      C      -0.0211940000     0.0108730000    -1.4651420000
    7      C       0.6111060000     1.1063730000    -2.0859420000
    8      S       1.2320060000     2.1883730000    -0.9447420000
    9      C       0.7424060000     1.3243730000    -3.5390420000
   10      O       0.2782060000     0.5144730000    -4.3293420000
   11      O       1.3868060000     2.4340730000    -3.9834420000
   12      F      -0.5747940000    -0.9559270000    -2.2253420000
   13      C       1.5750060000     2.7396730000    -5.3140420000
   14      H       2.1280060000     3.6962730000    -5.3493420000
   15      H       0.6087060000     2.8478730000    -5.8546420000
   16      H       2.1584060000     1.9524730000    -5.8409420000
   17      C      -0.4434940000    -2.1525270000     1.0209580000
   18      H      -1.1311940000    -2.1615270000     1.8536580000
   19      H      -1.0839940000    -2.8364270000     0.4839580000
   20      H       0.2849060000    -2.6769270000     1.6216580000
   21      H       1.2549060000     2.2219730000     2.3424580000
 ----------------------------------------------------------------

   11   -1389.2349168097      5.44e-07  Convergence criterion met
 Total energy in the final basis set =    -1389.2349168097
        RIMP2         total energy =     -1391.7456796255 a.u.

                    Orbital Energies (a.u.)
 --------------------------------------------------------------

 Alpha MOs
 -- Occupied --
-92.0082 -91.9908 -26.3328 -20.6107 -20.5480 -11.4083 -11.3746 -11.3012
-11.2930 -11.2918 -11.2884 -11.2878 -11.2701 -11.2259  -9.0071  -8.9950
 -6.6878  -6.6872  -6.6868  -6.6763  -6.6756  -6.6743  -1.6458  -1.4703
 -1.3655  -1.2277  -1.1478  -1.0651  -1.0295  -1.0044  -0.9687  -0.9091
 -0.8646  -0.7965  -0.7845  -0.7681  -0.7264  -0.7139  -0.6949  -0.6773
 -0.6752  -0.6685  -0.6094  -0.6046  -0.5944  -0.5875  -0.5823  -0.5618
 -0.5364  -0.5257  -0.5076  -0.4818  -0.4804  -0.4614  -0.4589  -0.4579
 -0.3903  -0.3461  -0.2796

          Ground-State Mulliken Net Atomic Charges

     Atom                 Charge (a.u.)
  ----------------------------------------
      1 C                    -0.023494
      2 S                     0.089057
      3 C                    -0.239335
      4 C                    -0.050369
      5 C                    -0.012929
      6 C                     0.362573
      7 C                    -0.157850
      8 S                     0.032785
      9 C                     0.457223
     10 O                    -0.453007
     11 O                    -0.298273
     12 F                    -0.210879
     13 C                    -0.054863
     14 H                     0.116319
     15 H                     0.084060
     16 H                     0.084048
     17 C                    -0.366322
     18 H                     0.120930
     19 H                     0.160692
     20 H                     0.147498
     21 H                     0.212136
  ----------------------------------------
  Sum of atomic charges =     0.000000

                    Cartesian Multipole Moments
 -----------------------------------------------------------------
    Charge (ESU x 10^10)
                -0.0000
    Dipole Moment (Debye)
         X       1.1749      Y       1.0466      Z       3.9543
       Tot       4.2559
    Quadrupole Moments (Debye-Ang)
        XX     -93.5516     XY       5.5877     YY     -85.0161
        XZ      -5.3883     YZ     -11.3478     ZZ     -94.7766

 Total job time:  54.36s(wall), 1944.80s(cpu)
        *  Thank you very much for using Q-Chem.  Have a nice day.  *
