 Q-Chem 5.4, Q-Chem, Inc., Pleasanton, CA (2021)
 Q-Chem 5.4.0 for Intel X86 EM64T Linux

User input:
--------------------------------------------------------------
$molecule
0 1
C	-0.378184	-0.753180	1.024315
S	0.003916	0.061020	2.535015
C	0.668716	1.489220	1.751915
C	0.005616	0.069920	-0.040385
C	0.591216	1.329320	0.346015
C	-0.020984	0.009120	-1.461785
C	0.513516	1.155520	-2.082585
S	1.037716	2.287520	-0.941385
C	0.625316	1.384120	-3.535685
O	0.233416	0.536820	-4.325985
O	1.170516	2.545720	-3.980085
F	-0.488284	-1.002280	-2.221985
C	1.331316	2.866520	-5.310685
H	1.798816	3.867720	-5.345985
H	0.359216	2.890220	-5.851285
H	1.981216	2.133220	-5.837585
C	-0.378184	-2.188380	1.024315
H	0.552816	-2.197380	0.477015
H	0.040016	-2.872280	1.748015
H	-0.857184	-2.712780	0.210715
H	1.057616	2.323020	2.345815
$end

$rem
JOBTYPE		SP
EXCHANGE	HF
CORRELATION	pRIMP2
BASIS		cc-pvtz
METHOD		rimp2
AUX_BASIS	rimp2-cc-pvtz
SOLVENT_METHOD	PCM
PURECART	11111
SYMMETRY	false
MEM_TOTAL	110000
SCF_CONVERGENCE = 6
THRESH=10
GUI = 2
$end

$solvent
dielectric 4.90
$end
--------------------------------------------------------------

             Standard Nuclear Orientation (Angstroms)
    I     Atom           X                Y                Z
 ----------------------------------------------------------------
    1      C      -0.3781840000    -0.7531800000     1.0243150000
    2      S       0.0039160000     0.0610200000     2.5350150000
    3      C       0.6687160000     1.4892200000     1.7519150000
    4      C       0.0056160000     0.0699200000    -0.0403850000
    5      C       0.5912160000     1.3293200000     0.3460150000
    6      C      -0.0209840000     0.0091200000    -1.4617850000
    7      C       0.5135160000     1.1555200000    -2.0825850000
    8      S       1.0377160000     2.2875200000    -0.9413850000
    9      C       0.6253160000     1.3841200000    -3.5356850000
   10      O       0.2334160000     0.5368200000    -4.3259850000
   11      O       1.1705160000     2.5457200000    -3.9800850000
   12      F      -0.4882840000    -1.0022800000    -2.2219850000
   13      C       1.3313160000     2.8665200000    -5.3106850000
   14      H       1.7988160000     3.8677200000    -5.3459850000
   15      H       0.3592160000     2.8902200000    -5.8512850000
   16      H       1.9812160000     2.1332200000    -5.8375850000
   17      C      -0.3781840000    -2.1883800000     1.0243150000
   18      H       0.5528160000    -2.1973800000     0.4770150000
   19      H       0.0400160000    -2.8722800000     1.7480150000
   20      H      -0.8571840000    -2.7127800000     0.2107150000
   21      H       1.0576160000     2.3230200000     2.3458150000
 ----------------------------------------------------------------

   11   -1389.2436682585      4.78e-07  Convergence criterion met
 Total energy in the final basis set =    -1389.2436682585
        RIMP2         total energy =     -1391.7513669582 a.u.

                    Orbital Energies (a.u.)
 --------------------------------------------------------------

 Alpha MOs
 -- Occupied --
-92.0076 -91.9899 -26.3346 -20.6097 -20.5459 -11.4067 -11.3762 -11.3153
-11.2925 -11.2890 -11.2874 -11.2779 -11.2676 -11.2328  -9.0062  -8.9941
 -6.6870  -6.6863  -6.6859  -6.6754  -6.6747  -6.6733  -1.6476  -1.4692
 -1.3641  -1.2276  -1.1482  -1.0683  -1.0265  -1.0054  -0.9680  -0.9099
 -0.8630  -0.7954  -0.7850  -0.7663  -0.7261  -0.7154  -0.6968  -0.6776
 -0.6767  -0.6679  -0.6095  -0.6033  -0.5958  -0.5910  -0.5855  -0.5615
 -0.5348  -0.5239  -0.5078  -0.4921  -0.4783  -0.4640  -0.4593  -0.4572
 -0.3886  -0.3463  -0.2744

          Ground-State Mulliken Net Atomic Charges

     Atom                 Charge (a.u.)
  ----------------------------------------
      1 C                     0.035330
      2 S                     0.093157
      3 C                    -0.271562
      4 C                    -0.092124
      5 C                    -0.006528
      6 C                     0.369783
      7 C                    -0.167769
      8 S                     0.032091
      9 C                     0.458009
     10 O                    -0.457488
     11 O                    -0.298959
     12 F                    -0.212088
     13 C                    -0.054772
     14 H                     0.116053
     15 H                     0.083748
     16 H                     0.083516
     17 C                    -0.381929
     18 H                     0.146644
     19 H                     0.170664
     20 H                     0.144991
     21 H                     0.209231
  ----------------------------------------
  Sum of atomic charges =     0.000000

                    Cartesian Multipole Moments
 -----------------------------------------------------------------
    Charge (ESU x 10^10)
                -0.0000
    Dipole Moment (Debye)
         X       1.6630      Y       0.3701      Z       3.3497
       Tot       3.7580
    Quadrupole Moments (Debye-Ang)
        XX     -95.2991     XY       2.4070     YY     -83.8993
        XZ      -3.5683     YZ     -10.6747     ZZ     -97.1837

 Total job time:  53.43s(wall), 1922.31s(cpu)
        *  Thank you very much for using Q-Chem.  Have a nice day.  *
