 Q-Chem 5.4, Q-Chem, Inc., Pleasanton, CA (2021)
 Q-Chem 5.4.0 for Intel X86 EM64T Linux

User input:
--------------------------------------------------------------
$molecule
0 1
C	-0.568947	-0.628442	1.022261
S	0.010953	0.059158	2.532961
C	1.022653	1.266558	1.749861
C	0.014853	0.067358	-0.042439
C	0.906353	1.132158	0.343961
C	-0.026547	0.015358	-1.463839
C	0.786353	0.984358	-2.084639
S	1.585653	1.942158	-0.943439
C	0.953453	1.176358	-3.537739
O	0.355753	0.459358	-4.328039
O	1.780753	2.157258	-3.982139
F	-0.739747	-0.840542	-2.224039
C	2.019153	2.425458	-5.312739
H	2.729853	3.271558	-5.348039
H	1.086353	2.699958	-5.853339
H	2.457053	1.548958	-5.839639
C	-0.568947	-2.063642	1.022261
H	-1.631047	-2.072642	1.218161
H	-0.714447	-2.747542	0.199161
H	-0.397147	-2.588042	1.950661
H	1.614153	1.971358	2.343761
$end

$rem
JOBTYPE		SP
EXCHANGE	HF
CORRELATION	pRIMP2
BASIS		cc-pvtz
METHOD		rimp2
AUX_BASIS	rimp2-cc-pvtz
SOLVENT_METHOD	PCM
PURECART	11111
SYMMETRY	false
MEM_TOTAL	110000
SCF_CONVERGENCE = 6
THRESH=10
GUI = 2
$end

$solvent
dielectric 4.90
$end
--------------------------------------------------------------

             Standard Nuclear Orientation (Angstroms)
    I     Atom           X                Y                Z
 ----------------------------------------------------------------
    1      C      -0.5689470000    -0.6284420000     1.0222610000
    2      S       0.0109530000     0.0591580000     2.5329610000
    3      C       1.0226530000     1.2665580000     1.7498610000
    4      C       0.0148530000     0.0673580000    -0.0424390000
    5      C       0.9063530000     1.1321580000     0.3439610000
    6      C      -0.0265470000     0.0153580000    -1.4638390000
    7      C       0.7863530000     0.9843580000    -2.0846390000
    8      S       1.5856530000     1.9421580000    -0.9434390000
    9      C       0.9534530000     1.1763580000    -3.5377390000
   10      O       0.3557530000     0.4593580000    -4.3280390000
   11      O       1.7807530000     2.1572580000    -3.9821390000
   12      F      -0.7397470000    -0.8405420000    -2.2240390000
   13      C       2.0191530000     2.4254580000    -5.3127390000
   14      H       2.7298530000     3.2715580000    -5.3480390000
   15      H       1.0863530000     2.6999580000    -5.8533390000
   16      H       2.4570530000     1.5489580000    -5.8396390000
   17      C      -0.5689470000    -2.0636420000     1.0222610000
   18      H      -1.6310470000    -2.0726420000     1.2181610000
   19      H      -0.7144470000    -2.7475420000     0.1991610000
   20      H      -0.3971470000    -2.5880420000     1.9506610000
   21      H       1.6141530000     1.9713580000     2.3437610000
 ----------------------------------------------------------------

   11   -1389.2154897608      5.91e-07  Convergence criterion met
 Total energy in the final basis set =    -1389.2154897608
        RIMP2         total energy =     -1391.7306241598 a.u.

                    Orbital Energies (a.u.)
 --------------------------------------------------------------

 Alpha MOs
 -- Occupied --
-92.0052 -91.9913 -26.3334 -20.6107 -20.5480 -11.4083 -11.3747 -11.2986
-11.2930 -11.2920 -11.2889 -11.2878 -11.2715 -11.2237  -9.0044  -8.9954
 -6.6852  -6.6844  -6.6840  -6.6767  -6.6760  -6.6747  -1.6464  -1.4704
 -1.3655  -1.2283  -1.1483  -1.0658  -1.0284  -1.0037  -0.9686  -0.9090
 -0.8643  -0.7962  -0.7851  -0.7681  -0.7265  -0.7146  -0.6947  -0.6774
 -0.6755  -0.6687  -0.6079  -0.6046  -0.5933  -0.5887  -0.5813  -0.5587
 -0.5307  -0.5223  -0.5173  -0.4944  -0.4804  -0.4607  -0.4588  -0.4504
 -0.3838  -0.3454  -0.2735

          Ground-State Mulliken Net Atomic Charges

     Atom                 Charge (a.u.)
  ----------------------------------------
      1 C                    -0.028697
      2 S                     0.092751
      3 C                    -0.237352
      4 C                    -0.060954
      5 C                    -0.012990
      6 C                     0.367820
      7 C                    -0.158501
      8 S                     0.035647
      9 C                     0.456697
     10 O                    -0.453460
     11 O                    -0.298342
     12 F                    -0.211535
     13 C                    -0.054660
     14 H                     0.116275
     15 H                     0.084065
     16 H                     0.083894
     17 C                    -0.382484
     18 H                     0.138038
     19 H                     0.164515
     20 H                     0.147471
     21 H                     0.211801
  ----------------------------------------
  Sum of atomic charges =     0.000000

                    Cartesian Multipole Moments
 -----------------------------------------------------------------
    Charge (ESU x 10^10)
                -0.0000
    Dipole Moment (Debye)
         X       1.3811      Y       0.7065      Z       3.6030
       Tot       3.9228
    Quadrupole Moments (Debye-Ang)
        XX     -92.1543     XY       6.7062     YY     -86.8023
        XZ      -7.1625     YZ      -9.4927     ZZ     -95.2340

 Total job time:  55.39s(wall), 1943.79s(cpu)
        *  Thank you very much for using Q-Chem.  Have a nice day.  *
