 Q-Chem 5.4, Q-Chem, Inc., Pleasanton, CA (2021)
 Q-Chem 5.4.0 for Intel X86 EM64T Linux

User input:
--------------------------------------------------------------
$molecule
0 1
C	-0.303500	-0.782911	1.024825
S	0.006200	0.061489	2.535525
C	0.544000	1.542189	1.752425
C	0.007100	0.070589	-0.039875
C	0.480700	1.376089	0.346525
C	-0.014000	0.007589	-1.461275
C	0.418400	1.196189	-2.082075
S	0.842000	2.369589	-0.940875
C	0.509900	1.433689	-3.535175
O	0.193400	0.555489	-4.325475
O	0.951800	2.638389	-3.979575
F	-0.391400	-1.040711	-2.221475
C	1.084000	2.971989	-5.310175
H	1.462500	4.010189	-5.345475
H	0.113600	2.910889	-5.850775
H	1.795300	2.298089	-5.837075
C	-0.303500	-2.218111	1.024825
H	-0.850800	-2.227111	0.093825
H	0.420200	-2.902011	0.606625
H	-1.117100	-2.742511	1.503825
H	0.858700	2.406689	2.346325
$end

$rem
JOBTYPE		SP
EXCHANGE	HF
CORRELATION	pRIMP2
BASIS		cc-pvtz
METHOD		rimp2
AUX_BASIS	rimp2-cc-pvtz
SOLVENT_METHOD	PCM
PURECART	11111
SYMMETRY	false
MEM_TOTAL	110000
SCF_CONVERGENCE = 6
THRESH=10
GUI = 2
$end

$solvent
dielectric 4.90
$end
--------------------------------------------------------------

             Standard Nuclear Orientation (Angstroms)
    I     Atom           X                Y                Z
 ----------------------------------------------------------------
    1      C      -0.3035000000    -0.7829110000     1.0248250000
    2      S       0.0062000000     0.0614890000     2.5355250000
    3      C       0.5440000000     1.5421890000     1.7524250000
    4      C       0.0071000000     0.0705890000    -0.0398750000
    5      C       0.4807000000     1.3760890000     0.3465250000
    6      C      -0.0140000000     0.0075890000    -1.4612750000
    7      C       0.4184000000     1.1961890000    -2.0820750000
    8      S       0.8420000000     2.3695890000    -0.9408750000
    9      C       0.5099000000     1.4336890000    -3.5351750000
   10      O       0.1934000000     0.5554890000    -4.3254750000
   11      O       0.9518000000     2.6383890000    -3.9795750000
   12      F      -0.3914000000    -1.0407110000    -2.2214750000
   13      C       1.0840000000     2.9719890000    -5.3101750000
   14      H       1.4625000000     4.0101890000    -5.3454750000
   15      H       0.1136000000     2.9108890000    -5.8507750000
   16      H       1.7953000000     2.2980890000    -5.8370750000
   17      C      -0.3035000000    -2.2181110000     1.0248250000
   18      H      -0.8508000000    -2.2271110000     0.0938250000
   19      H       0.4202000000    -2.9020110000     0.6066250000
   20      H      -1.1171000000    -2.7425110000     1.5038250000
   21      H       0.8587000000     2.4066890000     2.3463250000
 ----------------------------------------------------------------

   11   -1389.2470879725      5.19e-07  Convergence criterion met
 Total energy in the final basis set =    -1389.2470879725
        RIMP2         total energy =     -1391.7562464164 a.u.

                    Orbital Energies (a.u.)
 --------------------------------------------------------------

 Alpha MOs
 -- Occupied --
-92.0038 -91.9913 -26.3350 -20.6110 -20.5483 -11.4086 -11.3763 -11.3055
-11.2932 -11.2920 -11.2880 -11.2853 -11.2738 -11.2270  -9.0028  -8.9955
 -6.6836  -6.6829  -6.6825  -6.6767  -6.6761  -6.6747  -1.6481  -1.4706
 -1.3658  -1.2282  -1.1455  -1.0675  -1.0272  -1.0058  -0.9687  -0.9113
 -0.8639  -0.7958  -0.7862  -0.7673  -0.7266  -0.7161  -0.6970  -0.6782
 -0.6777  -0.6692  -0.6080  -0.6048  -0.5972  -0.5888  -0.5766  -0.5675
 -0.5438  -0.5247  -0.5062  -0.4821  -0.4784  -0.4613  -0.4600  -0.4516
 -0.3944  -0.3453  -0.2810

          Ground-State Mulliken Net Atomic Charges

     Atom                 Charge (a.u.)
  ----------------------------------------
      1 C                     0.024944
      2 S                     0.086537
      3 C                    -0.247676
      4 C                    -0.099620
      5 C                    -0.012614
      6 C                     0.375790
      7 C                    -0.155800
      8 S                     0.032806
      9 C                     0.458028
     10 O                    -0.453666
     11 O                    -0.298166
     12 F                    -0.213213
     13 C                    -0.054784
     14 H                     0.116365
     15 H                     0.084123
     16 H                     0.083948
     17 C                    -0.361988
     18 H                     0.120570
     19 H                     0.158911
     20 H                     0.145192
     21 H                     0.210313
  ----------------------------------------
  Sum of atomic charges =     0.000000

                    Cartesian Multipole Moments
 -----------------------------------------------------------------
    Charge (ESU x 10^10)
                -0.0000
    Dipole Moment (Debye)
         X       0.6716      Y       1.0809      Z       2.8470
       Tot       3.1185
    Quadrupole Moments (Debye-Ang)
        XX     -94.7295     XY       4.1618     YY     -83.3864
        XZ      -4.1274     YZ     -10.0119     ZZ     -97.2968

 Total job time:  56.31s(wall), 1932.83s(cpu)
        *  Thank you very much for using Q-Chem.  Have a nice day.  *
