 Q-Chem 5.4, Q-Chem, Inc., Pleasanton, CA (2021)
 Q-Chem 5.4.0 for Intel X86 EM64T Linux

User input:
--------------------------------------------------------------
$molecule
0 1
C	-0.001641	-0.836989	1.020565
S	0.000559	0.062411	2.531265
C	-0.000441	1.637711	1.748165
C	-0.001641	0.071211	-0.044135
C	-0.003141	1.460011	0.342265
C	-0.000041	0.004811	-1.465535
C	-0.000141	1.269711	-2.086335
S	-0.003441	2.517211	-0.945135
C	0.004559	1.524111	-3.539435
O	0.007559	0.590611	-4.329735
O	0.007759	2.807311	-3.983835
F	0.003859	-1.109289	-2.225735
C	0.017959	3.166011	-5.314435
H	0.018559	4.271011	-5.349735
H	-0.873041	2.776711	-5.855035
H	0.916859	2.776111	-5.841335
C	-0.001641	-2.272189	1.020565
H	-0.180841	-2.281189	2.085565
H	-0.824841	-2.956089	0.875765
H	0.929559	-2.796589	1.176665
H	-0.000441	2.557811	2.342065
$end

$rem
JOBTYPE		SP
EXCHANGE	HF
CORRELATION	pRIMP2
BASIS		cc-pvtz
METHOD		rimp2
AUX_BASIS	rimp2-cc-pvtz
SOLVENT_METHOD	PCM
PURECART	11111
SYMMETRY	false
MEM_TOTAL	110000
SCF_CONVERGENCE = 6
THRESH=10
GUI = 2
$end

$solvent
dielectric 4.90
$end
--------------------------------------------------------------

             Standard Nuclear Orientation (Angstroms)
    I     Atom           X                Y                Z
 ----------------------------------------------------------------
    1      C      -0.0016410000    -0.8369890000     1.0205650000
    2      S       0.0005590000     0.0624110000     2.5312650000
    3      C      -0.0004410000     1.6377110000     1.7481650000
    4      C      -0.0016410000     0.0712110000    -0.0441350000
    5      C      -0.0031410000     1.4600110000     0.3422650000
    6      C      -0.0000410000     0.0048110000    -1.4655350000
    7      C      -0.0001410000     1.2697110000    -2.0863350000
    8      S      -0.0034410000     2.5172110000    -0.9451350000
    9      C       0.0045590000     1.5241110000    -3.5394350000
   10      O       0.0075590000     0.5906110000    -4.3297350000
   11      O       0.0077590000     2.8073110000    -3.9838350000
   12      F       0.0038590000    -1.1092890000    -2.2257350000
   13      C       0.0179590000     3.1660110000    -5.3144350000
   14      H       0.0185590000     4.2710110000    -5.3497350000
   15      H      -0.8730410000     2.7767110000    -5.8550350000
   16      H       0.9168590000     2.7761110000    -5.8413350000
   17      C      -0.0016410000    -2.2721890000     1.0205650000
   18      H      -0.1808410000    -2.2811890000     2.0855650000
   19      H      -0.8248410000    -2.9560890000     0.8757650000
   20      H       0.9295590000    -2.7965890000     1.1766650000
   21      H      -0.0004410000     2.5578110000     2.3420650000
 ----------------------------------------------------------------

   11   -1389.2523182400      4.81e-07  Convergence criterion met
 Total energy in the final basis set =    -1389.2523182400
        RIMP2         total energy =     -1391.7583818941 a.u.

                    Orbital Energies (a.u.)
 --------------------------------------------------------------

 Alpha MOs
 -- Occupied --
-92.0099 -91.9898 -26.3329 -20.6103 -20.5472 -11.4076 -11.3750 -11.3076
-11.2914 -11.2914 -11.2876 -11.2837 -11.2688 -11.2286  -9.0085  -8.9940
 -6.6893  -6.6887  -6.6882  -6.6753  -6.6746  -6.6732  -1.6459  -1.4699
 -1.3649  -1.2267  -1.1467  -1.0650  -1.0298  -1.0054  -0.9684  -0.9100
 -0.8643  -0.7967  -0.7840  -0.7677  -0.7262  -0.7139  -0.6956  -0.6770
 -0.6763  -0.6678  -0.6089  -0.6041  -0.5971  -0.5873  -0.5732  -0.5701
 -0.5443  -0.5247  -0.5049  -0.4810  -0.4737  -0.4641  -0.4599  -0.4578
 -0.3959  -0.3463  -0.2821

          Ground-State Mulliken Net Atomic Charges

     Atom                 Charge (a.u.)
  ----------------------------------------
      1 C                     0.044176
      2 S                     0.083908
      3 C                    -0.257766
      4 C                    -0.089898
      5 C                    -0.009110
      6 C                     0.391068
      7 C                    -0.162983
      8 S                     0.028731
      9 C                     0.458953
     10 O                    -0.454692
     11 O                    -0.298423
     12 F                    -0.213892
     13 C                    -0.055000
     14 H                     0.116189
     15 H                     0.083976
     16 H                     0.083907
     17 C                    -0.366827
     18 H                     0.112551
     19 H                     0.156436
     20 H                     0.136328
     21 H                     0.212366
  ----------------------------------------
  Sum of atomic charges =     0.000000

                    Cartesian Multipole Moments
 -----------------------------------------------------------------
    Charge (ESU x 10^10)
                -0.0000
    Dipole Moment (Debye)
         X      -0.0901      Y       1.1571      Z       4.1734
       Tot       4.3317
    Quadrupole Moments (Debye-Ang)
        XX     -95.8799     XY       0.4328     YY     -82.2870
        XZ      -0.0132     YZ     -13.4529     ZZ     -94.9657

 Total job time:  53.37s(wall), 1941.29s(cpu)
        *  Thank you very much for using Q-Chem.  Have a nice day.  *
