 Q-Chem 5.4, Q-Chem, Inc., Pleasanton, CA (2021)
 Q-Chem 5.4.0 for Intel X86 EM64T Linux

User input:
--------------------------------------------------------------
$molecule
0 1
C	-0.376842	-0.753180	1.025213
S	0.005258	0.061020	2.535913
C	0.670058	1.489220	1.752813
C	0.006958	0.069920	-0.039487
C	0.592558	1.329320	0.346913
C	-0.019642	0.009120	-1.460887
C	0.514858	1.155520	-2.081687
S	1.039058	2.287520	-0.940487
C	0.626658	1.384120	-3.534787
O	0.234758	0.536820	-4.325087
O	1.171858	2.545720	-3.979187
F	-0.486942	-1.002280	-2.221087
C	1.332658	2.866520	-5.309787
H	1.800158	3.867720	-5.345087
H	0.360558	2.890220	-5.850387
H	1.982558	2.133220	-5.836687
C	-0.376842	-2.188380	1.025213
H	-0.015442	-2.197380	0.007513
H	0.408758	-2.872280	1.310713
H	-1.266742	-2.712780	0.709813
H	1.058958	2.323020	2.346713
$end

$rem
JOBTYPE		SP
EXCHANGE	HF
CORRELATION	pRIMP2
BASIS		cc-pvtz
METHOD		rimp2
AUX_BASIS	rimp2-cc-pvtz
SOLVENT_METHOD	PCM
PURECART	11111
SYMMETRY	false
MEM_TOTAL	110000
SCF_CONVERGENCE = 6
THRESH=10
GUI = 2
$end

$solvent
dielectric 4.90
$end
--------------------------------------------------------------

             Standard Nuclear Orientation (Angstroms)
    I     Atom           X                Y                Z
 ----------------------------------------------------------------
    1      C      -0.3768420000    -0.7531800000     1.0252130000
    2      S       0.0052580000     0.0610200000     2.5359130000
    3      C       0.6700580000     1.4892200000     1.7528130000
    4      C       0.0069580000     0.0699200000    -0.0394870000
    5      C       0.5925580000     1.3293200000     0.3469130000
    6      C      -0.0196420000     0.0091200000    -1.4608870000
    7      C       0.5148580000     1.1555200000    -2.0816870000
    8      S       1.0390580000     2.2875200000    -0.9404870000
    9      C       0.6266580000     1.3841200000    -3.5347870000
   10      O       0.2347580000     0.5368200000    -4.3250870000
   11      O       1.1718580000     2.5457200000    -3.9791870000
   12      F      -0.4869420000    -1.0022800000    -2.2210870000
   13      C       1.3326580000     2.8665200000    -5.3097870000
   14      H       1.8001580000     3.8677200000    -5.3450870000
   15      H       0.3605580000     2.8902200000    -5.8503870000
   16      H       1.9825580000     2.1332200000    -5.8366870000
   17      C      -0.3768420000    -2.1883800000     1.0252130000
   18      H      -0.0154420000    -2.1973800000     0.0075130000
   19      H       0.4087580000    -2.8722800000     1.3107130000
   20      H      -1.2667420000    -2.7127800000     0.7098130000
   21      H       1.0589580000     2.3230200000     2.3467130000
 ----------------------------------------------------------------

   11   -1389.2402460803      5.41e-07  Convergence criterion met
 Total energy in the final basis set =    -1389.2402460803
        RIMP2         total energy =     -1391.7514977835 a.u.

                    Orbital Energies (a.u.)
 --------------------------------------------------------------

 Alpha MOs
 -- Occupied --
-92.0050 -91.9923 -26.3353 -20.6114 -20.5489 -11.4092 -11.3760 -11.3035
-11.2946 -11.2921 -11.2882 -11.2866 -11.2738 -11.2257  -9.0039  -8.9963
 -6.6846  -6.6839  -6.6836  -6.6776  -6.6769  -6.6756  -1.6485  -1.4711
 -1.3663  -1.2290  -1.1466  -1.0683  -1.0272  -1.0050  -0.9691  -0.9103
 -0.8642  -0.7958  -0.7866  -0.7678  -0.7270  -0.7166  -0.6971  -0.6781
 -0.6779  -0.6698  -0.6075  -0.6051  -0.5976  -0.5893  -0.5843  -0.5651
 -0.5404  -0.5254  -0.5055  -0.4826  -0.4677  -0.4650  -0.4607  -0.4555
 -0.3940  -0.3446  -0.2826

          Ground-State Mulliken Net Atomic Charges

     Atom                 Charge (a.u.)
  ----------------------------------------
      1 C                     0.014673
      2 S                     0.090254
      3 C                    -0.245231
      4 C                    -0.084758
      5 C                    -0.011066
      6 C                     0.352624
      7 C                    -0.144405
      8 S                     0.037162
      9 C                     0.456610
     10 O                    -0.452560
     11 O                    -0.298053
     12 F                    -0.212216
     13 C                    -0.054757
     14 H                     0.116518
     15 H                     0.084212
     16 H                     0.084042
     17 C                    -0.365926
     18 H                     0.123692
     19 H                     0.163912
     20 H                     0.134888
     21 H                     0.210384
  ----------------------------------------
  Sum of atomic charges =     0.000000

                    Cartesian Multipole Moments
 -----------------------------------------------------------------
    Charge (ESU x 10^10)
                -0.0000
    Dipole Moment (Debye)
         X       1.5502      Y       1.1628      Z       2.7784
       Tot       3.3874
    Quadrupole Moments (Debye-Ang)
        XX     -94.4687     XY       3.2916     YY     -84.2051
        XZ      -3.8166     YZ      -9.6298     ZZ     -97.0789

 Total job time:  53.42s(wall), 1932.88s(cpu)
        *  Thank you very much for using Q-Chem.  Have a nice day.  *
