 Q-Chem 5.4, Q-Chem, Inc., Pleasanton, CA (2021)
 Q-Chem 5.4.0 for Intel X86 EM64T Linux

User input:
--------------------------------------------------------------
$molecule
0 1
C	-0.677915	-0.518946	1.022665
S	0.012485	0.057454	2.533365
C	1.218585	1.070954	1.750265
C	0.017785	0.064854	-0.042035
C	1.080685	0.958754	0.344365
C	-0.032015	0.020954	-1.463435
C	0.936885	0.834054	-2.084235
S	1.890385	1.638454	-0.943035
C	1.134785	0.994054	-3.537335
O	0.421585	0.391754	-4.327635
O	2.119885	1.816354	-3.981735
F	-0.882915	-0.698246	-2.223635
C	2.401185	2.039154	-5.312335
H	3.247985	2.748954	-5.347635
H	1.530185	2.471454	-5.852935
H	2.680185	1.099854	-5.839235
C	-0.677915	-1.954146	1.022665
H	-1.757815	-1.963146	1.031165
H	-0.678315	-2.638046	0.186765
H	-0.669915	-2.478546	1.966765
H	1.923385	1.662254	2.344165
$end

$rem
JOBTYPE		SP
EXCHANGE	HF
CORRELATION	pRIMP2
BASIS		cc-pvtz
METHOD		rimp2
AUX_BASIS	rimp2-cc-pvtz
SOLVENT_METHOD	PCM
PURECART	11111
SYMMETRY	false
MEM_TOTAL	110000
SCF_CONVERGENCE = 6
THRESH=10
GUI = 2
$end

$solvent
dielectric 4.90
$end
--------------------------------------------------------------

             Standard Nuclear Orientation (Angstroms)
    I     Atom           X                Y                Z
 ----------------------------------------------------------------
    1      C      -0.6779150000    -0.5189460000     1.0226650000
    2      S       0.0124850000     0.0574540000     2.5333650000
    3      C       1.2185850000     1.0709540000     1.7502650000
    4      C       0.0177850000     0.0648540000    -0.0420350000
    5      C       1.0806850000     0.9587540000     0.3443650000
    6      C      -0.0320150000     0.0209540000    -1.4634350000
    7      C       0.9368850000     0.8340540000    -2.0842350000
    8      S       1.8903850000     1.6384540000    -0.9430350000
    9      C       1.1347850000     0.9940540000    -3.5373350000
   10      O       0.4215850000     0.3917540000    -4.3276350000
   11      O       2.1198850000     1.8163540000    -3.9817350000
   12      F      -0.8829150000    -0.6982460000    -2.2236350000
   13      C       2.4011850000     2.0391540000    -5.3123350000
   14      H       3.2479850000     2.7489540000    -5.3476350000
   15      H       1.5301850000     2.4714540000    -5.8529350000
   16      H       2.6801850000     1.0998540000    -5.8392350000
   17      C      -0.6779150000    -1.9541460000     1.0226650000
   18      H      -1.7578150000    -1.9631460000     1.0311650000
   19      H      -0.6783150000    -2.6380460000     0.1867650000
   20      H      -0.6699150000    -2.4785460000     1.9667650000
   21      H       1.9233850000     1.6622540000     2.3441650000
 ----------------------------------------------------------------

   11   -1389.1940861106      7.36e-07  Convergence criterion met
 Total energy in the final basis set =    -1389.1940861106
        RIMP2         total energy =     -1391.7154652330 a.u.

                    Orbital Energies (a.u.)
 --------------------------------------------------------------

 Alpha MOs
 -- Occupied --
-92.0036 -91.9946 -26.3333 -20.6120 -20.5503 -11.4102 -11.3739 -11.2982
-11.2977 -11.2926 -11.2885 -11.2846 -11.2759 -11.2180  -9.0030  -8.9985
 -6.6838  -6.6829  -6.6827  -6.6797  -6.6791  -6.6778  -1.6464  -1.4718
 -1.3672  -1.2305  -1.1497  -1.0664  -1.0291  -1.0023  -0.9696  -0.9074
 -0.8656  -0.7965  -0.7860  -0.7699  -0.7274  -0.7149  -0.6952  -0.6785
 -0.6749  -0.6703  -0.6073  -0.6062  -0.5950  -0.5911  -0.5748  -0.5590
 -0.5328  -0.5197  -0.5174  -0.4952  -0.4816  -0.4616  -0.4606  -0.4435
 -0.3793  -0.3444  -0.2748

          Ground-State Mulliken Net Atomic Charges

     Atom                 Charge (a.u.)
  ----------------------------------------
      1 C                    -0.065269
      2 S                     0.099565
      3 C                    -0.211995
      4 C                    -0.045720
      5 C                    -0.018788
      6 C                     0.360109
      7 C                    -0.148798
      8 S                     0.044732
      9 C                     0.456382
     10 O                    -0.449619
     11 O                    -0.297778
     12 F                    -0.211517
     13 C                    -0.054630
     14 H                     0.116603
     15 H                     0.084433
     16 H                     0.084295
     17 C                    -0.391547
     18 H                     0.135485
     19 H                     0.160797
     20 H                     0.140592
     21 H                     0.212667
  ----------------------------------------
  Sum of atomic charges =     0.000000

                    Cartesian Multipole Moments
 -----------------------------------------------------------------
    Charge (ESU x 10^10)
                -0.0000
    Dipole Moment (Debye)
         X       2.3508      Y       0.8880      Z       3.2597
       Tot       4.1159
    Quadrupole Moments (Debye-Ang)
        XX     -90.4381     XY       6.7694     YY     -89.0080
        XZ      -8.1902     YZ      -7.7004     ZZ     -94.5113

 Total job time:  87.50s(wall), 2147.50s(cpu)
        *  Thank you very much for using Q-Chem.  Have a nice day.  *
