 Q-Chem 5.4, Q-Chem, Inc., Pleasanton, CA (2021)
 Q-Chem 5.4.0 for Intel X86 EM64T Linux

User input:
--------------------------------------------------------------
$molecule
0 1
C	-0.766525	-0.392188	1.021878
S	0.013475	0.055612	2.532578
C	1.377275	0.844212	1.749478
C	0.019975	0.061912	-0.042822
C	1.221975	0.757612	0.343578
C	-0.036625	0.027312	-1.464222
C	1.058675	0.659812	-2.085022
S	2.137375	1.286512	-0.943822
C	1.281375	0.783012	-3.538122
O	0.474475	0.313712	-4.328422
O	2.394275	1.421812	-3.982522
F	-0.999525	-0.533088	-2.224422
C	2.709975	1.592412	-5.313122
H	3.667175	2.144312	-5.348422
H	1.927275	2.169312	-5.853722
H	2.821675	0.618912	-5.840022
C	-0.766525	-1.827388	1.021878
H	-1.778425	-1.836388	1.399178
H	-1.052725	-2.511288	0.236578
H	-0.436125	-2.351788	1.906278
H	2.174075	1.304112	2.343378
$end

$rem
JOBTYPE		SP
EXCHANGE	HF
CORRELATION	pRIMP2
BASIS		cc-pvtz
METHOD		rimp2
AUX_BASIS	rimp2-cc-pvtz
SOLVENT_METHOD	PCM
PURECART	11111
SYMMETRY	false
MEM_TOTAL	110000
SCF_CONVERGENCE = 6
THRESH=10
GUI = 2
$end

$solvent
dielectric 4.90
$end
--------------------------------------------------------------

             Standard Nuclear Orientation (Angstroms)
    I     Atom           X                Y                Z
 ----------------------------------------------------------------
    1      C      -0.7665250000    -0.3921880000     1.0218780000
    2      S       0.0134750000     0.0556120000     2.5325780000
    3      C       1.3772750000     0.8442120000     1.7494780000
    4      C       0.0199750000     0.0619120000    -0.0428220000
    5      C       1.2219750000     0.7576120000     0.3435780000
    6      C      -0.0366250000     0.0273120000    -1.4642220000
    7      C       1.0586750000     0.6598120000    -2.0850220000
    8      S       2.1373750000     1.2865120000    -0.9438220000
    9      C       1.2813750000     0.7830120000    -3.5381220000
   10      O       0.4744750000     0.3137120000    -4.3284220000
   11      O       2.3942750000     1.4218120000    -3.9825220000
   12      F      -0.9995250000    -0.5330880000    -2.2244220000
   13      C       2.7099750000     1.5924120000    -5.3131220000
   14      H       3.6671750000     2.1443120000    -5.3484220000
   15      H       1.9272750000     2.1693120000    -5.8537220000
   16      H       2.8216750000     0.6189120000    -5.8400220000
   17      C      -0.7665250000    -1.8273880000     1.0218780000
   18      H      -1.7784250000    -1.8363880000     1.3991780000
   19      H      -1.0527250000    -2.5112880000     0.2365780000
   20      H      -0.4361250000    -2.3517880000     1.9062780000
   21      H       2.1740750000     1.3041120000     2.3433780000
 ----------------------------------------------------------------

   11   -1389.1701855865      9.68e-07  Convergence criterion met
 Total energy in the final basis set =    -1389.1701855865
        RIMP2         total energy =     -1391.6957447930 a.u.

                    Orbital Energies (a.u.)
 --------------------------------------------------------------

 Alpha MOs
 -- Occupied --
-92.0042 -91.9988 -26.3324 -20.6138 -20.5537 -11.4130 -11.3725 -11.3127
-11.3046 -11.2934 -11.2894 -11.2809 -11.2644 -11.2118  -9.0039  -9.0026
 -6.6845  -6.6837  -6.6836  -6.6835  -6.6832  -6.6819  -1.6455  -1.4738
 -1.3697  -1.2337  -1.1531  -1.0675  -1.0315  -1.0007  -0.9714  -0.9043
 -0.8681  -0.7977  -0.7870  -0.7728  -0.7291  -0.7145  -0.6964  -0.6799
 -0.6732  -0.6722  -0.6095  -0.6085  -0.5962  -0.5919  -0.5742  -0.5606
 -0.5317  -0.5226  -0.5109  -0.4903  -0.4827  -0.4630  -0.4628  -0.4405
 -0.3735  -0.3436  -0.2798

          Ground-State Mulliken Net Atomic Charges

     Atom                 Charge (a.u.)
  ----------------------------------------
      1 C                    -0.160918
      2 S                     0.103014
      3 C                    -0.169251
      4 C                     0.023248
      5 C                    -0.036317
      6 C                     0.357712
      7 C                    -0.137356
      8 S                     0.054551
      9 C                     0.457045
     10 O                    -0.443578
     11 O                    -0.296900
     12 F                    -0.211780
     13 C                    -0.054760
     14 H                     0.117033
     15 H                     0.085159
     16 H                     0.084840
     17 C                    -0.400131
     18 H                     0.130543
     19 H                     0.151835
     20 H                     0.129537
     21 H                     0.216474
  ----------------------------------------
  Sum of atomic charges =     0.000000

                    Cartesian Multipole Moments
 -----------------------------------------------------------------
    Charge (ESU x 10^10)
                -0.0000
    Dipole Moment (Debye)
         X       3.7860      Y       1.0449      Z       3.1121
       Tot       5.0111
    Quadrupole Moments (Debye-Ang)
        XX     -88.7169     XY       6.2983     YY     -91.2733
        XZ      -8.3852     YZ      -6.1754     ZZ     -92.7027

 Total job time:  57.57s(wall), 2206.27s(cpu)
        *  Thank you very much for using Q-Chem.  Have a nice day.  *
