 Q-Chem 5.4, Q-Chem, Inc., Pleasanton, CA (2021)
 Q-Chem 5.4.0 for Intel X86 EM64T Linux

User input:
--------------------------------------------------------------
$molecule
0 1
C	-0.078485	-0.833466	1.020627
S	0.002115	0.062334	2.531327
C	0.138315	1.631734	1.748227
C	0.000615	0.071334	-0.044073
C	0.120215	1.454934	0.342327
C	-0.003485	0.005034	-1.465473
C	0.106615	1.265034	-2.086273
S	0.212015	2.508134	-0.945073
C	0.133415	1.518134	-3.539373
O	0.055015	0.587934	-4.329673
O	0.248515	2.796134	-3.983773
F	-0.096685	-1.105166	-2.225673
C	0.289915	3.152634	-5.314373
H	0.386815	4.253334	-5.349673
H	-0.631585	2.842434	-5.854973
H	1.151415	2.685834	-5.841273
C	-0.078485	-2.268666	1.020627
H	-0.439885	-2.277666	2.038327
H	-0.864085	-2.952566	0.735127
H	0.811415	-2.793066	1.336027
H	0.218615	2.548234	2.342127
$end

$rem
JOBTYPE		SP
EXCHANGE	HF
CORRELATION	pRIMP2
BASIS		cc-pvtz
METHOD		rimp2
AUX_BASIS	rimp2-cc-pvtz
SOLVENT_METHOD	PCM
PURECART	11111
SYMMETRY	false
MEM_TOTAL	110000
SCF_CONVERGENCE = 6
THRESH=10
GUI = 2
$end

$solvent
dielectric 4.90
$end
--------------------------------------------------------------

             Standard Nuclear Orientation (Angstroms)
    I     Atom           X                Y                Z
 ----------------------------------------------------------------
    1      C      -0.0784850000    -0.8334660000     1.0206270000
    2      S       0.0021150000     0.0623340000     2.5313270000
    3      C       0.1383150000     1.6317340000     1.7482270000
    4      C       0.0006150000     0.0713340000    -0.0440730000
    5      C       0.1202150000     1.4549340000     0.3423270000
    6      C      -0.0034850000     0.0050340000    -1.4654730000
    7      C       0.1066150000     1.2650340000    -2.0862730000
    8      S       0.2120150000     2.5081340000    -0.9450730000
    9      C       0.1334150000     1.5181340000    -3.5393730000
   10      O       0.0550150000     0.5879340000    -4.3296730000
   11      O       0.2485150000     2.7961340000    -3.9837730000
   12      F      -0.0966850000    -1.1051660000    -2.2256730000
   13      C       0.2899150000     3.1526340000    -5.3143730000
   14      H       0.3868150000     4.2533340000    -5.3496730000
   15      H      -0.6315850000     2.8424340000    -5.8549730000
   16      H       1.1514150000     2.6858340000    -5.8412730000
   17      C      -0.0784850000    -2.2686660000     1.0206270000
   18      H      -0.4398850000    -2.2776660000     2.0383270000
   19      H      -0.8640850000    -2.9525660000     0.7351270000
   20      H       0.8114150000    -2.7930660000     1.3360270000
   21      H       0.2186150000     2.5482340000     2.3421270000
 ----------------------------------------------------------------

   11   -1389.2523360415      4.76e-07  Convergence criterion met
 Total energy in the final basis set =    -1389.2523360415
        RIMP2         total energy =     -1391.7580842139 a.u.

                    Orbital Energies (a.u.)
 --------------------------------------------------------------

 Alpha MOs
 -- Occupied --
-92.0096 -91.9895 -26.3330 -20.6102 -20.5470 -11.4075 -11.3751 -11.3086
-11.2914 -11.2910 -11.2875 -11.2832 -11.2686 -11.2290  -9.0082  -8.9937
 -6.6889  -6.6884  -6.6879  -6.6750  -6.6743  -6.6730  -1.6459  -1.4698
 -1.3648  -1.2266  -1.1467  -1.0651  -1.0296  -1.0055  -0.9683  -0.9102
 -0.8641  -0.7966  -0.7840  -0.7675  -0.7261  -0.7139  -0.6956  -0.6769
 -0.6763  -0.6678  -0.6093  -0.6040  -0.5967  -0.5872  -0.5749  -0.5682
 -0.5437  -0.5247  -0.5054  -0.4808  -0.4765  -0.4635  -0.4597  -0.4577
 -0.3952  -0.3464  -0.2811

          Ground-State Mulliken Net Atomic Charges

     Atom                 Charge (a.u.)
  ----------------------------------------
      1 C                     0.038292
      2 S                     0.084044
      3 C                    -0.257772
      4 C                    -0.086227
      5 C                    -0.009849
      6 C                     0.387419
      7 C                    -0.162725
      8 S                     0.027842
      9 C                     0.458938
     10 O                    -0.455000
     11 O                    -0.298424
     12 F                    -0.213577
     13 C                    -0.055073
     14 H                     0.116184
     15 H                     0.083968
     16 H                     0.083887
     17 C                    -0.366919
     18 H                     0.114837
     19 H                     0.161466
     20 H                     0.136588
     21 H                     0.212102
  ----------------------------------------
  Sum of atomic charges =     0.000000

                    Cartesian Multipole Moments
 -----------------------------------------------------------------
    Charge (ESU x 10^10)
                -0.0000
    Dipole Moment (Debye)
         X       0.0401      Y       1.0706      Z       4.1673
       Tot       4.3028
    Quadrupole Moments (Debye-Ang)
        XX     -95.8369     XY       1.5939     YY     -82.3245
        XZ      -0.9787     YZ     -13.3798     ZZ     -95.0496

 Total job time:  54.05s(wall), 1955.28s(cpu)
        *  Thank you very much for using Q-Chem.  Have a nice day.  *
