 Q-Chem 5.4, Q-Chem, Inc., Pleasanton, CA (2021)
 Q-Chem 5.4.0 for Intel X86 EM64T Linux

User input:
--------------------------------------------------------------
$molecule
0 1
C	-0.231427	-0.806326	1.020573
S	0.003473	0.061874	2.531273
C	0.410173	1.583774	1.748173
C	0.003573	0.070974	-0.044127
C	0.361573	1.412774	0.342273
C	-0.011927	0.006374	-1.465527
C	0.315273	1.228174	-2.086327
S	0.634873	2.434074	-0.945127
C	0.385673	1.472774	-3.539427
O	0.146873	0.570274	-4.329727
O	0.720873	2.711374	-3.983827
F	-0.296527	-1.070726	-2.225727
C	0.823573	3.055274	-5.314427
H	1.110073	4.122374	-5.349727
H	-0.137827	2.909774	-5.855027
H	1.590873	2.445874	-5.841327
C	-0.231427	-2.241526	1.020573
H	-0.222927	-2.250526	2.100473
H	-1.067327	-2.925426	1.020973
H	0.712673	-2.765926	1.012573
H	0.648373	2.472474	2.342073
$end

$rem
JOBTYPE		SP
EXCHANGE	HF
CORRELATION	pRIMP2
BASIS		cc-pvtz
METHOD		rimp2
AUX_BASIS	rimp2-cc-pvtz
SOLVENT_METHOD	PCM
PURECART	11111
SYMMETRY	false
MEM_TOTAL	110000
SCF_CONVERGENCE = 6
THRESH=10
GUI = 2
$end

$solvent
dielectric 4.90
$end
--------------------------------------------------------------

             Standard Nuclear Orientation (Angstroms)
    I     Atom           X                Y                Z
 ----------------------------------------------------------------
    1      C      -0.2314270000    -0.8063260000     1.0205730000
    2      S       0.0034730000     0.0618740000     2.5312730000
    3      C       0.4101730000     1.5837740000     1.7481730000
    4      C       0.0035730000     0.0709740000    -0.0441270000
    5      C       0.3615730000     1.4127740000     0.3422730000
    6      C      -0.0119270000     0.0063740000    -1.4655270000
    7      C       0.3152730000     1.2281740000    -2.0863270000
    8      S       0.6348730000     2.4340740000    -0.9451270000
    9      C       0.3856730000     1.4727740000    -3.5394270000
   10      O       0.1468730000     0.5702740000    -4.3297270000
   11      O       0.7208730000     2.7113740000    -3.9838270000
   12      F      -0.2965270000    -1.0707260000    -2.2257270000
   13      C       0.8235730000     3.0552740000    -5.3144270000
   14      H       1.1100730000     4.1223740000    -5.3497270000
   15      H      -0.1378270000     2.9097740000    -5.8550270000
   16      H       1.5908730000     2.4458740000    -5.8413270000
   17      C      -0.2314270000    -2.2415260000     1.0205730000
   18      H      -0.2229270000    -2.2505260000     2.1004730000
   19      H      -1.0673270000    -2.9254260000     1.0209730000
   20      H       0.7126730000    -2.7659260000     1.0125730000
   21      H       0.6483730000     2.4724740000     2.3420730000
 ----------------------------------------------------------------

   11   -1389.2480745779      5.00e-07  Convergence criterion met
 Total energy in the final basis set =    -1389.2480745779
        RIMP2         total energy =     -1391.7556524813 a.u.

                    Orbital Energies (a.u.)
 --------------------------------------------------------------

 Alpha MOs
 -- Occupied --
-92.0098 -91.9903 -26.3329 -20.6105 -20.5477 -11.4080 -11.3748 -11.3049
-11.2923 -11.2916 -11.2877 -11.2855 -11.2695 -11.2276  -9.0084  -8.9945
 -6.6892  -6.6886  -6.6881  -6.6758  -6.6751  -6.6738  -1.6458  -1.4701
 -1.3652  -1.2271  -1.1472  -1.0649  -1.0299  -1.0050  -0.9686  -0.9094
 -0.8646  -0.7968  -0.7841  -0.7681  -0.7263  -0.7139  -0.6955  -0.6772
 -0.6759  -0.6681  -0.6091  -0.6044  -0.5972  -0.5875  -0.5732  -0.5694
 -0.5439  -0.5249  -0.5049  -0.4814  -0.4720  -0.4635  -0.4601  -0.4580
 -0.3958  -0.3460  -0.2829

          Ground-State Mulliken Net Atomic Charges

     Atom                 Charge (a.u.)
  ----------------------------------------
      1 C                     0.040536
      2 S                     0.085441
      3 C                    -0.252882
      4 C                    -0.094598
      5 C                    -0.007649
      6 C                     0.378842
      7 C                    -0.160865
      8 S                     0.031500
      9 C                     0.457791
     10 O                    -0.453669
     11 O                    -0.298287
     12 F                    -0.212570
     13 C                    -0.054901
     14 H                     0.116253
     15 H                     0.084076
     16 H                     0.083925
     17 C                    -0.360792
     18 H                     0.111001
     19 H                     0.154751
     20 H                     0.139670
     21 H                     0.212426
  ----------------------------------------
  Sum of atomic charges =     0.000000

                    Cartesian Multipole Moments
 -----------------------------------------------------------------
    Charge (ESU x 10^10)
                -0.0000
    Dipole Moment (Debye)
         X       0.8036      Y       1.2233      Z       4.1241
       Tot       4.3762
    Quadrupole Moments (Debye-Ang)
        XX     -95.2535     XY       2.6253     YY     -83.0914
        XZ      -2.8329     YZ     -12.9977     ZZ     -94.7900

 Total job time:  53.20s(wall), 1902.61s(cpu)
        *  Thank you very much for using Q-Chem.  Have a nice day.  *
