 Q-Chem 5.4, Q-Chem, Inc., Pleasanton, CA (2021)
 Q-Chem 5.4.0 for Intel X86 EM64T Linux

User input:
--------------------------------------------------------------
$molecule
0 1
C	-0.442460	-0.717327	1.022665
S	0.009140	0.060473	2.533365
C	0.795940	1.425273	1.750265
C	0.011640	0.069273	-0.042035
C	0.704740	1.272673	0.344365
C	-0.020160	0.010873	-1.463435
C	0.612140	1.106373	-2.084235
S	1.233040	2.188373	-0.943035
C	0.743440	1.324373	-3.537335
O	0.279240	0.514473	-4.327635
O	1.387840	2.434073	-3.981735
F	-0.573760	-0.955927	-2.223635
C	1.576040	2.739673	-5.312335
H	2.129040	3.696273	-5.347635
H	0.609740	2.847873	-5.852935
H	2.159440	1.952473	-5.839235
C	-0.442460	-2.152527	1.022665
H	-1.522360	-2.161527	1.031165
H	-0.442860	-2.836427	0.186765
H	-0.434460	-2.676927	1.966765
H	1.255940	2.221973	2.344165
$end

$rem
JOBTYPE		SP
EXCHANGE	HF
CORRELATION	pRIMP2
BASIS		cc-pvtz
METHOD		rimp2
AUX_BASIS	rimp2-cc-pvtz
SOLVENT_METHOD	PCM
PURECART	11111
SYMMETRY	false
MEM_TOTAL	110000
SCF_CONVERGENCE = 6
THRESH=10
GUI = 2
$end

$solvent
dielectric 4.90
$end
--------------------------------------------------------------

             Standard Nuclear Orientation (Angstroms)
    I     Atom           X                Y                Z
 ----------------------------------------------------------------
    1      C      -0.4424600000    -0.7173270000     1.0226650000
    2      S       0.0091400000     0.0604730000     2.5333650000
    3      C       0.7959400000     1.4252730000     1.7502650000
    4      C       0.0116400000     0.0692730000    -0.0420350000
    5      C       0.7047400000     1.2726730000     0.3443650000
    6      C      -0.0201600000     0.0108730000    -1.4634350000
    7      C       0.6121400000     1.1063730000    -2.0842350000
    8      S       1.2330400000     2.1883730000    -0.9430350000
    9      C       0.7434400000     1.3243730000    -3.5373350000
   10      O       0.2792400000     0.5144730000    -4.3276350000
   11      O       1.3878400000     2.4340730000    -3.9817350000
   12      F      -0.5737600000    -0.9559270000    -2.2236350000
   13      C       1.5760400000     2.7396730000    -5.3123350000
   14      H       2.1290400000     3.6962730000    -5.3476350000
   15      H       0.6097400000     2.8478730000    -5.8529350000
   16      H       2.1594400000     1.9524730000    -5.8392350000
   17      C      -0.4424600000    -2.1525270000     1.0226650000
   18      H      -1.5223600000    -2.1615270000     1.0311650000
   19      H      -0.4428600000    -2.8364270000     0.1867650000
   20      H      -0.4344600000    -2.6769270000     1.9667650000
   21      H       1.2559400000     2.2219730000     2.3441650000
 ----------------------------------------------------------------

   11   -1389.2326934981      5.08e-07  Convergence criterion met
 Total energy in the final basis set =    -1389.2326934981
        RIMP2         total energy =     -1391.7424072196 a.u.

                    Orbital Energies (a.u.)
 --------------------------------------------------------------

 Alpha MOs
 -- Occupied --
-92.0057 -91.9894 -26.3339 -20.6097 -20.5462 -11.4068 -11.3756 -11.3092
-11.2916 -11.2895 -11.2874 -11.2814 -11.2690 -11.2289  -9.0047  -8.9935
 -6.6855  -6.6848  -6.6843  -6.6748  -6.6742  -6.6728  -1.6469  -1.4693
 -1.3642  -1.2269  -1.1471  -1.0662  -1.0275  -1.0051  -0.9678  -0.9105
 -0.8632  -0.7959  -0.7846  -0.7668  -0.7259  -0.7148  -0.6952  -0.6769
 -0.6766  -0.6677  -0.6082  -0.6035  -0.5931  -0.5871  -0.5834  -0.5582
 -0.5330  -0.5221  -0.5196  -0.4950  -0.4795  -0.4602  -0.4575  -0.4538
 -0.3865  -0.3459  -0.2723

          Ground-State Mulliken Net Atomic Charges

     Atom                 Charge (a.u.)
  ----------------------------------------
      1 C                     0.017301
      2 S                     0.092084
      3 C                    -0.260558
      4 C                    -0.090650
      5 C                    -0.008492
      6 C                     0.372691
      7 C                    -0.164403
      8 S                     0.030902
      9 C                     0.456970
     10 O                    -0.456557
     11 O                    -0.298818
     12 F                    -0.211761
     13 C                    -0.054866
     14 H                     0.116110
     15 H                     0.083703
     16 H                     0.083696
     17 C                    -0.377888
     18 H                     0.142426
     19 H                     0.169334
     20 H                     0.148376
     21 H                     0.210402
  ----------------------------------------
  Sum of atomic charges =     0.000000

                    Cartesian Multipole Moments
 -----------------------------------------------------------------
    Charge (ESU x 10^10)
                -0.0000
    Dipole Moment (Debye)
         X       0.5928      Y       0.4416      Z       3.6551
       Tot       3.7291
    Quadrupole Moments (Debye-Ang)
        XX     -93.7591     XY       6.1678     YY     -84.7508
        XZ      -6.0174     YZ     -10.6408     ZZ     -96.2034

 Total job time:  53.38s(wall), 1914.81s(cpu)
        *  Thank you very much for using Q-Chem.  Have a nice day.  *
