 Q-Chem 5.4, Q-Chem, Inc., Pleasanton, CA (2021)
 Q-Chem 5.4.0 for Intel X86 EM64T Linux

User input:
--------------------------------------------------------------
$molecule
0 1
C	-0.769302	-0.392188	1.020653
S	0.010698	0.055612	2.531353
C	1.374498	0.844212	1.748253
C	0.017198	0.061912	-0.044047
C	1.219198	0.757612	0.342353
C	-0.039402	0.027312	-1.465447
C	1.055898	0.659812	-2.086247
S	2.134598	1.286512	-0.945047
C	1.278598	0.783012	-3.539347
O	0.471698	0.313712	-4.329647
O	2.391498	1.421812	-3.983747
F	-1.002302	-0.533088	-2.225647
C	2.707198	1.592412	-5.314347
H	3.664398	2.144312	-5.349647
H	1.924498	2.169312	-5.854947
H	2.818898	0.618912	-5.841247
C	-0.769302	-1.827388	1.020653
H	-0.573402	-1.836388	2.082753
H	-1.592402	-2.511288	1.166153
H	0.159098	-2.351788	0.848853
H	2.171298	1.304112	2.342153
$end

$rem
JOBTYPE		SP
EXCHANGE	HF
CORRELATION	pRIMP2
BASIS		cc-pvtz
METHOD		rimp2
AUX_BASIS	rimp2-cc-pvtz
SOLVENT_METHOD	PCM
PURECART	11111
SYMMETRY	false
MEM_TOTAL	110000
SCF_CONVERGENCE = 6
THRESH=10
GUI = 2
$end

$solvent
dielectric 4.90
$end
--------------------------------------------------------------

             Standard Nuclear Orientation (Angstroms)
    I     Atom           X                Y                Z
 ----------------------------------------------------------------
    1      C      -0.7693020000    -0.3921880000     1.0206530000
    2      S       0.0106980000     0.0556120000     2.5313530000
    3      C       1.3744980000     0.8442120000     1.7482530000
    4      C       0.0171980000     0.0619120000    -0.0440470000
    5      C       1.2191980000     0.7576120000     0.3423530000
    6      C      -0.0394020000     0.0273120000    -1.4654470000
    7      C       1.0558980000     0.6598120000    -2.0862470000
    8      S       2.1345980000     1.2865120000    -0.9450470000
    9      C       1.2785980000     0.7830120000    -3.5393470000
   10      O       0.4716980000     0.3137120000    -4.3296470000
   11      O       2.3914980000     1.4218120000    -3.9837470000
   12      F      -1.0023020000    -0.5330880000    -2.2256470000
   13      C       2.7071980000     1.5924120000    -5.3143470000
   14      H       3.6643980000     2.1443120000    -5.3496470000
   15      H       1.9244980000     2.1693120000    -5.8549470000
   16      H       2.8188980000     0.6189120000    -5.8412470000
   17      C      -0.7693020000    -1.8273880000     1.0206530000
   18      H      -0.5734020000    -1.8363880000     2.0827530000
   19      H      -1.5924020000    -2.5112880000     1.1661530000
   20      H       0.1590980000    -2.3517880000     0.8488530000
   21      H       2.1712980000     1.3041120000     2.3421530000
 ----------------------------------------------------------------

   11   -1389.1702945502      8.71e-07  Convergence criterion met
 Total energy in the final basis set =    -1389.1702945502
        RIMP2         total energy =     -1391.6952006622 a.u.

                    Orbital Energies (a.u.)
 --------------------------------------------------------------

 Alpha MOs
 -- Occupied --
-92.0036 -91.9997 -26.3320 -20.6144 -20.5549 -11.4140 -11.3723 -11.3160
-11.3071 -11.2925 -11.2897 -11.2836 -11.2645 -11.2126  -9.0039  -9.0033
 -6.6845  -6.6844  -6.6839  -6.6833  -6.6833  -6.6826  -1.6451  -1.4746
 -1.3706  -1.2355  -1.1575  -1.0686  -1.0344  -1.0002  -0.9726  -0.8997
 -0.8703  -0.7996  -0.7869  -0.7748  -0.7301  -0.7143  -0.6975  -0.6804
 -0.6741  -0.6732  -0.6105  -0.6083  -0.6031  -0.5908  -0.5722  -0.5611
 -0.5328  -0.5285  -0.5107  -0.4876  -0.4751  -0.4645  -0.4632  -0.4350
 -0.3888  -0.3356  -0.2911

          Ground-State Mulliken Net Atomic Charges

     Atom                 Charge (a.u.)
  ----------------------------------------
      1 C                    -0.120170
      2 S                     0.101808
      3 C                    -0.166889
      4 C                    -0.019636
      5 C                    -0.032690
      6 C                     0.361792
      7 C                    -0.133934
      8 S                     0.056204
      9 C                     0.456480
     10 O                    -0.441158
     11 O                    -0.296544
     12 F                    -0.210649
     13 C                    -0.054745
     14 H                     0.117160
     15 H                     0.085410
     16 H                     0.085072
     17 C                    -0.374897
     18 H                     0.119948
     19 H                     0.130009
     20 H                     0.120562
     21 H                     0.216867
  ----------------------------------------
  Sum of atomic charges =     0.000000

                    Cartesian Multipole Moments
 -----------------------------------------------------------------
    Charge (ESU x 10^10)
                -0.0000
    Dipole Moment (Debye)
         X       4.6070      Y       1.2402      Z       3.4201
       Tot       5.8703
    Quadrupole Moments (Debye-Ang)
        XX     -89.1768     XY       4.9649     YY     -91.5298
        XZ      -8.4054     YZ      -7.1488     ZZ     -91.6619

 Total job time:  53.97s(wall), 1972.72s(cpu)
        *  Thank you very much for using Q-Chem.  Have a nice day.  *
