 Q-Chem 5.4, Q-Chem, Inc., Pleasanton, CA (2021)
 Q-Chem 5.4.0 for Intel X86 EM64T Linux

User input:
--------------------------------------------------------------
$molecule
0 1
C	-0.679602	-0.518946	1.025187
S	0.010798	0.057454	2.535887
C	1.216898	1.070954	1.752787
C	0.016098	0.064854	-0.039513
C	1.078998	0.958754	0.346887
C	-0.033702	0.020954	-1.460913
C	0.935198	0.834054	-2.081713
S	1.888698	1.638454	-0.940513
C	1.133098	0.994054	-3.534813
O	0.419898	0.391754	-4.325113
O	2.118198	1.816354	-3.979213
F	-0.884602	-0.698246	-2.221113
C	2.399498	2.039154	-5.309813
H	3.246298	2.748954	-5.345113
H	1.528498	2.471454	-5.850413
H	2.678498	1.099854	-5.836713
C	-0.679602	-1.954146	1.025187
H	-0.875502	-1.963146	-0.036913
H	0.143498	-2.638046	0.879687
H	-1.608002	-2.478546	1.196987
H	1.921698	1.662254	2.346687
$end

$rem
JOBTYPE		SP
EXCHANGE	HF
CORRELATION	pRIMP2
BASIS		cc-pvtz
METHOD		rimp2
AUX_BASIS	rimp2-cc-pvtz
SOLVENT_METHOD	PCM
PURECART	11111
SYMMETRY	false
MEM_TOTAL	110000
SCF_CONVERGENCE = 6
THRESH=10
GUI = 2
$end

$solvent
dielectric 4.90
$end
--------------------------------------------------------------

             Standard Nuclear Orientation (Angstroms)
    I     Atom           X                Y                Z
 ----------------------------------------------------------------
    1      C      -0.6796020000    -0.5189460000     1.0251870000
    2      S       0.0107980000     0.0574540000     2.5358870000
    3      C       1.2168980000     1.0709540000     1.7527870000
    4      C       0.0160980000     0.0648540000    -0.0395130000
    5      C       1.0789980000     0.9587540000     0.3468870000
    6      C      -0.0337020000     0.0209540000    -1.4609130000
    7      C       0.9351980000     0.8340540000    -2.0817130000
    8      S       1.8886980000     1.6384540000    -0.9405130000
    9      C       1.1330980000     0.9940540000    -3.5348130000
   10      O       0.4198980000     0.3917540000    -4.3251130000
   11      O       2.1181980000     1.8163540000    -3.9792130000
   12      F      -0.8846020000    -0.6982460000    -2.2211130000
   13      C       2.3994980000     2.0391540000    -5.3098130000
   14      H       3.2462980000     2.7489540000    -5.3451130000
   15      H       1.5284980000     2.4714540000    -5.8504130000
   16      H       2.6784980000     1.0998540000    -5.8367130000
   17      C      -0.6796020000    -1.9541460000     1.0251870000
   18      H      -0.8755020000    -1.9631460000    -0.0369130000
   19      H       0.1434980000    -2.6380460000     0.8796870000
   20      H      -1.6080020000    -2.4785460000     1.1969870000
   21      H       1.9216980000     1.6622540000     2.3466870000
 ----------------------------------------------------------------

   11   -1389.2049916159      7.43e-07  Convergence criterion met
 Total energy in the final basis set =    -1389.2049916159
        RIMP2         total energy =     -1391.7260253195 a.u.

                    Orbital Energies (a.u.)
 --------------------------------------------------------------

 Alpha MOs
 -- Occupied --
-92.0021 -91.9986 -26.3348 -20.6138 -20.5534 -11.4130 -11.3749 -11.3068
-11.3036 -11.2939 -11.2895 -11.2818 -11.2754 -11.2173  -9.0023  -9.0016
 -6.6835  -6.6829  -6.6823  -6.6816  -6.6814  -6.6813  -1.6481  -1.4738
 -1.3696  -1.2335  -1.1503  -1.0702  -1.0293  -1.0020  -0.9711  -0.9075
 -0.8666  -0.7968  -0.7885  -0.7712  -0.7289  -0.7168  -0.6977  -0.6801
 -0.6766  -0.6729  -0.6085  -0.6045  -0.6029  -0.5912  -0.5773  -0.5636
 -0.5367  -0.5271  -0.5100  -0.4848  -0.4719  -0.4634  -0.4624  -0.4339
 -0.3932  -0.3429  -0.2903

          Ground-State Mulliken Net Atomic Charges

     Atom                 Charge (a.u.)
  ----------------------------------------
      1 C                    -0.085888
      2 S                     0.099344
      3 C                    -0.189746
      4 C                    -0.039900
      5 C                    -0.025525
      6 C                     0.350358
      7 C                    -0.132805
      8 S                     0.054447
      9 C                     0.456487
     10 O                    -0.444940
     11 O                    -0.297051
     12 F                    -0.211074
     13 C                    -0.054562
     14 H                     0.117054
     15 H                     0.085006
     16 H                     0.084786
     17 C                    -0.355064
     18 H                     0.104070
     19 H                     0.147535
     20 H                     0.123654
     21 H                     0.213813
  ----------------------------------------
  Sum of atomic charges =     0.000000

                    Cartesian Multipole Moments
 -----------------------------------------------------------------
    Charge (ESU x 10^10)
                -0.0000
    Dipole Moment (Debye)
         X       3.4258      Y       1.5364      Z       2.3525
       Tot       4.4306
    Quadrupole Moments (Debye-Ang)
        XX     -90.2146     XY       5.6870     YY     -89.1609
        XZ      -7.2703     YZ      -6.2916     ZZ     -95.3652

 Total job time:  57.25s(wall), 1992.33s(cpu)
        *  Thank you very much for using Q-Chem.  Have a nice day.  *
