 Q-Chem 5.4, Q-Chem, Inc., Pleasanton, CA (2021)
 Q-Chem 5.4.0 for Intel X86 EM64T Linux

User input:
--------------------------------------------------------------
$molecule
0 1
C	-0.766681	-0.392188	1.024233
S	0.013319	0.055612	2.534933
C	1.377119	0.844212	1.751833
C	0.019819	0.061912	-0.040467
C	1.221819	0.757612	0.345933
C	-0.036781	0.027312	-1.461867
C	1.058519	0.659812	-2.082667
S	2.137219	1.286512	-0.941467
C	1.281219	0.783012	-3.535767
O	0.474319	0.313712	-4.326067
O	2.394119	1.421812	-3.980167
F	-0.999681	-0.533088	-2.222067
C	2.709819	1.592412	-5.310767
H	3.667019	2.144312	-5.346067
H	1.927119	2.169312	-5.851367
H	2.821519	0.618912	-5.837667
C	-0.766681	-1.827388	1.024233
H	-1.599381	-1.836388	0.336533
H	-0.229681	-2.511288	0.383733
H	-1.367381	-2.351788	1.752633
H	2.173919	1.304112	2.345733
$end

$rem
JOBTYPE		SP
EXCHANGE	HF
CORRELATION	pRIMP2
BASIS		cc-pvtz
METHOD		rimp2
AUX_BASIS	rimp2-cc-pvtz
SOLVENT_METHOD	PCM
PURECART	11111
SYMMETRY	false
MEM_TOTAL	110000
SCF_CONVERGENCE = 6
THRESH=10
GUI = 2
$end

$solvent
dielectric 4.90
$end
--------------------------------------------------------------

             Standard Nuclear Orientation (Angstroms)
    I     Atom           X                Y                Z
 ----------------------------------------------------------------
    1      C      -0.7666810000    -0.3921880000     1.0242330000
    2      S       0.0133190000     0.0556120000     2.5349330000
    3      C       1.3771190000     0.8442120000     1.7518330000
    4      C       0.0198190000     0.0619120000    -0.0404670000
    5      C       1.2218190000     0.7576120000     0.3459330000
    6      C      -0.0367810000     0.0273120000    -1.4618670000
    7      C       1.0585190000     0.6598120000    -2.0826670000
    8      S       2.1372190000     1.2865120000    -0.9414670000
    9      C       1.2812190000     0.7830120000    -3.5357670000
   10      O       0.4743190000     0.3137120000    -4.3260670000
   11      O       2.3941190000     1.4218120000    -3.9801670000
   12      F      -0.9996810000    -0.5330880000    -2.2220670000
   13      C       2.7098190000     1.5924120000    -5.3107670000
   14      H       3.6670190000     2.1443120000    -5.3460670000
   15      H       1.9271190000     2.1693120000    -5.8513670000
   16      H       2.8215190000     0.6189120000    -5.8376670000
   17      C      -0.7666810000    -1.8273880000     1.0242330000
   18      H      -1.5993810000    -1.8363880000     0.3365330000
   19      H      -0.2296810000    -2.5112880000     0.3837330000
   20      H      -1.3673810000    -2.3517880000     1.7526330000
   21      H       2.1739190000     1.3041120000     2.3457330000
 ----------------------------------------------------------------

   11   -1389.1799908784      8.88e-07  Convergence criterion met
 Total energy in the final basis set =    -1389.1799908784
        RIMP2         total energy =     -1391.7049286453 a.u.

                    Orbital Energies (a.u.)
 --------------------------------------------------------------

 Alpha MOs
 -- Occupied --
-92.0013 -92.0008 -26.3334 -20.6144 -20.5546 -11.4139 -11.3739 -11.3141
-11.3062 -11.2951 -11.2898 -11.2846 -11.2627 -11.2136  -9.0049  -9.0007
 -6.6860  -6.6854  -6.6842  -6.6813  -6.6802  -6.6802  -1.6466  -1.4745
 -1.3705  -1.2352  -1.1524  -1.0700  -1.0304  -1.0011  -0.9717  -0.9060
 -0.8676  -0.7971  -0.7881  -0.7725  -0.7294  -0.7157  -0.6977  -0.6805
 -0.6759  -0.6734  -0.6094  -0.6071  -0.6014  -0.5925  -0.5652  -0.5622
 -0.5378  -0.5246  -0.5135  -0.4877  -0.4840  -0.4640  -0.4633  -0.4298
 -0.3790  -0.3432  -0.2856

          Ground-State Mulliken Net Atomic Charges

     Atom                 Charge (a.u.)
  ----------------------------------------
      1 C                    -0.126124
      2 S                     0.108383
      3 C                    -0.165990
      4 C                    -0.027419
      5 C                    -0.034900
      6 C                     0.364033
      7 C                    -0.132607
      8 S                     0.061236
      9 C                     0.456716
     10 O                    -0.442656
     11 O                    -0.296903
     12 F                    -0.211386
     13 C                    -0.054749
     14 H                     0.117201
     15 H                     0.085332
     16 H                     0.084978
     17 C                    -0.400375
     18 H                     0.120934
     19 H                     0.145035
     20 H                     0.134928
     21 H                     0.214334
  ----------------------------------------
  Sum of atomic charges =     0.000000

                    Cartesian Multipole Moments
 -----------------------------------------------------------------
    Charge (ESU x 10^10)
                -0.0000
    Dipole Moment (Debye)
         X       4.0150      Y       1.2062      Z       2.4352
       Tot       4.8483
    Quadrupole Moments (Debye-Ang)
        XX     -88.4230     XY       6.1541     YY     -91.2121
        XZ      -8.6796     YZ      -5.2446     ZZ     -94.0086

 Total job time:  54.24s(wall), 1999.48s(cpu)
        *  Thank you very much for using Q-Chem.  Have a nice day.  *
