 Q-Chem 5.4, Q-Chem, Inc., Pleasanton, CA (2021)
 Q-Chem 5.4.0 for Intel X86 EM64T Linux

User input:
--------------------------------------------------------------
$molecule
0 1
C	-0.079303	-0.833466	1.020573
S	0.001297	0.062334	2.531273
C	0.137497	1.631734	1.748173
C	-0.000203	0.071334	-0.044127
C	0.119397	1.454934	0.342273
C	-0.004303	0.005034	-1.465527
C	0.105797	1.265034	-2.086327
S	0.211197	2.508134	-0.945127
C	0.132597	1.518134	-3.539427
O	0.054197	0.587934	-4.329727
O	0.247697	2.796134	-3.983827
F	-0.097503	-1.105166	-2.225727
C	0.289097	3.152634	-5.314427
H	0.385997	4.253334	-5.349727
H	-0.632403	2.842434	-5.855027
H	1.150597	2.685834	-5.841327
C	-0.079303	-2.268666	1.020573
H	-0.070803	-2.277666	2.100473
H	-0.915203	-2.952566	1.020973
H	0.864797	-2.793066	1.012573
H	0.217797	2.548234	2.342073
$end

$rem
JOBTYPE		SP
EXCHANGE	HF
CORRELATION	pRIMP2
BASIS		cc-pvtz
METHOD		rimp2
AUX_BASIS	rimp2-cc-pvtz
SOLVENT_METHOD	PCM
PURECART	11111
SYMMETRY	false
MEM_TOTAL	110000
SCF_CONVERGENCE = 6
THRESH=10
GUI = 2
$end

$solvent
dielectric 4.90
$end
--------------------------------------------------------------

             Standard Nuclear Orientation (Angstroms)
    I     Atom           X                Y                Z
 ----------------------------------------------------------------
    1      C      -0.0793030000    -0.8334660000     1.0205730000
    2      S       0.0012970000     0.0623340000     2.5312730000
    3      C       0.1374970000     1.6317340000     1.7481730000
    4      C      -0.0002030000     0.0713340000    -0.0441270000
    5      C       0.1193970000     1.4549340000     0.3422730000
    6      C      -0.0043030000     0.0050340000    -1.4655270000
    7      C       0.1057970000     1.2650340000    -2.0863270000
    8      S       0.2111970000     2.5081340000    -0.9451270000
    9      C       0.1325970000     1.5181340000    -3.5394270000
   10      O       0.0541970000     0.5879340000    -4.3297270000
   11      O       0.2476970000     2.7961340000    -3.9838270000
   12      F      -0.0975030000    -1.1051660000    -2.2257270000
   13      C       0.2890970000     3.1526340000    -5.3144270000
   14      H       0.3859970000     4.2533340000    -5.3497270000
   15      H      -0.6324030000     2.8424340000    -5.8550270000
   16      H       1.1505970000     2.6858340000    -5.8413270000
   17      C      -0.0793030000    -2.2686660000     1.0205730000
   18      H      -0.0708030000    -2.2776660000     2.1004730000
   19      H      -0.9152030000    -2.9525660000     1.0209730000
   20      H       0.8647970000    -2.7930660000     1.0125730000
   21      H       0.2177970000     2.5482340000     2.3420730000
 ----------------------------------------------------------------

   11   -1389.2519254580      4.86e-07  Convergence criterion met
 Total energy in the final basis set =    -1389.2519254580
        RIMP2         total energy =     -1391.7582950653 a.u.

                    Orbital Energies (a.u.)
 --------------------------------------------------------------

 Alpha MOs
 -- Occupied --
-92.0101 -91.9899 -26.3329 -20.6104 -20.5473 -11.4077 -11.3750 -11.3069
-11.2916 -11.2915 -11.2876 -11.2841 -11.2690 -11.2284  -9.0087  -8.9941
 -6.6894  -6.6888  -6.6884  -6.6754  -6.6748  -6.6734  -1.6458  -1.4700
 -1.3650  -1.2268  -1.1468  -1.0649  -1.0298  -1.0054  -0.9685  -0.9099
 -0.8644  -0.7967  -0.7840  -0.7678  -0.7262  -0.7139  -0.6956  -0.6770
 -0.6762  -0.6679  -0.6089  -0.6042  -0.5972  -0.5873  -0.5733  -0.5701
 -0.5443  -0.5247  -0.5047  -0.4810  -0.4723  -0.4646  -0.4600  -0.4579
 -0.3961  -0.3463  -0.2826

          Ground-State Mulliken Net Atomic Charges

     Atom                 Charge (a.u.)
  ----------------------------------------
      1 C                     0.045257
      2 S                     0.084488
      3 C                    -0.257218
      4 C                    -0.091233
      5 C                    -0.008801
      6 C                     0.389611
      7 C                    -0.162736
      8 S                     0.029521
      9 C                     0.458789
     10 O                    -0.454465
     11 O                    -0.298372
     12 F                    -0.213783
     13 C                    -0.055065
     14 H                     0.116218
     15 H                     0.084042
     16 H                     0.083916
     17 C                    -0.366082
     18 H                     0.111215
     19 H                     0.154253
     20 H                     0.137991
     21 H                     0.212454
  ----------------------------------------
  Sum of atomic charges =     0.000000

                    Cartesian Multipole Moments
 -----------------------------------------------------------------
    Charge (ESU x 10^10)
                -0.0000
    Dipole Moment (Debye)
         X       0.2793      Y       1.1914      Z       4.1659
       Tot       4.3419
    Quadrupole Moments (Debye-Ang)
        XX     -95.7832     XY       0.9947     YY     -82.3956
        XZ      -0.9731     YZ     -13.4168     ZZ     -94.9221

 Total job time:  54.07s(wall), 1983.94s(cpu)
        *  Thank you very much for using Q-Chem.  Have a nice day.  *
