 Q-Chem 5.4, Q-Chem, Inc., Pleasanton, CA (2021)
 Q-Chem 5.4.0 for Intel X86 EM64T Linux

User input:
--------------------------------------------------------------
$molecule
0 1
C	-0.678101	-0.518946	1.023873
S	0.012299	0.057454	2.534573
C	1.218399	1.070954	1.751473
C	0.017599	0.064854	-0.040827
C	1.080499	0.958754	0.345573
C	-0.032201	0.020954	-1.462227
C	0.936699	0.834054	-2.083027
S	1.890199	1.638454	-0.941827
C	1.134599	0.994054	-3.536127
O	0.421399	0.391754	-4.326427
O	2.119699	1.816354	-3.980527
F	-0.883101	-0.698246	-2.222427
C	2.400999	2.039154	-5.311127
H	3.247799	2.748954	-5.346427
H	1.529999	2.471454	-5.851727
H	2.679999	1.099854	-5.838027
C	-0.678101	-1.954146	1.023873
H	-1.617601	-1.963146	0.491273
H	-0.260501	-2.638046	0.299773
H	-1.143201	-2.478546	1.845473
H	1.923199	1.662254	2.345373
$end

$rem
JOBTYPE		SP
EXCHANGE	HF
CORRELATION	pRIMP2
BASIS		cc-pvtz
METHOD		rimp2
AUX_BASIS	rimp2-cc-pvtz
SOLVENT_METHOD	PCM
PURECART	11111
SYMMETRY	false
MEM_TOTAL	110000
SCF_CONVERGENCE = 6
THRESH=10
GUI = 2
$end

$solvent
dielectric 4.90
$end
--------------------------------------------------------------

             Standard Nuclear Orientation (Angstroms)
    I     Atom           X                Y                Z
 ----------------------------------------------------------------
    1      C      -0.6781010000    -0.5189460000     1.0238730000
    2      S       0.0122990000     0.0574540000     2.5345730000
    3      C       1.2183990000     1.0709540000     1.7514730000
    4      C       0.0175990000     0.0648540000    -0.0408270000
    5      C       1.0804990000     0.9587540000     0.3455730000
    6      C      -0.0322010000     0.0209540000    -1.4622270000
    7      C       0.9366990000     0.8340540000    -2.0830270000
    8      S       1.8901990000     1.6384540000    -0.9418270000
    9      C       1.1345990000     0.9940540000    -3.5361270000
   10      O       0.4213990000     0.3917540000    -4.3264270000
   11      O       2.1196990000     1.8163540000    -3.9805270000
   12      F      -0.8831010000    -0.6982460000    -2.2224270000
   13      C       2.4009990000     2.0391540000    -5.3111270000
   14      H       3.2477990000     2.7489540000    -5.3464270000
   15      H       1.5299990000     2.4714540000    -5.8517270000
   16      H       2.6799990000     1.0998540000    -5.8380270000
   17      C      -0.6781010000    -1.9541460000     1.0238730000
   18      H      -1.6176010000    -1.9631460000     0.4912730000
   19      H      -0.2605010000    -2.6380460000     0.2997730000
   20      H      -1.1432010000    -2.4785460000     1.8454730000
   21      H       1.9231990000     1.6622540000     2.3453730000
 ----------------------------------------------------------------

   11   -1389.1997219969      7.33e-07  Convergence criterion met
 Total energy in the final basis set =    -1389.1997219969
        RIMP2         total energy =     -1391.7210308228 a.u.

                    Orbital Energies (a.u.)
 --------------------------------------------------------------

 Alpha MOs
 -- Occupied --
-92.0020 -91.9964 -26.3337 -20.6126 -20.5514 -11.4112 -11.3745 -11.3009
-11.2997 -11.2936 -11.2889 -11.2813 -11.2785 -11.2180  -9.0015  -9.0002
 -6.6822  -6.6815  -6.6813  -6.6811  -6.6808  -6.6795  -1.6468  -1.4725
 -1.3681  -1.2316  -1.1494  -1.0676  -1.0288  -1.0025  -0.9700  -0.9080
 -0.8658  -0.7964  -0.7867  -0.7701  -0.7278  -0.7155  -0.6962  -0.6790
 -0.6761  -0.6711  -0.6070  -0.6064  -0.5982  -0.5917  -0.5693  -0.5606
 -0.5385  -0.5241  -0.5126  -0.4908  -0.4825  -0.4621  -0.4615  -0.4390
 -0.3823  -0.3442  -0.2791

          Ground-State Mulliken Net Atomic Charges

     Atom                 Charge (a.u.)
  ----------------------------------------
      1 C                    -0.058758
      2 S                     0.101569
      3 C                    -0.203022
      4 C                    -0.058216
      5 C                    -0.022029
      6 C                     0.359440
      7 C                    -0.144577
      8 S                     0.048820
      9 C                     0.456446
     10 O                    -0.448089
     11 O                    -0.297629
     12 F                    -0.211098
     13 C                    -0.054611
     14 H                     0.116783
     15 H                     0.084629
     16 H                     0.084469
     17 C                    -0.394939
     18 H                     0.131020
     19 H                     0.158052
     20 H                     0.139996
     21 H                     0.211743
  ----------------------------------------
  Sum of atomic charges =     0.000000

                    Cartesian Multipole Moments
 -----------------------------------------------------------------
    Charge (ESU x 10^10)
                -0.0000
    Dipole Moment (Debye)
         X       2.6236      Y       1.1122      Z       2.8194
       Tot       4.0086
    Quadrupole Moments (Debye-Ang)
        XX     -90.2302     XY       6.6569     YY     -89.0168
        XZ      -8.2530     YZ      -7.0566     ZZ     -95.0861

 Total job time:  56.12s(wall), 1989.28s(cpu)
        *  Thank you very much for using Q-Chem.  Have a nice day.  *
