 Q-Chem 5.4, Q-Chem, Inc., Pleasanton, CA (2021)
 Q-Chem 5.4.0 for Intel X86 EM64T Linux

User input:
--------------------------------------------------------------
$molecule
0 1
C	-0.677906	-0.518946	1.023076
S	0.012494	0.057454	2.533776
C	1.218594	1.070954	1.750676
C	0.017794	0.064854	-0.041624
C	1.080694	0.958754	0.344776
C	-0.032006	0.020954	-1.463024
C	0.936894	0.834054	-2.083824
S	1.890394	1.638454	-0.942624
C	1.134794	0.994054	-3.536924
O	0.421594	0.391754	-4.327224
O	2.119894	1.816354	-3.981324
F	-0.882906	-0.698246	-2.223224
C	2.401194	2.039154	-5.311924
H	3.247994	2.748954	-5.347224
H	1.530194	2.471454	-5.852524
H	2.680194	1.099854	-5.838824
C	-0.677906	-1.954146	1.023076
H	-1.742906	-1.963146	0.843876
H	-0.533106	-2.638046	0.199876
H	-0.834006	-2.478546	1.954276
H	1.923394	1.662254	2.344576
$end

$rem
JOBTYPE		SP
EXCHANGE	HF
CORRELATION	pRIMP2
BASIS		cc-pvtz
METHOD		rimp2
AUX_BASIS	rimp2-cc-pvtz
SOLVENT_METHOD	PCM
PURECART	11111
SYMMETRY	false
MEM_TOTAL	110000
SCF_CONVERGENCE = 6
THRESH=10
GUI = 2
$end

$solvent
dielectric 4.90
$end
--------------------------------------------------------------

             Standard Nuclear Orientation (Angstroms)
    I     Atom           X                Y                Z
 ----------------------------------------------------------------
    1      C      -0.6779060000    -0.5189460000     1.0230760000
    2      S       0.0124940000     0.0574540000     2.5337760000
    3      C       1.2185940000     1.0709540000     1.7506760000
    4      C       0.0177940000     0.0648540000    -0.0416240000
    5      C       1.0806940000     0.9587540000     0.3447760000
    6      C      -0.0320060000     0.0209540000    -1.4630240000
    7      C       0.9368940000     0.8340540000    -2.0838240000
    8      S       1.8903940000     1.6384540000    -0.9426240000
    9      C       1.1347940000     0.9940540000    -3.5369240000
   10      O       0.4215940000     0.3917540000    -4.3272240000
   11      O       2.1198940000     1.8163540000    -3.9813240000
   12      F      -0.8829060000    -0.6982460000    -2.2232240000
   13      C       2.4011940000     2.0391540000    -5.3119240000
   14      H       3.2479940000     2.7489540000    -5.3472240000
   15      H       1.5301940000     2.4714540000    -5.8525240000
   16      H       2.6801940000     1.0998540000    -5.8388240000
   17      C      -0.6779060000    -1.9541460000     1.0230760000
   18      H      -1.7429060000    -1.9631460000     0.8438760000
   19      H      -0.5331060000    -2.6380460000     0.1998760000
   20      H      -0.8340060000    -2.4785460000     1.9542760000
   21      H       1.9233940000     1.6622540000     2.3445760000
 ----------------------------------------------------------------

   11   -1389.1952088908      7.34e-07  Convergence criterion met
 Total energy in the final basis set =    -1389.1952088908
        RIMP2         total energy =     -1391.7166884837 a.u.

                    Orbital Energies (a.u.)
 --------------------------------------------------------------

 Alpha MOs
 -- Occupied --
-92.0030 -91.9950 -26.3335 -20.6121 -20.5505 -11.4104 -11.3741 -11.2984
-11.2980 -11.2929 -11.2886 -11.2841 -11.2766 -11.2181  -9.0025  -8.9989
 -6.6832  -6.6823  -6.6821  -6.6801  -6.6795  -6.6782  -1.6466  -1.4719
 -1.3674  -1.2307  -1.1495  -1.0668  -1.0289  -1.0024  -0.9697  -0.9077
 -0.8656  -0.7964  -0.7862  -0.7698  -0.7275  -0.7151  -0.6955  -0.6786
 -0.6754  -0.6704  -0.6069  -0.6063  -0.5960  -0.5913  -0.5726  -0.5589
 -0.5349  -0.5212  -0.5161  -0.4949  -0.4818  -0.4617  -0.4608  -0.4420
 -0.3797  -0.3443  -0.2753

          Ground-State Mulliken Net Atomic Charges

     Atom                 Charge (a.u.)
  ----------------------------------------
      1 C                    -0.056299
      2 S                     0.101153
      3 C                    -0.211737
      4 C                    -0.055890
      5 C                    -0.017972
      6 C                     0.358338
      7 C                    -0.147874
      8 S                     0.046207
      9 C                     0.456287
     10 O                    -0.449411
     11 O                    -0.297772
     12 F                    -0.211299
     13 C                    -0.054622
     14 H                     0.116641
     15 H                     0.084464
     16 H                     0.084318
     17 C                    -0.392995
     18 H                     0.135460
     19 H                     0.160853
     20 H                     0.140124
     21 H                     0.212027
  ----------------------------------------
  Sum of atomic charges =     0.000000

                    Cartesian Multipole Moments
 -----------------------------------------------------------------
    Charge (ESU x 10^10)
                -0.0000
    Dipole Moment (Debye)
         X       2.3817      Y       0.9182      Z       3.1272
       Tot       4.0367
    Quadrupole Moments (Debye-Ang)
        XX     -90.3934     XY       6.7609     YY     -88.9981
        XZ      -8.2796     YZ      -7.5090     ZZ     -94.7410

 Total job time:  76.22s(wall), 2037.03s(cpu)
        *  Thank you very much for using Q-Chem.  Have a nice day.  *
