 Q-Chem 5.4, Q-Chem, Inc., Pleasanton, CA (2021)
 Q-Chem 5.4.0 for Intel X86 EM64T Linux

User input:
--------------------------------------------------------------
$molecule
0 1
C	-0.155553	-0.823218	1.020565
S	0.002847	0.062182	2.531265
C	0.275347	1.613782	1.748165
C	0.002147	0.071182	-0.044135
C	0.241847	1.439182	0.342265
C	-0.007753	0.005582	-1.465535
C	0.211747	1.251182	-2.086335
S	0.425047	2.480282	-0.945135
C	0.260547	1.500982	-3.539435
O	0.101347	0.581182	-4.329735
O	0.486547	2.764082	-3.983835
F	-0.197353	-1.092318	-2.225735
C	0.558847	3.115582	-5.314435
H	0.751247	4.203682	-5.349735
H	-0.386253	2.886882	-5.855035
H	1.376347	2.575482	-5.841335
C	-0.155553	-2.258418	1.020565
H	-0.334753	-2.267418	2.085565
H	-0.978753	-2.942318	0.875765
H	0.775647	-2.782818	1.176665
H	0.435147	2.519782	2.342065
$end

$rem
JOBTYPE		SP
EXCHANGE	HF
CORRELATION	pRIMP2
BASIS		cc-pvtz
METHOD		rimp2
AUX_BASIS	rimp2-cc-pvtz
SOLVENT_METHOD	PCM
PURECART	11111
SYMMETRY	false
MEM_TOTAL	110000
SCF_CONVERGENCE = 6
THRESH=10
GUI = 2
$end

$solvent
dielectric 4.90
$end
--------------------------------------------------------------

             Standard Nuclear Orientation (Angstroms)
    I     Atom           X                Y                Z
 ----------------------------------------------------------------
    1      C      -0.1555530000    -0.8232180000     1.0205650000
    2      S       0.0028470000     0.0621820000     2.5312650000
    3      C       0.2753470000     1.6137820000     1.7481650000
    4      C       0.0021470000     0.0711820000    -0.0441350000
    5      C       0.2418470000     1.4391820000     0.3422650000
    6      C      -0.0077530000     0.0055820000    -1.4655350000
    7      C       0.2117470000     1.2511820000    -2.0863350000
    8      S       0.4250470000     2.4802820000    -0.9451350000
    9      C       0.2605470000     1.5009820000    -3.5394350000
   10      O       0.1013470000     0.5811820000    -4.3297350000
   11      O       0.4865470000     2.7640820000    -3.9838350000
   12      F      -0.1973530000    -1.0923180000    -2.2257350000
   13      C       0.5588470000     3.1155820000    -5.3144350000
   14      H       0.7512470000     4.2036820000    -5.3497350000
   15      H      -0.3862530000     2.8868820000    -5.8550350000
   16      H       1.3763470000     2.5754820000    -5.8413350000
   17      C      -0.1555530000    -2.2584180000     1.0205650000
   18      H      -0.3347530000    -2.2674180000     2.0855650000
   19      H      -0.9787530000    -2.9423180000     0.8757650000
   20      H       0.7756470000    -2.7828180000     1.1766650000
   21      H       0.4351470000     2.5197820000     2.3420650000
 ----------------------------------------------------------------

   11   -1389.2507391563      4.90e-07  Convergence criterion met
 Total energy in the final basis set =    -1389.2507391563
        RIMP2         total energy =     -1391.7574215897 a.u.

                    Orbital Energies (a.u.)
 --------------------------------------------------------------

 Alpha MOs
 -- Occupied --
-92.0101 -91.9900 -26.3329 -20.6104 -20.5474 -11.4078 -11.3749 -11.3065
-11.2917 -11.2915 -11.2876 -11.2845 -11.2689 -11.2283  -9.0086  -8.9942
 -6.6894  -6.6888  -6.6883  -6.6755  -6.6748  -6.6735  -1.6458  -1.4700
 -1.3650  -1.2268  -1.1469  -1.0650  -1.0298  -1.0053  -0.9685  -0.9099
 -0.8644  -0.7967  -0.7840  -0.7678  -0.7262  -0.7138  -0.6955  -0.6770
 -0.6761  -0.6680  -0.6092  -0.6042  -0.5969  -0.5874  -0.5742  -0.5690
 -0.5439  -0.5248  -0.5049  -0.4810  -0.4726  -0.4647  -0.4599  -0.4580
 -0.3956  -0.3463  -0.2824

          Ground-State Mulliken Net Atomic Charges

     Atom                 Charge (a.u.)
  ----------------------------------------
      1 C                     0.039880
      2 S                     0.085163
      3 C                    -0.255736
      4 C                    -0.090595
      5 C                    -0.008147
      6 C                     0.382502
      7 C                    -0.161252
      8 S                     0.029948
      9 C                     0.458262
     10 O                    -0.454224
     11 O                    -0.298343
     12 F                    -0.213215
     13 C                    -0.054943
     14 H                     0.116187
     15 H                     0.083974
     16 H                     0.083936
     17 C                    -0.362468
     18 H                     0.111230
     19 H                     0.158596
     20 H                     0.136881
     21 H                     0.212365
  ----------------------------------------
  Sum of atomic charges =     0.000000

                    Cartesian Multipole Moments
 -----------------------------------------------------------------
    Charge (ESU x 10^10)
                -0.0000
    Dipole Moment (Debye)
         X       0.4192      Y       1.1775      Z       4.1515
       Tot       4.3356
    Quadrupole Moments (Debye-Ang)
        XX     -95.5655     XY       2.1359     YY     -82.6356
        XZ      -1.9073     YZ     -13.2239     ZZ     -94.9095

 Total job time:  54.34s(wall), 1941.02s(cpu)
        *  Thank you very much for using Q-Chem.  Have a nice day.  *
