 Q-Chem 5.4, Q-Chem, Inc., Pleasanton, CA (2021)
 Q-Chem 5.4.0 for Intel X86 EM64T Linux

User input:
--------------------------------------------------------------
$molecule
0 1
C	-0.375236	-0.753180	1.025038
S	0.006864	0.061020	2.535738
C	0.671664	1.489220	1.752638
C	0.008564	0.069920	-0.039662
C	0.594164	1.329320	0.346738
C	-0.018036	0.009120	-1.461062
C	0.516464	1.155520	-2.081862
S	1.040664	2.287520	-0.940662
C	0.628264	1.384120	-3.534962
O	0.236364	0.536820	-4.325262
O	1.173464	2.545720	-3.979362
F	-0.485336	-1.002280	-2.221262
C	1.334264	2.866520	-5.309962
H	1.801764	3.867720	-5.345262
H	0.362164	2.890220	-5.850562
H	1.984164	2.133220	-5.836862
C	-0.375236	-2.188380	1.025038
H	-0.752536	-2.197380	0.013138
H	0.410064	-2.872280	0.738838
H	-1.259636	-2.712780	1.355438
H	1.060564	2.323020	2.346538
$end

$rem
JOBTYPE		SP
EXCHANGE	HF
CORRELATION	pRIMP2
BASIS		cc-pvtz
METHOD		rimp2
AUX_BASIS	rimp2-cc-pvtz
SOLVENT_METHOD	PCM
PURECART	11111
SYMMETRY	false
MEM_TOTAL	110000
SCF_CONVERGENCE = 6
THRESH=10
GUI = 2
$end

$solvent
dielectric 4.90
$end
--------------------------------------------------------------

             Standard Nuclear Orientation (Angstroms)
    I     Atom           X                Y                Z
 ----------------------------------------------------------------
    1      C      -0.3752360000    -0.7531800000     1.0250380000
    2      S       0.0068640000     0.0610200000     2.5357380000
    3      C       0.6716640000     1.4892200000     1.7526380000
    4      C       0.0085640000     0.0699200000    -0.0396620000
    5      C       0.5941640000     1.3293200000     0.3467380000
    6      C      -0.0180360000     0.0091200000    -1.4610620000
    7      C       0.5164640000     1.1555200000    -2.0818620000
    8      S       1.0406640000     2.2875200000    -0.9406620000
    9      C       0.6282640000     1.3841200000    -3.5349620000
   10      O       0.2363640000     0.5368200000    -4.3252620000
   11      O       1.1734640000     2.5457200000    -3.9793620000
   12      F      -0.4853360000    -1.0022800000    -2.2212620000
   13      C       1.3342640000     2.8665200000    -5.3099620000
   14      H       1.8017640000     3.8677200000    -5.3452620000
   15      H       0.3621640000     2.8902200000    -5.8505620000
   16      H       1.9841640000     2.1332200000    -5.8368620000
   17      C      -0.3752360000    -2.1883800000     1.0250380000
   18      H      -0.7525360000    -2.1973800000     0.0131380000
   19      H       0.4100640000    -2.8722800000     0.7388380000
   20      H      -1.2596360000    -2.7127800000     1.3554380000
   21      H       1.0605640000     2.3230200000     2.3465380000
 ----------------------------------------------------------------

   11   -1389.2424920715      5.48e-07  Convergence criterion met
 Total energy in the final basis set =    -1389.2424920715
        RIMP2         total energy =     -1391.7535548616 a.u.

                    Orbital Energies (a.u.)
 --------------------------------------------------------------

 Alpha MOs
 -- Occupied --
-92.0031 -91.9924 -26.3351 -20.6115 -20.5492 -11.4095 -11.3762 -11.3010
-11.2951 -11.2922 -11.2888 -11.2883 -11.2756 -11.2250  -9.0022  -8.9965
 -6.6829  -6.6823  -6.6819  -6.6777  -6.6771  -6.6757  -1.6484  -1.4712
 -1.3665  -1.2290  -1.1459  -1.0677  -1.0274  -1.0053  -0.9691  -0.9109
 -0.8643  -0.7960  -0.7867  -0.7679  -0.7270  -0.7164  -0.6970  -0.6782
 -0.6779  -0.6699  -0.6071  -0.6054  -0.5984  -0.5896  -0.5764  -0.5674
 -0.5433  -0.5252  -0.5063  -0.4819  -0.4755  -0.4616  -0.4606  -0.4484
 -0.3958  -0.3449  -0.2833

          Ground-State Mulliken Net Atomic Charges

     Atom                 Charge (a.u.)
  ----------------------------------------
      1 C                     0.009656
      2 S                     0.087804
      3 C                    -0.238362
      4 C                    -0.094138
      5 C                    -0.012884
      6 C                     0.369028
      7 C                    -0.150215
      8 S                     0.036325
      9 C                     0.457432
     10 O                    -0.452018
     11 O                    -0.297918
     12 F                    -0.212690
     13 C                    -0.054749
     14 H                     0.116538
     15 H                     0.084240
     16 H                     0.084137
     17 C                    -0.355144
     18 H                     0.114211
     19 H                     0.157786
     20 H                     0.140161
     21 H                     0.210801
  ----------------------------------------
  Sum of atomic charges =     0.000000

                    Cartesian Multipole Moments
 -----------------------------------------------------------------
    Charge (ESU x 10^10)
                -0.0000
    Dipole Moment (Debye)
         X       1.1382      Y       1.2760      Z       2.7102
       Tot       3.2045
    Quadrupole Moments (Debye-Ang)
        XX     -94.0935     XY       4.5195     YY     -84.1588
        XZ      -4.6721     YZ      -9.4392     ZZ     -97.1107

 Total job time:  53.43s(wall), 1922.84s(cpu)
        *  Thank you very much for using Q-Chem.  Have a nice day.  *
