 Q-Chem 5.4, Q-Chem, Inc., Pleasanton, CA (2021)
 Q-Chem 5.4.0 for Intel X86 EM64T Linux

User input:
--------------------------------------------------------------
$molecule
0 1
C	-0.571370	-0.628442	1.025276
S	0.008530	0.059158	2.535976
C	1.020230	1.266558	1.752876
C	0.012430	0.067358	-0.039424
C	0.903930	1.132158	0.346976
C	-0.028970	0.015358	-1.460824
C	0.783930	0.984358	-2.081624
S	1.583230	1.942158	-0.940424
C	0.951030	1.176358	-3.534724
O	0.353330	0.459358	-4.325024
O	1.778330	2.157258	-3.979124
F	-0.742170	-0.840542	-2.221024
C	2.016730	2.425458	-5.309724
H	2.727430	3.271558	-5.345024
H	1.083930	2.699958	-5.850324
H	2.454630	1.548958	-5.836624
C	-0.571370	-2.063642	1.025276
H	-0.392170	-2.072642	-0.039724
H	0.251830	-2.747542	1.170076
H	-1.502570	-2.588042	0.869176
H	1.611730	1.971358	2.346776
$end

$rem
JOBTYPE		SP
EXCHANGE	HF
CORRELATION	pRIMP2
BASIS		cc-pvtz
METHOD		rimp2
AUX_BASIS	rimp2-cc-pvtz
SOLVENT_METHOD	PCM
PURECART	11111
SYMMETRY	false
MEM_TOTAL	110000
SCF_CONVERGENCE = 6
THRESH=10
GUI = 2
$end

$solvent
dielectric 4.90
$end
--------------------------------------------------------------

             Standard Nuclear Orientation (Angstroms)
    I     Atom           X                Y                Z
 ----------------------------------------------------------------
    1      C      -0.5713700000    -0.6284420000     1.0252760000
    2      S       0.0085300000     0.0591580000     2.5359760000
    3      C       1.0202300000     1.2665580000     1.7528760000
    4      C       0.0124300000     0.0673580000    -0.0394240000
    5      C       0.9039300000     1.1321580000     0.3469760000
    6      C      -0.0289700000     0.0153580000    -1.4608240000
    7      C       0.7839300000     0.9843580000    -2.0816240000
    8      S       1.5832300000     1.9421580000    -0.9404240000
    9      C       0.9510300000     1.1763580000    -3.5347240000
   10      O       0.3533300000     0.4593580000    -4.3250240000
   11      O       1.7783300000     2.1572580000    -3.9791240000
   12      F      -0.7421700000    -0.8405420000    -2.2210240000
   13      C       2.0167300000     2.4254580000    -5.3097240000
   14      H       2.7274300000     3.2715580000    -5.3450240000
   15      H       1.0839300000     2.6999580000    -5.8503240000
   16      H       2.4546300000     1.5489580000    -5.8366240000
   17      C      -0.5713700000    -2.0636420000     1.0252760000
   18      H      -0.3921700000    -2.0726420000    -0.0397240000
   19      H       0.2518300000    -2.7475420000     1.1700760000
   20      H      -1.5025700000    -2.5880420000     0.8691760000
   21      H       1.6117300000     1.9713580000     2.3467760000
 ----------------------------------------------------------------

   11   -1389.2198244496      6.48e-07  Convergence criterion met
 Total energy in the final basis set =    -1389.2198244496
        RIMP2         total energy =     -1391.7373245273 a.u.

                    Orbital Energies (a.u.)
 --------------------------------------------------------------

 Alpha MOs
 -- Occupied --
-92.0041 -91.9955 -26.3351 -20.6127 -20.5514 -11.4113 -11.3752 -11.2995
-11.2970 -11.2927 -11.2890 -11.2889 -11.2775 -11.2205  -9.0032  -8.9994
 -6.6839  -6.6831  -6.6829  -6.6806  -6.6800  -6.6787  -1.6484  -1.4726
 -1.3682  -1.2313  -1.1485  -1.0693  -1.0282  -1.0031  -0.9702  -0.9085
 -0.8655  -0.7963  -0.7876  -0.7696  -0.7279  -0.7168  -0.6972  -0.6792
 -0.6773  -0.6714  -0.6072  -0.6050  -0.6000  -0.5901  -0.5829  -0.5639
 -0.5374  -0.5266  -0.5076  -0.4838  -0.4683  -0.4629  -0.4614  -0.4476
 -0.3931  -0.3433  -0.2867

          Ground-State Mulliken Net Atomic Charges

     Atom                 Charge (a.u.)
  ----------------------------------------
      1 C                    -0.039691
      2 S                     0.096839
      3 C                    -0.218079
      4 C                    -0.060249
      5 C                    -0.015322
      6 C                     0.340819
      7 C                    -0.136132
      8 S                     0.046996
      9 C                     0.456148
     10 O                    -0.448406
     11 O                    -0.297542
     12 F                    -0.211116
     13 C                    -0.054596
     14 H                     0.116798
     15 H                     0.084682
     16 H                     0.084394
     17 C                    -0.354962
     18 H                     0.115742
     19 H                     0.157435
     20 H                     0.124330
     21 H                     0.211912
  ----------------------------------------
  Sum of atomic charges =     0.000000

                    Cartesian Multipole Moments
 -----------------------------------------------------------------
    Charge (ESU x 10^10)
                -0.0000
    Dipole Moment (Debye)
         X       2.6249      Y       1.4447      Z       2.5555
       Tot       3.9380
    Quadrupole Moments (Debye-Ang)
        XX     -92.1927     XY       4.8748     YY     -87.0585
        XZ      -5.9487     YZ      -7.7958     ZZ     -96.1476

 Total job time:  56.50s(wall), 1999.61s(cpu)
        *  Thank you very much for using Q-Chem.  Have a nice day.  *
