 Q-Chem 5.4, Q-Chem, Inc., Pleasanton, CA (2021)
 Q-Chem 5.4.0 for Intel X86 EM64T Linux

User input:
--------------------------------------------------------------
$molecule
0 1
C	-0.375620	-0.753180	1.025187
S	0.006480	0.061020	2.535887
C	0.671280	1.489220	1.752787
C	0.008180	0.069920	-0.039513
C	0.593780	1.329320	0.346887
C	-0.018420	0.009120	-1.460913
C	0.516080	1.155520	-2.081713
S	1.040280	2.287520	-0.940513
C	0.627880	1.384120	-3.534813
O	0.235980	0.536820	-4.325113
O	1.173080	2.545720	-3.979213
F	-0.485720	-1.002280	-2.221113
C	1.333880	2.866520	-5.309813
H	1.801380	3.867720	-5.345113
H	0.361780	2.890220	-5.850413
H	1.983780	2.133220	-5.836713
C	-0.375620	-2.188380	1.025187
H	-0.571520	-2.197380	-0.036913
H	0.447480	-2.872280	0.879687
H	-1.304020	-2.712780	1.196987
H	1.060180	2.323020	2.346687
$end

$rem
JOBTYPE		SP
EXCHANGE	HF
CORRELATION	pRIMP2
BASIS		cc-pvtz
METHOD		rimp2
AUX_BASIS	rimp2-cc-pvtz
SOLVENT_METHOD	PCM
PURECART	11111
SYMMETRY	false
MEM_TOTAL	110000
SCF_CONVERGENCE = 6
THRESH=10
GUI = 2
$end

$solvent
dielectric 4.90
$end
--------------------------------------------------------------

             Standard Nuclear Orientation (Angstroms)
    I     Atom           X                Y                Z
 ----------------------------------------------------------------
    1      C      -0.3756200000    -0.7531800000     1.0251870000
    2      S       0.0064800000     0.0610200000     2.5358870000
    3      C       0.6712800000     1.4892200000     1.7527870000
    4      C       0.0081800000     0.0699200000    -0.0395130000
    5      C       0.5937800000     1.3293200000     0.3468870000
    6      C      -0.0184200000     0.0091200000    -1.4609130000
    7      C       0.5160800000     1.1555200000    -2.0817130000
    8      S       1.0402800000     2.2875200000    -0.9405130000
    9      C       0.6278800000     1.3841200000    -3.5348130000
   10      O       0.2359800000     0.5368200000    -4.3251130000
   11      O       1.1730800000     2.5457200000    -3.9792130000
   12      F      -0.4857200000    -1.0022800000    -2.2211130000
   13      C       1.3338800000     2.8665200000    -5.3098130000
   14      H       1.8013800000     3.8677200000    -5.3451130000
   15      H       0.3617800000     2.8902200000    -5.8504130000
   16      H       1.9837800000     2.1332200000    -5.8367130000
   17      C      -0.3756200000    -2.1883800000     1.0251870000
   18      H      -0.5715200000    -2.1973800000    -0.0369130000
   19      H       0.4474800000    -2.8722800000     0.8796870000
   20      H      -1.3040200000    -2.7127800000     1.1969870000
   21      H       1.0601800000     2.3230200000     2.3466870000
 ----------------------------------------------------------------

   11   -1389.2420850947      5.53e-07  Convergence criterion met
 Total energy in the final basis set =    -1389.2420850947
        RIMP2         total energy =     -1391.7534105793 a.u.

                    Orbital Energies (a.u.)
 --------------------------------------------------------------

 Alpha MOs
 -- Occupied --
-92.0031 -91.9926 -26.3354 -20.6117 -20.5495 -11.4097 -11.3762 -11.3003
-11.2957 -11.2922 -11.2894 -11.2884 -11.2760 -11.2245  -9.0022  -8.9967
 -6.6829  -6.6822  -6.6819  -6.6780  -6.6773  -6.6760  -1.6487  -1.4714
 -1.3667  -1.2292  -1.1459  -1.0679  -1.0275  -1.0052  -0.9692  -0.9107
 -0.8645  -0.7961  -0.7870  -0.7681  -0.7272  -0.7167  -0.6971  -0.6783
 -0.6779  -0.6702  -0.6069  -0.6055  -0.5988  -0.5897  -0.5780  -0.5672
 -0.5429  -0.5254  -0.5061  -0.4821  -0.4727  -0.4620  -0.4609  -0.4481
 -0.3969  -0.3448  -0.2844

          Ground-State Mulliken Net Atomic Charges

     Atom                 Charge (a.u.)
  ----------------------------------------
      1 C                     0.007625
      2 S                     0.087686
      3 C                    -0.237083
      4 C                    -0.092462
      5 C                    -0.011807
      6 C                     0.363410
      7 C                    -0.145052
      8 S                     0.037273
      9 C                     0.457034
     10 O                    -0.451569
     11 O                    -0.297840
     12 F                    -0.212589
     13 C                    -0.054756
     14 H                     0.116592
     15 H                     0.084294
     16 H                     0.084171
     17 C                    -0.350653
     18 H                     0.111403
     19 H                     0.157020
     20 H                     0.136392
     21 H                     0.210911
  ----------------------------------------
  Sum of atomic charges =     0.000000

                    Cartesian Multipole Moments
 -----------------------------------------------------------------
    Charge (ESU x 10^10)
                -0.0000
    Dipole Moment (Debye)
         X       1.2741      Y       1.3421      Z       2.6610
       Tot       3.2412
    Quadrupole Moments (Debye-Ang)
        XX     -94.1163     XY       4.2189     YY     -84.1951
        XZ      -4.4338     YZ      -9.3680     ZZ     -97.1041

 Total job time:  54.46s(wall), 1951.88s(cpu)
        *  Thank you very much for using Q-Chem.  Have a nice day.  *
