 Q-Chem 5.4, Q-Chem, Inc., Pleasanton, CA (2021)
 Q-Chem 5.4.0 for Intel X86 EM64T Linux

User input:
--------------------------------------------------------------
$molecule
0 1
C	-0.374966	-0.753180	1.020958
S	0.007134	0.061020	2.531658
C	0.671934	1.489220	1.748558
C	0.008834	0.069920	-0.043742
C	0.594434	1.329320	0.342658
C	-0.017766	0.009120	-1.465142
C	0.516734	1.155520	-2.085942
S	1.040934	2.287520	-0.944742
C	0.628534	1.384120	-3.539042
O	0.236634	0.536820	-4.329342
O	1.173734	2.545720	-3.983442
F	-0.485066	-1.002280	-2.225342
C	1.334534	2.866520	-5.314042
H	1.802034	3.867720	-5.349342
H	0.362434	2.890220	-5.854642
H	1.984434	2.133220	-5.840942
C	-0.374966	-2.188380	1.020958
H	-1.062666	-2.197380	1.853658
H	-1.015466	-2.872280	0.483958
H	0.353434	-2.712780	1.621658
H	1.060834	2.323020	2.342458
$end

$rem
JOBTYPE		SP
EXCHANGE	HF
CORRELATION	pRIMP2
BASIS		cc-pvtz
METHOD		rimp2
AUX_BASIS	rimp2-cc-pvtz
SOLVENT_METHOD	PCM
PURECART	11111
SYMMETRY	false
MEM_TOTAL	110000
SCF_CONVERGENCE = 6
THRESH=10
GUI = 2
$end

$solvent
dielectric 4.90
$end
--------------------------------------------------------------

             Standard Nuclear Orientation (Angstroms)
    I     Atom           X                Y                Z
 ----------------------------------------------------------------
    1      C      -0.3749660000    -0.7531800000     1.0209580000
    2      S       0.0071340000     0.0610200000     2.5316580000
    3      C       0.6719340000     1.4892200000     1.7485580000
    4      C       0.0088340000     0.0699200000    -0.0437420000
    5      C       0.5944340000     1.3293200000     0.3426580000
    6      C      -0.0177660000     0.0091200000    -1.4651420000
    7      C       0.5167340000     1.1555200000    -2.0859420000
    8      S       1.0409340000     2.2875200000    -0.9447420000
    9      C       0.6285340000     1.3841200000    -3.5390420000
   10      O       0.2366340000     0.5368200000    -4.3293420000
   11      O       1.1737340000     2.5457200000    -3.9834420000
   12      F      -0.4850660000    -1.0022800000    -2.2253420000
   13      C       1.3345340000     2.8665200000    -5.3140420000
   14      H       1.8020340000     3.8677200000    -5.3493420000
   15      H       0.3624340000     2.8902200000    -5.8546420000
   16      H       1.9844340000     2.1332200000    -5.8409420000
   17      C      -0.3749660000    -2.1883800000     1.0209580000
   18      H      -1.0626660000    -2.1973800000     1.8536580000
   19      H      -1.0154660000    -2.8722800000     0.4839580000
   20      H       0.3534340000    -2.7127800000     1.6216580000
   21      H       1.0608340000     2.3230200000     2.3424580000
 ----------------------------------------------------------------

   11   -1389.2406529436      5.15e-07  Convergence criterion met
 Total energy in the final basis set =    -1389.2406529436
        RIMP2         total energy =     -1391.7494872191 a.u.

                    Orbital Energies (a.u.)
 --------------------------------------------------------------

 Alpha MOs
 -- Occupied --
-92.0084 -91.9901 -26.3329 -20.6104 -20.5474 -11.4078 -11.3749 -11.3048
-11.2919 -11.2916 -11.2876 -11.2859 -11.2692 -11.2274  -9.0071  -8.9943
 -6.6879  -6.6873  -6.6869  -6.6756  -6.6749  -6.6735  -1.6458  -1.4700
 -1.3650  -1.2272  -1.1474  -1.0651  -1.0293  -1.0048  -0.9684  -0.9096
 -0.8642  -0.7964  -0.7843  -0.7677  -0.7262  -0.7139  -0.6950  -0.6771
 -0.6756  -0.6681  -0.6095  -0.6042  -0.5944  -0.5873  -0.5819  -0.5621
 -0.5377  -0.5254  -0.5076  -0.4826  -0.4804  -0.4616  -0.4590  -0.4579
 -0.3912  -0.3462  -0.2790

          Ground-State Mulliken Net Atomic Charges

     Atom                 Charge (a.u.)
  ----------------------------------------
      1 C                    -0.011982
      2 S                     0.086734
      3 C                    -0.245467
      4 C                    -0.054815
      5 C                    -0.013037
      6 C                     0.366211
      7 C                    -0.160018
      8 S                     0.030272
      9 C                     0.457441
     10 O                    -0.454033
     11 O                    -0.298347
     12 F                    -0.211267
     13 C                    -0.054789
     14 H                     0.116210
     15 H                     0.083949
     16 H                     0.083909
     17 C                    -0.365492
     18 H                     0.122286
     19 H                     0.163062
     20 H                     0.147386
     21 H                     0.211786
  ----------------------------------------
  Sum of atomic charges =     0.000000

                    Cartesian Multipole Moments
 -----------------------------------------------------------------
    Charge (ESU x 10^10)
                -0.0000
    Dipole Moment (Debye)
         X       0.8428      Y       0.9670      Z       4.0178
       Tot       4.2176
    Quadrupole Moments (Debye-Ang)
        XX     -94.2449     XY       5.0724     YY     -84.1705
        XZ      -4.6294     YZ     -11.9465     ZZ     -94.9903

 Total job time:  52.46s(wall), 1911.39s(cpu)
        *  Thank you very much for using Q-Chem.  Have a nice day.  *
