 Q-Chem 5.4, Q-Chem, Inc., Pleasanton, CA (2021)
 Q-Chem 5.4.0 for Intel X86 EM64T Linux

User input:
--------------------------------------------------------------
$molecule
0 1
C	-0.002456	-0.836989	1.020653
S	-0.000256	0.062411	2.531353
C	-0.001256	1.637711	1.748253
C	-0.002456	0.071211	-0.044047
C	-0.003956	1.460011	0.342353
C	-0.000856	0.004811	-1.465447
C	-0.000956	1.269711	-2.086247
S	-0.004256	2.517211	-0.945047
C	0.003744	1.524111	-3.539347
O	0.006744	0.590611	-4.329647
O	0.006944	2.807311	-3.983747
F	0.003044	-1.109289	-2.225647
C	0.017144	3.166011	-5.314347
H	0.017744	4.271011	-5.349647
H	-0.873856	2.776711	-5.854947
H	0.916044	2.776111	-5.841247
C	-0.002456	-2.272189	1.020653
H	0.193444	-2.281189	2.082753
H	-0.825556	-2.956089	1.166153
H	0.925944	-2.796589	0.848853
H	-0.001256	2.557811	2.342153
$end

$rem
JOBTYPE		SP
EXCHANGE	HF
CORRELATION	pRIMP2
BASIS		cc-pvtz
METHOD		rimp2
AUX_BASIS	rimp2-cc-pvtz
SOLVENT_METHOD	PCM
PURECART	11111
SYMMETRY	false
MEM_TOTAL	110000
SCF_CONVERGENCE = 6
THRESH=10
GUI = 2
$end

$solvent
dielectric 4.90
$end
--------------------------------------------------------------

             Standard Nuclear Orientation (Angstroms)
    I     Atom           X                Y                Z
 ----------------------------------------------------------------
    1      C      -0.0024560000    -0.8369890000     1.0206530000
    2      S      -0.0002560000     0.0624110000     2.5313530000
    3      C      -0.0012560000     1.6377110000     1.7482530000
    4      C      -0.0024560000     0.0712110000    -0.0440470000
    5      C      -0.0039560000     1.4600110000     0.3423530000
    6      C      -0.0008560000     0.0048110000    -1.4654470000
    7      C      -0.0009560000     1.2697110000    -2.0862470000
    8      S      -0.0042560000     2.5172110000    -0.9450470000
    9      C       0.0037440000     1.5241110000    -3.5393470000
   10      O       0.0067440000     0.5906110000    -4.3296470000
   11      O       0.0069440000     2.8073110000    -3.9837470000
   12      F       0.0030440000    -1.1092890000    -2.2256470000
   13      C       0.0171440000     3.1660110000    -5.3143470000
   14      H       0.0177440000     4.2710110000    -5.3496470000
   15      H      -0.8738560000     2.7767110000    -5.8549470000
   16      H       0.9160440000     2.7761110000    -5.8412470000
   17      C      -0.0024560000    -2.2721890000     1.0206530000
   18      H       0.1934440000    -2.2811890000     2.0827530000
   19      H      -0.8255560000    -2.9560890000     1.1661530000
   20      H       0.9259440000    -2.7965890000     0.8488530000
   21      H      -0.0012560000     2.5578110000     2.3421530000
 ----------------------------------------------------------------

   11   -1389.2523931495      4.83e-07  Convergence criterion met
 Total energy in the final basis set =    -1389.2523931495
        RIMP2         total energy =     -1391.7585639423 a.u.

                    Orbital Energies (a.u.)
 --------------------------------------------------------------

 Alpha MOs
 -- Occupied --
-92.0098 -91.9899 -26.3329 -20.6103 -20.5473 -11.4077 -11.3750 -11.3074
-11.2915 -11.2914 -11.2876 -11.2838 -11.2690 -11.2285  -9.0084  -8.9940
 -6.6892  -6.6886  -6.6881  -6.6753  -6.6747  -6.6733  -1.6459  -1.4699
 -1.3650  -1.2267  -1.1467  -1.0650  -1.0297  -1.0054  -0.9684  -0.9101
 -0.8643  -0.7967  -0.7840  -0.7677  -0.7262  -0.7139  -0.6956  -0.6770
 -0.6762  -0.6679  -0.6087  -0.6041  -0.5974  -0.5873  -0.5759  -0.5678
 -0.5439  -0.5247  -0.5048  -0.4808  -0.4739  -0.4640  -0.4599  -0.4578
 -0.3959  -0.3463  -0.2822

          Ground-State Mulliken Net Atomic Charges

     Atom                 Charge (a.u.)
  ----------------------------------------
      1 C                     0.044612
      2 S                     0.084560
      3 C                    -0.257657
      4 C                    -0.089097
      5 C                    -0.009554
      6 C                     0.391391
      7 C                    -0.163320
      8 S                     0.028941
      9 C                     0.459007
     10 O                    -0.454630
     11 O                    -0.298412
     12 F                    -0.213933
     13 C                    -0.055000
     14 H                     0.116193
     15 H                     0.084005
     16 H                     0.083892
     17 C                    -0.367311
     18 H                     0.112035
     19 H                     0.150643
     20 H                     0.141362
     21 H                     0.212271
  ----------------------------------------
  Sum of atomic charges =     0.000000

                    Cartesian Multipole Moments
 -----------------------------------------------------------------
    Charge (ESU x 10^10)
                -0.0000
    Dipole Moment (Debye)
         X       0.1395      Y       1.1689      Z       4.1610
       Tot       4.3243
    Quadrupole Moments (Debye-Ang)
        XX     -95.8817     XY      -0.1763     YY     -82.2925
        XZ      -0.0238     YZ     -13.4822     ZZ     -94.9669

 Total job time:  53.22s(wall), 1917.37s(cpu)
        *  Thank you very much for using Q-Chem.  Have a nice day.  *
