 Q-Chem 5.4, Q-Chem, Inc., Pleasanton, CA (2021)
 Q-Chem 5.4.0 for Intel X86 EM64T Linux

User input:
--------------------------------------------------------------
$molecule
0 1
C	-0.445062	-0.717327	1.020573
S	0.006538	0.060473	2.531273
C	0.793338	1.425273	1.748173
C	0.009038	0.069273	-0.044127
C	0.702138	1.272673	0.342273
C	-0.022762	0.010873	-1.465527
C	0.609538	1.106373	-2.086327
S	1.230438	2.188373	-0.945127
C	0.740838	1.324373	-3.539427
O	0.276638	0.514473	-4.329727
O	1.385238	2.434073	-3.983827
F	-0.576362	-0.955927	-2.225727
C	1.573438	2.739673	-5.314427
H	2.126438	3.696273	-5.349727
H	0.607138	2.847873	-5.855027
H	2.156838	1.952473	-5.841327
C	-0.445062	-2.152527	1.020573
H	-0.436562	-2.161527	2.100473
H	-1.280962	-2.836427	1.020973
H	0.499038	-2.676927	1.012573
H	1.253338	2.221973	2.342073
$end

$rem
JOBTYPE		SP
EXCHANGE	HF
CORRELATION	pRIMP2
BASIS		cc-pvtz
METHOD		rimp2
AUX_BASIS	rimp2-cc-pvtz
SOLVENT_METHOD	PCM
PURECART	11111
SYMMETRY	false
MEM_TOTAL	110000
SCF_CONVERGENCE = 6
THRESH=10
GUI = 2
$end

$solvent
dielectric 4.90
$end
--------------------------------------------------------------

             Standard Nuclear Orientation (Angstroms)
    I     Atom           X                Y                Z
 ----------------------------------------------------------------
    1      C      -0.4450620000    -0.7173270000     1.0205730000
    2      S       0.0065380000     0.0604730000     2.5312730000
    3      C       0.7933380000     1.4252730000     1.7481730000
    4      C       0.0090380000     0.0692730000    -0.0441270000
    5      C       0.7021380000     1.2726730000     0.3422730000
    6      C      -0.0227620000     0.0108730000    -1.4655270000
    7      C       0.6095380000     1.1063730000    -2.0863270000
    8      S       1.2304380000     2.1883730000    -0.9451270000
    9      C       0.7408380000     1.3243730000    -3.5394270000
   10      O       0.2766380000     0.5144730000    -4.3297270000
   11      O       1.3852380000     2.4340730000    -3.9838270000
   12      F      -0.5763620000    -0.9559270000    -2.2257270000
   13      C       1.5734380000     2.7396730000    -5.3144270000
   14      H       2.1264380000     3.6962730000    -5.3497270000
   15      H       0.6071380000     2.8478730000    -5.8550270000
   16      H       2.1568380000     1.9524730000    -5.8413270000
   17      C      -0.4450620000    -2.1525270000     1.0205730000
   18      H      -0.4365620000    -2.1615270000     2.1004730000
   19      H      -1.2809620000    -2.8364270000     1.0209730000
   20      H       0.4990380000    -2.6769270000     1.0125730000
   21      H       1.2533380000     2.2219730000     2.3420730000
 ----------------------------------------------------------------

   11   -1389.2342846948      5.59e-07  Convergence criterion met
 Total energy in the final basis set =    -1389.2342846948
        RIMP2         total energy =     -1391.7460277589 a.u.

                    Orbital Energies (a.u.)
 --------------------------------------------------------------

 Alpha MOs
 -- Occupied --
-92.0087 -91.9919 -26.3327 -20.6112 -20.5490 -11.4091 -11.3743 -11.2973
-11.2949 -11.2921 -11.2907 -11.2880 -11.2716 -11.2247  -9.0076  -8.9960
 -6.6883  -6.6876  -6.6872  -6.6773  -6.6767  -6.6753  -1.6457  -1.4709
 -1.3662  -1.2284  -1.1487  -1.0651  -1.0305  -1.0038  -0.9692  -0.9077
 -0.8656  -0.7971  -0.7846  -0.7692  -0.7269  -0.7139  -0.6953  -0.6778
 -0.6752  -0.6690  -0.6089  -0.6052  -0.5976  -0.5884  -0.5748  -0.5659
 -0.5417  -0.5255  -0.5057  -0.4827  -0.4709  -0.4613  -0.4604  -0.4570
 -0.3946  -0.3449  -0.2843

          Ground-State Mulliken Net Atomic Charges

     Atom                 Charge (a.u.)
  ----------------------------------------
      1 C                     0.014925
      2 S                     0.088965
      3 C                    -0.237635
      4 C                    -0.088285
      5 C                    -0.007209
      6 C                     0.362755
      7 C                    -0.155046
      8 S                     0.036862
      9 C                     0.456375
     10 O                    -0.451257
     11 O                    -0.298071
     12 F                    -0.210821
     13 C                    -0.054856
     14 H                     0.116433
     15 H                     0.084267
     16 H                     0.084194
     17 C                    -0.356171
     18 H                     0.110992
     19 H                     0.148322
     20 H                     0.142224
     21 H                     0.213038
  ----------------------------------------
  Sum of atomic charges =     0.000000

                    Cartesian Multipole Moments
 -----------------------------------------------------------------
    Charge (ESU x 10^10)
                -0.0000
    Dipole Moment (Debye)
         X       1.7274      Y       1.3320      Z       3.9887
       Tot       4.5462
    Quadrupole Moments (Debye-Ang)
        XX     -93.6374     XY       4.5349     YY     -85.2239
        XZ      -5.3449     YZ     -11.6256     ZZ     -94.2747

 Total job time:  53.37s(wall), 1913.79s(cpu)
        *  Thank you very much for using Q-Chem.  Have a nice day.  *
