 Q-Chem 5.4, Q-Chem, Inc., Pleasanton, CA (2021)
 Q-Chem 5.4.0 for Intel X86 EM64T Linux

User input:
--------------------------------------------------------------
$molecule
0 1
C	-0.444244	-0.717327	1.020627
S	0.007356	0.060473	2.531327
C	0.794156	1.425273	1.748227
C	0.009856	0.069273	-0.044073
C	0.702956	1.272673	0.342327
C	-0.021944	0.010873	-1.465473
C	0.610356	1.106373	-2.086273
S	1.231256	2.188373	-0.945073
C	0.741656	1.324373	-3.539373
O	0.277456	0.514473	-4.329673
O	1.386056	2.434073	-3.983773
F	-0.575544	-0.955927	-2.225673
C	1.574256	2.739673	-5.314373
H	2.127256	3.696273	-5.349673
H	0.607956	2.847873	-5.854973
H	2.157656	1.952473	-5.841273
C	-0.444244	-2.152527	1.020627
H	-0.805644	-2.161527	2.038327
H	-1.229844	-2.836427	0.735127
H	0.445656	-2.676927	1.336027
H	1.254156	2.221973	2.342127
$end

$rem
JOBTYPE		SP
EXCHANGE	HF
CORRELATION	pRIMP2
BASIS		cc-pvtz
METHOD		rimp2
AUX_BASIS	rimp2-cc-pvtz
SOLVENT_METHOD	PCM
PURECART	11111
SYMMETRY	false
MEM_TOTAL	110000
SCF_CONVERGENCE = 6
THRESH=10
GUI = 2
$end

$solvent
dielectric 4.90
$end
--------------------------------------------------------------

             Standard Nuclear Orientation (Angstroms)
    I     Atom           X                Y                Z
 ----------------------------------------------------------------
    1      C      -0.4442440000    -0.7173270000     1.0206270000
    2      S       0.0073560000     0.0604730000     2.5313270000
    3      C       0.7941560000     1.4252730000     1.7482270000
    4      C       0.0098560000     0.0692730000    -0.0440730000
    5      C       0.7029560000     1.2726730000     0.3423270000
    6      C      -0.0219440000     0.0108730000    -1.4654730000
    7      C       0.6103560000     1.1063730000    -2.0862730000
    8      S       1.2312560000     2.1883730000    -0.9450730000
    9      C       0.7416560000     1.3243730000    -3.5393730000
   10      O       0.2774560000     0.5144730000    -4.3296730000
   11      O       1.3860560000     2.4340730000    -3.9837730000
   12      F      -0.5755440000    -0.9559270000    -2.2256730000
   13      C       1.5742560000     2.7396730000    -5.3143730000
   14      H       2.1272560000     3.6962730000    -5.3496730000
   15      H       0.6079560000     2.8478730000    -5.8549730000
   16      H       2.1576560000     1.9524730000    -5.8412730000
   17      C      -0.4442440000    -2.1525270000     1.0206270000
   18      H      -0.8056440000    -2.1615270000     2.0383270000
   19      H      -1.2298440000    -2.8364270000     0.7351270000
   20      H       0.4456560000    -2.6769270000     1.3360270000
   21      H       1.2541560000     2.2219730000     2.3421270000
 ----------------------------------------------------------------

   11   -1389.2355317246      5.60e-07  Convergence criterion met
 Total energy in the final basis set =    -1389.2355317246
        RIMP2         total energy =     -1391.7470324836 a.u.

                    Orbital Energies (a.u.)
 --------------------------------------------------------------

 Alpha MOs
 -- Occupied --
-92.0092 -91.9917 -26.3326 -20.6111 -20.5487 -11.4089 -11.3743 -11.2979
-11.2944 -11.2921 -11.2905 -11.2880 -11.2709 -11.2252  -9.0080  -8.9958
 -6.6887  -6.6881  -6.6877  -6.6771  -6.6765  -6.6751  -1.6456  -1.4708
 -1.3660  -1.2281  -1.1482  -1.0650  -1.0301  -1.0041  -0.9690  -0.9084
 -0.8652  -0.7969  -0.7845  -0.7688  -0.7267  -0.7138  -0.6951  -0.6776
 -0.6750  -0.6689  -0.6092  -0.6050  -0.5962  -0.5881  -0.5788  -0.5639
 -0.5395  -0.5256  -0.5059  -0.4819  -0.4704  -0.4635  -0.4602  -0.4589
 -0.3929  -0.3457  -0.2833

          Ground-State Mulliken Net Atomic Charges

     Atom                 Charge (a.u.)
  ----------------------------------------
      1 C                    -0.001903
      2 S                     0.091572
      3 C                    -0.238049
      4 C                    -0.074056
      5 C                    -0.008033
      6 C                     0.359112
      7 C                    -0.154235
      8 S                     0.036135
      9 C                     0.456484
     10 O                    -0.451713
     11 O                    -0.298126
     12 F                    -0.210776
     13 C                    -0.054865
     14 H                     0.116404
     15 H                     0.084199
     16 H                     0.084162
     17 C                    -0.355304
     18 H                     0.109385
     19 H                     0.154971
     20 H                     0.141797
     21 H                     0.212839
  ----------------------------------------
  Sum of atomic charges =     0.000000

                    Cartesian Multipole Moments
 -----------------------------------------------------------------
    Charge (ESU x 10^10)
                -0.0000
    Dipole Moment (Debye)
         X       1.4856      Y       1.2810      Z       3.9777
       Tot       4.4351
    Quadrupole Moments (Debye-Ang)
        XX     -93.5137     XY       5.1107     YY     -85.1280
        XZ      -5.3158     YZ     -11.4679     ZZ     -94.4378

 Total job time:  54.18s(wall), 1924.65s(cpu)
        *  Thank you very much for using Q-Chem.  Have a nice day.  *
