 Q-Chem 5.4, Q-Chem, Inc., Pleasanton, CA (2021)
 Q-Chem 5.4.0 for Intel X86 EM64T Linux

User input:
--------------------------------------------------------------
$molecule
0 1
C	-0.443855	-0.717327	1.020760
S	0.007745	0.060473	2.531460
C	0.794545	1.425273	1.748360
C	0.010245	0.069273	-0.043940
C	0.703345	1.272673	0.342460
C	-0.021555	0.010873	-1.465340
C	0.610745	1.106373	-2.086140
S	1.231645	2.188373	-0.944940
C	0.742045	1.324373	-3.539240
O	0.277845	0.514473	-4.329540
O	1.386445	2.434073	-3.983640
F	-0.575155	-0.955927	-2.225540
C	1.574645	2.739673	-5.314240
H	2.127645	3.696273	-5.349540
H	0.608345	2.847873	-5.854840
H	2.158045	1.952473	-5.841140
C	-0.443855	-2.152527	1.020760
H	-0.976455	-2.161527	1.960260
H	-1.167955	-2.836427	0.603160
H	0.377745	-2.676927	1.485860
H	1.254545	2.221973	2.342260
$end

$rem
JOBTYPE		SP
EXCHANGE	HF
CORRELATION	pRIMP2
BASIS		cc-pvtz
METHOD		rimp2
AUX_BASIS	rimp2-cc-pvtz
SOLVENT_METHOD	PCM
PURECART	11111
SYMMETRY	false
MEM_TOTAL	110000
SCF_CONVERGENCE = 6
THRESH=10
GUI = 2
$end

$solvent
dielectric 4.90
$end
--------------------------------------------------------------

             Standard Nuclear Orientation (Angstroms)
    I     Atom           X                Y                Z
 ----------------------------------------------------------------
    1      C      -0.4438550000    -0.7173270000     1.0207600000
    2      S       0.0077450000     0.0604730000     2.5314600000
    3      C       0.7945450000     1.4252730000     1.7483600000
    4      C       0.0102450000     0.0692730000    -0.0439400000
    5      C       0.7033450000     1.2726730000     0.3424600000
    6      C      -0.0215550000     0.0108730000    -1.4653400000
    7      C       0.6107450000     1.1063730000    -2.0861400000
    8      S       1.2316450000     2.1883730000    -0.9449400000
    9      C       0.7420450000     1.3243730000    -3.5392400000
   10      O       0.2778450000     0.5144730000    -4.3295400000
   11      O       1.3864450000     2.4340730000    -3.9836400000
   12      F      -0.5751550000    -0.9559270000    -2.2255400000
   13      C       1.5746450000     2.7396730000    -5.3142400000
   14      H       2.1276450000     3.6962730000    -5.3495400000
   15      H       0.6083450000     2.8478730000    -5.8548400000
   16      H       2.1580450000     1.9524730000    -5.8411400000
   17      C      -0.4438550000    -2.1525270000     1.0207600000
   18      H      -0.9764550000    -2.1615270000     1.9602600000
   19      H      -1.1679550000    -2.8364270000     0.6031600000
   20      H       0.3777450000    -2.6769270000     1.4858600000
   21      H       1.2545450000     2.2219730000     2.3422600000
 ----------------------------------------------------------------

   11   -1389.2354494117      5.54e-07  Convergence criterion met
 Total energy in the final basis set =    -1389.2354494117
        RIMP2         total energy =     -1391.7466173489 a.u.

                    Orbital Energies (a.u.)
 --------------------------------------------------------------

 Alpha MOs
 -- Occupied --
-92.0089 -91.9914 -26.3327 -20.6109 -20.5484 -11.4086 -11.3744 -11.2992
-11.2938 -11.2920 -11.2897 -11.2879 -11.2705 -11.2255  -9.0076  -8.9955
 -6.6884  -6.6878  -6.6873  -6.6767  -6.6761  -6.6748  -1.6457  -1.4706
 -1.3658  -1.2279  -1.1480  -1.0650  -1.0298  -1.0042  -0.9689  -0.9087
 -0.8649  -0.7967  -0.7845  -0.7685  -0.7266  -0.7138  -0.6950  -0.6775
 -0.6751  -0.6687  -0.6094  -0.6048  -0.5954  -0.5878  -0.5806  -0.5629
 -0.5381  -0.5256  -0.5065  -0.4815  -0.4757  -0.4622  -0.4596  -0.4586
 -0.3917  -0.3459  -0.2817

          Ground-State Mulliken Net Atomic Charges

     Atom                 Charge (a.u.)
  ----------------------------------------
      1 C                    -0.013185
      2 S                     0.090955
      3 C                    -0.238499
      4 C                    -0.062015
      5 C                    -0.010223
      6 C                     0.359994
      7 C                    -0.155641
      8 S                     0.034650
      9 C                     0.456860
     10 O                    -0.452247
     11 O                    -0.298181
     12 F                    -0.210790
     13 C                    -0.054864
     14 H                     0.116369
     15 H                     0.084139
     16 H                     0.084116
     17 C                    -0.360212
     18 H                     0.113871
     19 H                     0.158142
     20 H                     0.144263
     21 H                     0.212497
  ----------------------------------------
  Sum of atomic charges =     0.000000

                    Cartesian Multipole Moments
 -----------------------------------------------------------------
    Charge (ESU x 10^10)
                -0.0000
    Dipole Moment (Debye)
         X       1.3377      Y       1.1844      Z       3.9664
       Tot       4.3503
    Quadrupole Moments (Debye-Ang)
        XX     -93.5160     XY       5.3638     YY     -85.0739
        XZ      -5.3329     YZ     -11.4052     ZZ     -94.5844

 Total job time:  54.13s(wall), 1943.94s(cpu)
        *  Thank you very much for using Q-Chem.  Have a nice day.  *
