 Q-Chem 5.4, Q-Chem, Inc., Pleasanton, CA (2021)
 Q-Chem 5.4.0 for Intel X86 EM64T Linux

User input:
--------------------------------------------------------------
$molecule
0 1
C	-0.305554	-0.782911	1.020653
S	0.004146	0.061489	2.531353
C	0.541946	1.542189	1.748253
C	0.005046	0.070589	-0.044047
C	0.478646	1.376089	0.342353
C	-0.016054	0.007589	-1.465447
C	0.416346	1.196189	-2.086247
S	0.839946	2.369589	-0.945047
C	0.507846	1.433689	-3.539347
O	0.191346	0.555489	-4.329647
O	0.949746	2.638389	-3.983747
F	-0.393454	-1.040711	-2.225647
C	1.081946	2.971989	-5.314347
H	1.460446	4.010189	-5.349647
H	0.111546	2.910889	-5.854947
H	1.793246	2.298089	-5.841247
C	-0.305554	-2.218111	1.020653
H	-0.109654	-2.227111	2.082753
H	-1.128654	-2.902011	1.166153
H	0.622846	-2.742511	0.848853
H	0.856646	2.406689	2.342153
$end

$rem
JOBTYPE		SP
EXCHANGE	HF
CORRELATION	pRIMP2
BASIS		cc-pvtz
METHOD		rimp2
AUX_BASIS	rimp2-cc-pvtz
SOLVENT_METHOD	PCM
PURECART	11111
SYMMETRY	false
MEM_TOTAL	110000
SCF_CONVERGENCE = 6
THRESH=10
GUI = 2
$end

$solvent
dielectric 4.90
$end
--------------------------------------------------------------

             Standard Nuclear Orientation (Angstroms)
    I     Atom           X                Y                Z
 ----------------------------------------------------------------
    1      C      -0.3055540000    -0.7829110000     1.0206530000
    2      S       0.0041460000     0.0614890000     2.5313530000
    3      C       0.5419460000     1.5421890000     1.7482530000
    4      C       0.0050460000     0.0705890000    -0.0440470000
    5      C       0.4786460000     1.3760890000     0.3423530000
    6      C      -0.0160540000     0.0075890000    -1.4654470000
    7      C       0.4163460000     1.1961890000    -2.0862470000
    8      S       0.8399460000     2.3695890000    -0.9450470000
    9      C       0.5078460000     1.4336890000    -3.5393470000
   10      O       0.1913460000     0.5554890000    -4.3296470000
   11      O       0.9497460000     2.6383890000    -3.9837470000
   12      F      -0.3934540000    -1.0407110000    -2.2256470000
   13      C       1.0819460000     2.9719890000    -5.3143470000
   14      H       1.4604460000     4.0101890000    -5.3496470000
   15      H       0.1115460000     2.9108890000    -5.8549470000
   16      H       1.7932460000     2.2980890000    -5.8412470000
   17      C      -0.3055540000    -2.2181110000     1.0206530000
   18      H      -0.1096540000    -2.2271110000     2.0827530000
   19      H      -1.1286540000    -2.9020110000     1.1661530000
   20      H       0.6228460000    -2.7425110000     0.8488530000
   21      H       0.8566460000     2.4066890000     2.3421530000
 ----------------------------------------------------------------

   11   -1389.2441930636      5.09e-07  Convergence criterion met
 Total energy in the final basis set =    -1389.2441930636
        RIMP2         total energy =     -1391.7526322891 a.u.

                    Orbital Energies (a.u.)
 --------------------------------------------------------------

 Alpha MOs
 -- Occupied --
-92.0087 -91.9906 -26.3329 -20.6107 -20.5480 -11.4083 -11.3748 -11.3038
-11.2929 -11.2915 -11.2878 -11.2864 -11.2703 -11.2268  -9.0075  -8.9948
 -6.6882  -6.6876  -6.6872  -6.6760  -6.6754  -6.6740  -1.6458  -1.4703
 -1.3655  -1.2275  -1.1477  -1.0650  -1.0300  -1.0046  -0.9688  -0.9089
 -0.8648  -0.7968  -0.7842  -0.7684  -0.7265  -0.7139  -0.6954  -0.6773
 -0.6758  -0.6683  -0.6089  -0.6046  -0.5977  -0.5878  -0.5718  -0.5695
 -0.5438  -0.5250  -0.5054  -0.4820  -0.4746  -0.4612  -0.4599  -0.4571
 -0.3957  -0.3455  -0.2827

          Ground-State Mulliken Net Atomic Charges

     Atom                 Charge (a.u.)
  ----------------------------------------
      1 C                     0.039212
      2 S                     0.084744
      3 C                    -0.249079
      4 C                    -0.096407
      5 C                    -0.008347
      6 C                     0.376661
      7 C                    -0.161397
      8 S                     0.032306
      9 C                     0.457579
     10 O                    -0.453022
     11 O                    -0.298238
     12 F                    -0.211979
     13 C                    -0.054801
     14 H                     0.116234
     15 H                     0.084161
     16 H                     0.083933
     17 C                    -0.363695
     18 H                     0.115025
     19 H                     0.151352
     20 H                     0.143411
     21 H                     0.212347
  ----------------------------------------
  Sum of atomic charges =     0.000000

                    Cartesian Multipole Moments
 -----------------------------------------------------------------
    Charge (ESU x 10^10)
                -0.0000
    Dipole Moment (Debye)
         X       1.1892      Y       1.2096      Z       4.0822
       Tot       4.4206
    Quadrupole Moments (Debye-Ang)
        XX     -94.9098     XY       3.0455     YY     -83.6885
        XZ      -3.7262     YZ     -12.7028     ZZ     -94.6744

 Total job time:  54.30s(wall), 1980.16s(cpu)
        *  Thank you very much for using Q-Chem.  Have a nice day.  *
