 Q-Chem 5.4, Q-Chem, Inc., Pleasanton, CA (2021)
 Q-Chem 5.4.0 for Intel X86 EM64T Linux

User input:
--------------------------------------------------------------
$molecule
0 1
C	-0.680824	-0.518946	1.025213
S	0.009576	0.057454	2.535913
C	1.215676	1.070954	1.752813
C	0.014876	0.064854	-0.039487
C	1.077776	0.958754	0.346913
C	-0.034924	0.020954	-1.460887
C	0.933976	0.834054	-2.081687
S	1.887476	1.638454	-0.940487
C	1.131876	0.994054	-3.534787
O	0.418676	0.391754	-4.325087
O	2.116976	1.816354	-3.979187
F	-0.885824	-0.698246	-2.221087
C	2.398276	2.039154	-5.309787
H	3.245076	2.748954	-5.345087
H	1.527276	2.471454	-5.850387
H	2.677276	1.099854	-5.836687
C	-0.680824	-1.954146	1.025213
H	-0.319424	-1.963146	0.007513
H	0.104776	-2.638046	1.310713
H	-1.570724	-2.478546	0.709813
H	1.920476	1.662254	2.346713
$end

$rem
JOBTYPE		SP
EXCHANGE	HF
CORRELATION	pRIMP2
BASIS		cc-pvtz
METHOD		rimp2
AUX_BASIS	rimp2-cc-pvtz
SOLVENT_METHOD	PCM
PURECART	11111
SYMMETRY	false
MEM_TOTAL	110000
SCF_CONVERGENCE = 6
THRESH=10
GUI = 2
$end

$solvent
dielectric 4.90
$end
--------------------------------------------------------------

             Standard Nuclear Orientation (Angstroms)
    I     Atom           X                Y                Z
 ----------------------------------------------------------------
    1      C      -0.6808240000    -0.5189460000     1.0252130000
    2      S       0.0095760000     0.0574540000     2.5359130000
    3      C       1.2156760000     1.0709540000     1.7528130000
    4      C       0.0148760000     0.0648540000    -0.0394870000
    5      C       1.0777760000     0.9587540000     0.3469130000
    6      C      -0.0349240000     0.0209540000    -1.4608870000
    7      C       0.9339760000     0.8340540000    -2.0816870000
    8      S       1.8874760000     1.6384540000    -0.9404870000
    9      C       1.1318760000     0.9940540000    -3.5347870000
   10      O       0.4186760000     0.3917540000    -4.3250870000
   11      O       2.1169760000     1.8163540000    -3.9791870000
   12      F      -0.8858240000    -0.6982460000    -2.2210870000
   13      C       2.3982760000     2.0391540000    -5.3097870000
   14      H       3.2450760000     2.7489540000    -5.3450870000
   15      H       1.5272760000     2.4714540000    -5.8503870000
   16      H       2.6772760000     1.0998540000    -5.8366870000
   17      C      -0.6808240000    -1.9541460000     1.0252130000
   18      H      -0.3194240000    -1.9631460000     0.0075130000
   19      H       0.1047760000    -2.6380460000     1.3107130000
   20      H      -1.5707240000    -2.4785460000     0.7098130000
   21      H       1.9204760000     1.6622540000     2.3467130000
 ----------------------------------------------------------------

   11   -1389.1975485770      7.72e-07  Convergence criterion met
 Total energy in the final basis set =    -1389.1975485770
        RIMP2         total energy =     -1391.7203786247 a.u.

                    Orbital Energies (a.u.)
 --------------------------------------------------------------

 Alpha MOs
 -- Occupied --
-92.0056 -91.9984 -26.3345 -20.6136 -20.5530 -11.4126 -11.3742 -11.3036
-11.3028 -11.2935 -11.2894 -11.2793 -11.2781 -11.2170  -9.0047  -9.0021
 -6.6853  -6.6845  -6.6844  -6.6833  -6.6827  -6.6814  -1.6477  -1.4735
 -1.3693  -1.2335  -1.1514  -1.0710  -1.0292  -1.0016  -0.9711  -0.9064
 -0.8663  -0.7964  -0.7880  -0.7710  -0.7286  -0.7166  -0.6975  -0.6799
 -0.6769  -0.6724  -0.6083  -0.6053  -0.6010  -0.5887  -0.5856  -0.5629
 -0.5328  -0.5276  -0.5092  -0.4854  -0.4682  -0.4633  -0.4617  -0.4476
 -0.3869  -0.3415  -0.2879

          Ground-State Mulliken Net Atomic Charges

     Atom                 Charge (a.u.)
  ----------------------------------------
      1 C                    -0.084489
      2 S                     0.106401
      3 C                    -0.201352
      4 C                    -0.032423
      5 C                    -0.021781
      6 C                     0.339243
      7 C                    -0.135704
      8 S                     0.055211
      9 C                     0.456682
     10 O                    -0.445683
     11 O                    -0.297256
     12 F                    -0.211920
     13 C                    -0.054575
     14 H                     0.116986
     15 H                     0.084929
     16 H                     0.084688
     17 C                    -0.360793
     18 H                     0.118020
     19 H                     0.151093
     20 H                     0.119276
     21 H                     0.213447
  ----------------------------------------
  Sum of atomic charges =     0.000000

                    Cartesian Multipole Moments
 -----------------------------------------------------------------
    Charge (ESU x 10^10)
                -0.0000
    Dipole Moment (Debye)
         X       3.6371      Y       1.4023      Z       2.4968
       Tot       4.6291
    Quadrupole Moments (Debye-Ang)
        XX     -90.7915     XY       4.8428     YY     -89.2539
        XZ      -6.7591     YZ      -6.5364     ZZ     -95.1545

 Total job time:  56.24s(wall), 2026.64s(cpu)
        *  Thank you very much for using Q-Chem.  Have a nice day.  *
