 Q-Chem 5.4, Q-Chem, Inc., Pleasanton, CA (2021)
 Q-Chem 5.4.0 for Intel X86 EM64T Linux

User input:
--------------------------------------------------------------
$molecule
0 1
C	-0.446925	-0.717327	1.023963
S	0.004675	0.060473	2.534663
C	0.791475	1.425273	1.751563
C	0.007175	0.069273	-0.040737
C	0.700275	1.272673	0.345663
C	-0.024625	0.010873	-1.462137
C	0.607675	1.106373	-2.082937
S	1.228575	2.188373	-0.941737
C	0.738975	1.324373	-3.536037
O	0.274775	0.514473	-4.326337
O	1.383375	2.434073	-3.980437
F	-0.578225	-0.955927	-2.222337
C	1.571575	2.739673	-5.311037
H	2.124575	3.696273	-5.346337
H	0.605275	2.847873	-5.851637
H	2.154975	1.952473	-5.837937
C	-0.446925	-2.152527	1.023963
H	0.564975	-2.161527	0.646663
H	-0.160725	-2.836427	1.809263
H	-0.777325	-2.676927	0.139563
H	1.251475	2.221973	2.345463
$end

$rem
JOBTYPE		SP
EXCHANGE	HF
CORRELATION	pRIMP2
BASIS		cc-pvtz
METHOD		rimp2
AUX_BASIS	rimp2-cc-pvtz
SOLVENT_METHOD	PCM
PURECART	11111
SYMMETRY	false
MEM_TOTAL	110000
SCF_CONVERGENCE = 6
THRESH=10
GUI = 2
$end

$solvent
dielectric 4.90
$end
--------------------------------------------------------------

             Standard Nuclear Orientation (Angstroms)
    I     Atom           X                Y                Z
 ----------------------------------------------------------------
    1      C      -0.4469250000    -0.7173270000     1.0239630000
    2      S       0.0046750000     0.0604730000     2.5346630000
    3      C       0.7914750000     1.4252730000     1.7515630000
    4      C       0.0071750000     0.0692730000    -0.0407370000
    5      C       0.7002750000     1.2726730000     0.3456630000
    6      C      -0.0246250000     0.0108730000    -1.4621370000
    7      C       0.6076750000     1.1063730000    -2.0829370000
    8      S       1.2285750000     2.1883730000    -0.9417370000
    9      C       0.7389750000     1.3243730000    -3.5360370000
   10      O       0.2747750000     0.5144730000    -4.3263370000
   11      O       1.3833750000     2.4340730000    -3.9804370000
   12      F      -0.5782250000    -0.9559270000    -2.2223370000
   13      C       1.5715750000     2.7396730000    -5.3110370000
   14      H       2.1245750000     3.6962730000    -5.3463370000
   15      H       0.6052750000     2.8478730000    -5.8516370000
   16      H       2.1549750000     1.9524730000    -5.8379370000
   17      C      -0.4469250000    -2.1525270000     1.0239630000
   18      H       0.5649750000    -2.1615270000     0.6466630000
   19      H      -0.1607250000    -2.8364270000     1.8092630000
   20      H      -0.7773250000    -2.6769270000     0.1395630000
   21      H       1.2514750000     2.2219730000     2.3454630000
 ----------------------------------------------------------------

   11   -1389.2394620360      4.88e-07  Convergence criterion met
 Total energy in the final basis set =    -1389.2394620360
        RIMP2         total energy =     -1391.7480117545 a.u.

                    Orbital Energies (a.u.)
 --------------------------------------------------------------

 Alpha MOs
 -- Occupied --
-92.0073 -91.9900 -26.3344 -20.6097 -20.5459 -11.4067 -11.3762 -11.3149
-11.2928 -11.2889 -11.2874 -11.2789 -11.2674 -11.2336  -9.0061  -8.9942
 -6.6868  -6.6862  -6.6858  -6.6755  -6.6748  -6.6735  -1.6475  -1.4692
 -1.3641  -1.2281  -1.1493  -1.0683  -1.0267  -1.0049  -0.9681  -0.9093
 -0.8631  -0.7956  -0.7850  -0.7667  -0.7262  -0.7153  -0.6965  -0.6774
 -0.6766  -0.6679  -0.6094  -0.6033  -0.5985  -0.5888  -0.5853  -0.5607
 -0.5321  -0.5239  -0.5114  -0.4948  -0.4790  -0.4626  -0.4589  -0.4572
 -0.3877  -0.3467  -0.2733

          Ground-State Mulliken Net Atomic Charges

     Atom                 Charge (a.u.)
  ----------------------------------------
      1 C                     0.033039
      2 S                     0.094190
      3 C                    -0.269751
      4 C                    -0.095690
      5 C                    -0.006365
      6 C                     0.370443
      7 C                    -0.168468
      8 S                     0.033011
      9 C                     0.457987
     10 O                    -0.457471
     11 O                    -0.299098
     12 F                    -0.211760
     13 C                    -0.054860
     14 H                     0.116063
     15 H                     0.083765
     16 H                     0.083548
     17 C                    -0.380549
     18 H                     0.150214
     19 H                     0.169569
     20 H                     0.142698
     21 H                     0.209486
  ----------------------------------------
  Sum of atomic charges =     0.000000

                    Cartesian Multipole Moments
 -----------------------------------------------------------------
    Charge (ESU x 10^10)
                -0.0000
    Dipole Moment (Debye)
         X       1.9205      Y       0.2868      Z       3.4666
       Tot       3.9734
    Quadrupole Moments (Debye-Ang)
        XX     -94.9051     XY       2.9139     YY     -84.6350
        XZ      -4.4073     YZ     -10.4622     ZZ     -96.9160

 Total job time:  56.07s(wall), 2029.41s(cpu)
        *  Thank you very much for using Q-Chem.  Have a nice day.  *
