 Q-Chem 5.4, Q-Chem, Inc., Pleasanton, CA (2021)
 Q-Chem 5.4.0 for Intel X86 EM64T Linux

User input:
--------------------------------------------------------------
$molecule
0 1
C	-0.154757	-0.823218	1.020760
S	0.003643	0.062182	2.531460
C	0.276143	1.613782	1.748360
C	0.002943	0.071182	-0.043940
C	0.242643	1.439182	0.342460
C	-0.006957	0.005582	-1.465340
C	0.212543	1.251182	-2.086140
S	0.425843	2.480282	-0.944940
C	0.261343	1.500982	-3.539240
O	0.102143	0.581182	-4.329540
O	0.487343	2.764082	-3.983640
F	-0.196557	-1.092318	-2.225540
C	0.559643	3.115582	-5.314240
H	0.752043	4.203682	-5.349540
H	-0.385457	2.886882	-5.854840
H	1.377143	2.575482	-5.841140
C	-0.154757	-2.258418	1.020760
H	-0.687357	-2.267418	1.960260
H	-0.878857	-2.942318	0.603160
H	0.666843	-2.782818	1.485860
H	0.435943	2.519782	2.342260
$end

$rem
JOBTYPE		SP
EXCHANGE	HF
CORRELATION	pRIMP2
BASIS		cc-pvtz
METHOD		rimp2
AUX_BASIS	rimp2-cc-pvtz
SOLVENT_METHOD	PCM
PURECART	11111
SYMMETRY	false
MEM_TOTAL	110000
SCF_CONVERGENCE = 6
THRESH=10
GUI = 2
$end

$solvent
dielectric 4.90
$end
--------------------------------------------------------------

             Standard Nuclear Orientation (Angstroms)
    I     Atom           X                Y                Z
 ----------------------------------------------------------------
    1      C      -0.1547570000    -0.8232180000     1.0207600000
    2      S       0.0036430000     0.0621820000     2.5314600000
    3      C       0.2761430000     1.6137820000     1.7483600000
    4      C       0.0029430000     0.0711820000    -0.0439400000
    5      C       0.2426430000     1.4391820000     0.3424600000
    6      C      -0.0069570000     0.0055820000    -1.4653400000
    7      C       0.2125430000     1.2511820000    -2.0861400000
    8      S       0.4258430000     2.4802820000    -0.9449400000
    9      C       0.2613430000     1.5009820000    -3.5392400000
   10      O       0.1021430000     0.5811820000    -4.3295400000
   11      O       0.4873430000     2.7640820000    -3.9836400000
   12      F      -0.1965570000    -1.0923180000    -2.2255400000
   13      C       0.5596430000     3.1155820000    -5.3142400000
   14      H       0.7520430000     4.2036820000    -5.3495400000
   15      H      -0.3854570000     2.8868820000    -5.8548400000
   16      H       1.3771430000     2.5754820000    -5.8411400000
   17      C      -0.1547570000    -2.2584180000     1.0207600000
   18      H      -0.6873570000    -2.2674180000     1.9602600000
   19      H      -0.8788570000    -2.9423180000     0.6031600000
   20      H       0.6668430000    -2.7828180000     1.4858600000
   21      H       0.4359430000     2.5197820000     2.3422600000
 ----------------------------------------------------------------

   11   -1389.2513469910      4.74e-07  Convergence criterion met
 Total energy in the final basis set =    -1389.2513469910
        RIMP2         total energy =     -1391.7569845490 a.u.

                    Orbital Energies (a.u.)
 --------------------------------------------------------------

 Alpha MOs
 -- Occupied --
-92.0090 -91.9892 -26.3330 -20.6101 -20.5468 -11.4073 -11.3752 -11.3095
-11.2913 -11.2906 -11.2874 -11.2827 -11.2684 -11.2294  -9.0077  -8.9935
 -6.6884  -6.6879  -6.6874  -6.6748  -6.6741  -6.6727  -1.6459  -1.4696
 -1.3646  -1.2265  -1.1468  -1.0652  -1.0294  -1.0055  -0.9682  -0.9103
 -0.8639  -0.7964  -0.7840  -0.7673  -0.7261  -0.7139  -0.6955  -0.6768
 -0.6763  -0.6677  -0.6097  -0.6039  -0.5960  -0.5870  -0.5777  -0.5655
 -0.5423  -0.5248  -0.5063  -0.4811  -0.4795  -0.4629  -0.4594  -0.4575
 -0.3941  -0.3465  -0.2797

          Ground-State Mulliken Net Atomic Charges

     Atom                 Charge (a.u.)
  ----------------------------------------
      1 C                     0.025351
      2 S                     0.083771
      3 C                    -0.256566
      4 C                    -0.077065
      5 C                    -0.011421
      6 C                     0.381587
      7 C                    -0.162709
      8 S                     0.027020
      9 C                     0.458688
     10 O                    -0.455229
     11 O                    -0.298447
     12 F                    -0.213012
     13 C                    -0.054949
     14 H                     0.116121
     15 H                     0.083855
     16 H                     0.083860
     17 C                    -0.365969
     18 H                     0.118630
     19 H                     0.164924
     20 H                     0.139784
     21 H                     0.211775
  ----------------------------------------
  Sum of atomic charges =     0.000000

                    Cartesian Multipole Moments
 -----------------------------------------------------------------
    Charge (ESU x 10^10)
                -0.0000
    Dipole Moment (Debye)
         X       0.1595      Y       0.9560      Z       4.1459
       Tot       4.2577
    Quadrupole Moments (Debye-Ang)
        XX     -95.6653     XY       2.7089     YY     -82.5145
        XZ      -1.9566     YZ     -13.1787     ZZ     -95.1587

 Total job time:  55.36s(wall), 1920.73s(cpu)
        *  Thank you very much for using Q-Chem.  Have a nice day.  *
