 Q-Chem 5.4, Q-Chem, Inc., Pleasanton, CA (2021)
 Q-Chem 5.4.0 for Intel X86 EM64T Linux

User input:
--------------------------------------------------------------
$molecule
0 1
C	-0.378635	-0.753180	1.022765
S	0.003465	0.061020	2.533465
C	0.668265	1.489220	1.750365
C	0.005165	0.069920	-0.041935
C	0.590765	1.329320	0.344465
C	-0.021435	0.009120	-1.463335
C	0.513065	1.155520	-2.084135
S	1.037265	2.287520	-0.942935
C	0.624865	1.384120	-3.537235
O	0.232965	0.536820	-4.327535
O	1.170065	2.545720	-3.981635
F	-0.488735	-1.002280	-2.223535
C	1.330865	2.866520	-5.312235
H	1.798365	3.867720	-5.347535
H	0.358765	2.890220	-5.852835
H	1.980765	2.133220	-5.839135
C	-0.378635	-2.188380	1.022765
H	0.686365	-2.197380	1.201965
H	-0.523435	-2.872280	1.845965
H	-0.222535	-2.712780	0.091565
H	1.057165	2.323020	2.344265
$end

$rem
JOBTYPE		SP
EXCHANGE	HF
CORRELATION	pRIMP2
BASIS		cc-pvtz
METHOD		rimp2
AUX_BASIS	rimp2-cc-pvtz
SOLVENT_METHOD	PCM
PURECART	11111
SYMMETRY	false
MEM_TOTAL	110000
SCF_CONVERGENCE = 6
THRESH=10
GUI = 2
$end

$solvent
dielectric 4.90
$end
--------------------------------------------------------------

             Standard Nuclear Orientation (Angstroms)
    I     Atom           X                Y                Z
 ----------------------------------------------------------------
    1      C      -0.3786350000    -0.7531800000     1.0227650000
    2      S       0.0034650000     0.0610200000     2.5334650000
    3      C       0.6682650000     1.4892200000     1.7503650000
    4      C       0.0051650000     0.0699200000    -0.0419350000
    5      C       0.5907650000     1.3293200000     0.3444650000
    6      C      -0.0214350000     0.0091200000    -1.4633350000
    7      C       0.5130650000     1.1555200000    -2.0841350000
    8      S       1.0372650000     2.2875200000    -0.9429350000
    9      C       0.6248650000     1.3841200000    -3.5372350000
   10      O       0.2329650000     0.5368200000    -4.3275350000
   11      O       1.1700650000     2.5457200000    -3.9816350000
   12      F      -0.4887350000    -1.0022800000    -2.2235350000
   13      C       1.3308650000     2.8665200000    -5.3122350000
   14      H       1.7983650000     3.8677200000    -5.3475350000
   15      H       0.3587650000     2.8902200000    -5.8528350000
   16      H       1.9807650000     2.1332200000    -5.8391350000
   17      C      -0.3786350000    -2.1883800000     1.0227650000
   18      H       0.6863650000    -2.1973800000     1.2019650000
   19      H      -0.5234350000    -2.8722800000     1.8459650000
   20      H      -0.2225350000    -2.7127800000     0.0915650000
   21      H       1.0571650000     2.3230200000     2.3442650000
 ----------------------------------------------------------------

   11   -1389.2470611164      4.47e-07  Convergence criterion met
 Total energy in the final basis set =    -1389.2470611164
        RIMP2         total energy =     -1391.7517266004 a.u.

                    Orbital Energies (a.u.)
 --------------------------------------------------------------

 Alpha MOs
 -- Occupied --
-92.0042 -91.9884 -26.3343 -20.6094 -20.5454 -11.4062 -11.3768 -11.3184
-11.2918 -11.2878 -11.2872 -11.2777 -11.2679 -11.2361  -9.0034  -8.9926
 -6.6842  -6.6836  -6.6831  -6.6739  -6.6732  -6.6719  -1.6472  -1.4689
 -1.3636  -1.2274  -1.1491  -1.0677  -1.0275  -1.0053  -0.9677  -0.9097
 -0.8629  -0.7961  -0.7846  -0.7666  -0.7263  -0.7149  -0.6961  -0.6771
 -0.6763  -0.6674  -0.6100  -0.6031  -0.6005  -0.5862  -0.5818  -0.5595
 -0.5317  -0.5275  -0.5187  -0.4944  -0.4785  -0.4608  -0.4579  -0.4563
 -0.3905  -0.3470  -0.2721

          Ground-State Mulliken Net Atomic Charges

     Atom                 Charge (a.u.)
  ----------------------------------------
      1 C                     0.069708
      2 S                     0.080704
      3 C                    -0.270916
      4 C                    -0.125377
      5 C                    -0.008630
      6 C                     0.373968
      7 C                    -0.166870
      8 S                     0.027404
      9 C                     0.458299
     10 O                    -0.458012
     11 O                    -0.299079
     12 F                    -0.211321
     13 C                    -0.054765
     14 H                     0.115985
     15 H                     0.083685
     16 H                     0.083436
     17 C                    -0.373597
     18 H                     0.154023
     19 H                     0.166199
     20 H                     0.145547
     21 H                     0.209611
  ----------------------------------------
  Sum of atomic charges =     0.000000

                    Cartesian Multipole Moments
 -----------------------------------------------------------------
    Charge (ESU x 10^10)
                -0.0000
    Dipole Moment (Debye)
         X       1.7184      Y       0.1263      Z       3.7905
       Tot       4.1638
    Quadrupole Moments (Debye-Ang)
        XX     -95.5544     XY       2.2815     YY     -83.6639
        XZ      -3.9140     YZ     -11.8752     ZZ     -96.5706

 Total job time:  53.50s(wall), 1909.95s(cpu)
        *  Thank you very much for using Q-Chem.  Have a nice day.  *
