 Q-Chem 5.4, Q-Chem, Inc., Pleasanton, CA (2021)
 Q-Chem 5.4.0 for Intel X86 EM64T Linux

User input:
--------------------------------------------------------------
$molecule
0 1
C	-0.162363	-0.823612	1.023176
S	-0.003963	0.061788	2.533876
C	0.268537	1.613388	1.750776
C	-0.004663	0.070788	-0.041524
C	0.235037	1.438788	0.344876
C	-0.014563	0.005188	-1.462924
C	0.204937	1.250788	-2.083724
S	0.418237	2.479888	-0.942524
C	0.253737	1.500588	-3.536824
O	0.094537	0.580788	-4.327124
O	0.479737	2.763688	-3.981224
F	-0.204163	-1.092712	-2.223124
C	0.552037	3.115188	-5.311824
H	0.744437	4.203288	-5.347124
H	-0.393063	2.886488	-5.852424
H	1.369537	2.575088	-5.838724
C	-0.037263	-2.253312	1.023176
H	1.039337	-2.168112	1.014676
H	0.022637	-2.934612	1.859076
H	0.000437	-2.776412	0.079076
H	0.428337	2.519388	2.344676
$end

$rem
JOBTYPE		SP
EXCHANGE	HF
CORRELATION	pRIMP2
BASIS		cc-pvtz
METHOD		rimp2
AUX_BASIS	rimp2-cc-pvtz
SOLVENT_METHOD	PCM
PURECART	11111
SYMMETRY	false
MEM_TOTAL	110000
SCF_CONVERGENCE = 6
THRESH=10
GUI = 2
$end

$solvent
dielectric 4.90
$end
--------------------------------------------------------------

             Standard Nuclear Orientation (Angstroms)
    I     Atom           X                Y                Z
 ----------------------------------------------------------------
    1      C      -0.1623630000    -0.8236120000     1.0231760000
    2      S      -0.0039630000     0.0617880000     2.5338760000
    3      C       0.2685370000     1.6133880000     1.7507760000
    4      C      -0.0046630000     0.0707880000    -0.0415240000
    5      C       0.2350370000     1.4387880000     0.3448760000
    6      C      -0.0145630000     0.0051880000    -1.4629240000
    7      C       0.2049370000     1.2507880000    -2.0837240000
    8      S       0.4182370000     2.4798880000    -0.9425240000
    9      C       0.2537370000     1.5005880000    -3.5368240000
   10      O       0.0945370000     0.5807880000    -4.3271240000
   11      O       0.4797370000     2.7636880000    -3.9812240000
   12      F      -0.2041630000    -1.0927120000    -2.2231240000
   13      C       0.5520370000     3.1151880000    -5.3118240000
   14      H       0.7444370000     4.2032880000    -5.3471240000
   15      H      -0.3930630000     2.8864880000    -5.8524240000
   16      H       1.3695370000     2.5750880000    -5.8387240000
   17      C      -0.0372630000    -2.2533120000     1.0231760000
   18      H       1.0393370000    -2.1681120000     1.0146760000
   19      H       0.0226370000    -2.9346120000     1.8590760000
   20      H       0.0004370000    -2.7764120000     0.0790760000
   21      H       0.4283370000     2.5193880000     2.3446760000
 ----------------------------------------------------------------

   11   -1389.2548225896      4.20e-07  Convergence criterion met
 Total energy in the final basis set =    -1389.2548225896
        RIMP2         total energy =     -1391.7571007093 a.u.

                    Orbital Energies (a.u.)
 --------------------------------------------------------------

 Alpha MOs
 -- Occupied --
-92.0056 -91.9876 -26.3345 -20.6089 -20.5445 -11.4055 -11.3769 -11.3221
-11.2916 -11.2870 -11.2861 -11.2739 -11.2664 -11.2376  -9.0045  -8.9919
 -6.6853  -6.6847  -6.6842  -6.6732  -6.6725  -6.6712  -1.6475  -1.4683
 -1.3630  -1.2265  -1.1478  -1.0679  -1.0269  -1.0062  -0.9673  -0.9108
 -0.8623  -0.7959  -0.7844  -0.7658  -0.7260  -0.7151  -0.6965  -0.6773
 -0.6760  -0.6669  -0.6105  -0.6025  -0.5981  -0.5870  -0.5849  -0.5593
 -0.5308  -0.5261  -0.5191  -0.4950  -0.4780  -0.4624  -0.4584  -0.4560
 -0.3902  -0.3471  -0.2715

          Ground-State Mulliken Net Atomic Charges

     Atom                 Charge (a.u.)
  ----------------------------------------
      1 C                     0.061265
      2 S                     0.083152
      3 C                    -0.280067
      4 C                    -0.110830
      5 C                    -0.010839
      6 C                     0.384221
      7 C                    -0.170757
      8 S                     0.024074
      9 C                     0.459416
     10 O                    -0.459708
     11 O                    -0.299251
     12 F                    -0.212961
     13 C                    -0.054870
     14 H                     0.115866
     15 H                     0.083510
     16 H                     0.083318
     17 C                    -0.379311
     18 H                     0.156038
     19 H                     0.169866
     20 H                     0.148642
     21 H                     0.209225
  ----------------------------------------
  Sum of atomic charges =     0.000000

                    Cartesian Multipole Moments
 -----------------------------------------------------------------
    Charge (ESU x 10^10)
                -0.0000
    Dipole Moment (Debye)
         X       1.3044      Y       0.1098      Z       3.7767
       Tot       3.9972
    Quadrupole Moments (Debye-Ang)
        XX     -96.3868     XY      -0.4785     YY     -82.3237
        XZ      -0.9503     YZ     -12.5198     ZZ     -97.0712

 Total job time:  56.46s(wall), 1960.00s(cpu)
        *  Thank you very much for using Q-Chem.  Have a nice day.  *
