 Q-Chem 5.4, Q-Chem, Inc., Pleasanton, CA (2021)
 Q-Chem 5.4.0 for Intel X86 EM64T Linux

User input:
--------------------------------------------------------------
$molecule
0 1
C	-0.681214	-0.518946	1.025081
S	0.009186	0.057454	2.535781
C	1.215286	1.070954	1.752681
C	0.014486	0.064854	-0.039619
C	1.077386	0.958754	0.346781
C	-0.035314	0.020954	-1.461019
C	0.933586	0.834054	-2.081819
S	1.887086	1.638454	-0.940619
C	1.131486	0.994054	-3.534919
O	0.418286	0.391754	-4.325219
O	2.116586	1.816354	-3.979319
F	-0.886214	-0.698246	-2.221219
C	2.397886	2.039154	-5.309919
H	3.244686	2.748954	-5.345219
H	1.526886	2.471454	-5.850519
H	2.676886	1.099854	-5.836819
C	-0.681214	-1.954146	1.025081
H	-0.148614	-1.963146	0.085581
H	0.042886	-2.638046	1.442681
H	-1.502814	-2.478546	0.559981
H	1.920086	1.662254	2.346581
$end

$rem
JOBTYPE		SP
EXCHANGE	HF
CORRELATION	pRIMP2
BASIS		cc-pvtz
METHOD		rimp2
AUX_BASIS	rimp2-cc-pvtz
SOLVENT_METHOD	PCM
PURECART	11111
SYMMETRY	false
MEM_TOTAL	110000
SCF_CONVERGENCE = 6
THRESH=10
GUI = 2
$end

$solvent
dielectric 4.90
$end
--------------------------------------------------------------

             Standard Nuclear Orientation (Angstroms)
    I     Atom           X                Y                Z
 ----------------------------------------------------------------
    1      C      -0.6812140000    -0.5189460000     1.0250810000
    2      S       0.0091860000     0.0574540000     2.5357810000
    3      C       1.2152860000     1.0709540000     1.7526810000
    4      C       0.0144860000     0.0648540000    -0.0396190000
    5      C       1.0773860000     0.9587540000     0.3467810000
    6      C      -0.0353140000     0.0209540000    -1.4610190000
    7      C       0.9335860000     0.8340540000    -2.0818190000
    8      S       1.8870860000     1.6384540000    -0.9406190000
    9      C       1.1314860000     0.9940540000    -3.5349190000
   10      O       0.4182860000     0.3917540000    -4.3252190000
   11      O       2.1165860000     1.8163540000    -3.9793190000
   12      F      -0.8862140000    -0.6982460000    -2.2212190000
   13      C       2.3978860000     2.0391540000    -5.3099190000
   14      H       3.2446860000     2.7489540000    -5.3452190000
   15      H       1.5268860000     2.4714540000    -5.8505190000
   16      H       2.6768860000     1.0998540000    -5.8368190000
   17      C      -0.6812140000    -1.9541460000     1.0250810000
   18      H      -0.1486140000    -1.9631460000     0.0855810000
   19      H       0.0428860000    -2.6380460000     1.4426810000
   20      H      -1.5028140000    -2.4785460000     0.5599810000
   21      H       1.9200860000     1.6622540000     2.3465810000
 ----------------------------------------------------------------

   11   -1389.1958586668      7.72e-07  Convergence criterion met
 Total energy in the final basis set =    -1389.1958586668
        RIMP2         total energy =     -1391.7192003309 a.u.

                    Orbital Energies (a.u.)
 --------------------------------------------------------------

 Alpha MOs
 -- Occupied --
-92.0072 -91.9980 -26.3342 -20.6132 -20.5524 -11.4121 -11.3741 -11.3017
-11.3015 -11.2937 -11.2892 -11.2816 -11.2768 -11.2176  -9.0061  -9.0018
 -6.6867  -6.6859  -6.6858  -6.6830  -6.6824  -6.6811  -1.6474  -1.4732
 -1.3688  -1.2333  -1.1519  -1.0709  -1.0290  -1.0016  -0.9709  -0.9061
 -0.8661  -0.7962  -0.7876  -0.7707  -0.7283  -0.7163  -0.6973  -0.6796
 -0.6770  -0.6719  -0.6081  -0.6057  -0.6000  -0.5886  -0.5870  -0.5627
 -0.5313  -0.5276  -0.5088  -0.4858  -0.4694  -0.4630  -0.4615  -0.4527
 -0.3842  -0.3417  -0.2854

          Ground-State Mulliken Net Atomic Charges

     Atom                 Charge (a.u.)
  ----------------------------------------
      1 C                    -0.080195
      2 S                     0.109904
      3 C                    -0.208721
      4 C                    -0.033108
      5 C                    -0.019988
      6 C                     0.341448
      7 C                    -0.141246
      8 S                     0.054758
      9 C                     0.457162
     10 O                    -0.446654
     11 O                    -0.297455
     12 F                    -0.212277
     13 C                    -0.054584
     14 H                     0.116886
     15 H                     0.084829
     16 H                     0.084592
     17 C                    -0.366878
     18 H                     0.122488
     19 H                     0.154123
     20 H                     0.121723
     21 H                     0.213193
  ----------------------------------------
  Sum of atomic charges =     0.000000

                    Cartesian Multipole Moments
 -----------------------------------------------------------------
    Charge (ESU x 10^10)
                -0.0000
    Dipole Moment (Debye)
         X       3.6308      Y       1.2867      Z       2.6293
       Tot       4.6638
    Quadrupole Moments (Debye-Ang)
        XX     -91.0621     XY       4.6197     YY     -89.2486
        XZ      -6.6832     YZ      -6.7140     ZZ     -95.0827

 Total job time:  57.47s(wall), 2022.94s(cpu)
        *  Thank you very much for using Q-Chem.  Have a nice day.  *
