 Q-Chem 5.4, Q-Chem, Inc., Pleasanton, CA (2021)
 Q-Chem 5.4.0 for Intel X86 EM64T Linux

User input:
--------------------------------------------------------------
$molecule
0 1
C	-0.376435	-0.753180	1.025276
S	0.005665	0.061020	2.535976
C	0.670465	1.489220	1.752876
C	0.007365	0.069920	-0.039424
C	0.592965	1.329320	0.346976
C	-0.019235	0.009120	-1.460824
C	0.515265	1.155520	-2.081624
S	1.039465	2.287520	-0.940424
C	0.627065	1.384120	-3.534724
O	0.235165	0.536820	-4.325024
O	1.172265	2.545720	-3.979124
F	-0.486535	-1.002280	-2.221024
C	1.333065	2.866520	-5.309724
H	1.800565	3.867720	-5.345024
H	0.360965	2.890220	-5.850324
H	1.982965	2.133220	-5.836624
C	-0.376435	-2.188380	1.025276
H	-0.197235	-2.197380	-0.039724
H	0.446765	-2.872280	1.170076
H	-1.307635	-2.712780	0.869176
H	1.059365	2.323020	2.346776
$end

$rem
JOBTYPE		SP
EXCHANGE	HF
CORRELATION	pRIMP2
BASIS		cc-pvtz
METHOD		rimp2
AUX_BASIS	rimp2-cc-pvtz
SOLVENT_METHOD	PCM
PURECART	11111
SYMMETRY	false
MEM_TOTAL	110000
SCF_CONVERGENCE = 6
THRESH=10
GUI = 2
$end

$solvent
dielectric 4.90
$end
--------------------------------------------------------------

             Standard Nuclear Orientation (Angstroms)
    I     Atom           X                Y                Z
 ----------------------------------------------------------------
    1      C      -0.3764350000    -0.7531800000     1.0252760000
    2      S       0.0056650000     0.0610200000     2.5359760000
    3      C       0.6704650000     1.4892200000     1.7528760000
    4      C       0.0073650000     0.0699200000    -0.0394240000
    5      C       0.5929650000     1.3293200000     0.3469760000
    6      C      -0.0192350000     0.0091200000    -1.4608240000
    7      C       0.5152650000     1.1555200000    -2.0816240000
    8      S       1.0394650000     2.2875200000    -0.9404240000
    9      C       0.6270650000     1.3841200000    -3.5347240000
   10      O       0.2351650000     0.5368200000    -4.3250240000
   11      O       1.1722650000     2.5457200000    -3.9791240000
   12      F      -0.4865350000    -1.0022800000    -2.2210240000
   13      C       1.3330650000     2.8665200000    -5.3097240000
   14      H       1.8005650000     3.8677200000    -5.3450240000
   15      H       0.3609650000     2.8902200000    -5.8503240000
   16      H       1.9829650000     2.1332200000    -5.8366240000
   17      C      -0.3764350000    -2.1883800000     1.0252760000
   18      H      -0.1972350000    -2.1973800000    -0.0397240000
   19      H       0.4467650000    -2.8722800000     1.1700760000
   20      H      -1.3076350000    -2.7127800000     0.8691760000
   21      H       1.0593650000     2.3230200000     2.3467760000
 ----------------------------------------------------------------

   11   -1389.2407415780      5.50e-07  Convergence criterion met
 Total energy in the final basis set =    -1389.2407415780
        RIMP2         total energy =     -1391.7522026187 a.u.

                    Orbital Energies (a.u.)
 --------------------------------------------------------------

 Alpha MOs
 -- Occupied --
-92.0041 -91.9925 -26.3355 -20.6116 -20.5494 -11.4096 -11.3761 -11.3015
-11.2954 -11.2920 -11.2883 -11.2883 -11.2751 -11.2248  -9.0030  -8.9966
 -6.6838  -6.6831  -6.6828  -6.6779  -6.6772  -6.6759  -1.6487  -1.4713
 -1.3666  -1.2292  -1.1463  -1.0682  -1.0274  -1.0050  -0.9692  -0.9104
 -0.8644  -0.7960  -0.7870  -0.7680  -0.7272  -0.7168  -0.6972  -0.6783
 -0.6779  -0.6701  -0.6070  -0.6053  -0.5985  -0.5894  -0.5822  -0.5659
 -0.5414  -0.5255  -0.5057  -0.4824  -0.4689  -0.4632  -0.4609  -0.4523
 -0.3958  -0.3446  -0.2840

          Ground-State Mulliken Net Atomic Charges

     Atom                 Charge (a.u.)
  ----------------------------------------
      1 C                     0.011035
      2 S                     0.089107
      3 C                    -0.240495
      4 C                    -0.087351
      5 C                    -0.011455
      6 C                     0.352267
      7 C                    -0.140194
      8 S                     0.037683
      9 C                     0.456406
     10 O                    -0.451844
     11 O                    -0.297912
     12 F                    -0.212096
     13 C                    -0.054762
     14 H                     0.116588
     15 H                     0.084279
     16 H                     0.084121
     17 C                    -0.357344
     18 H                     0.117626
     19 H                     0.160768
     20 H                     0.132912
     21 H                     0.210661
  ----------------------------------------
  Sum of atomic charges =     0.000000

                    Cartesian Multipole Moments
 -----------------------------------------------------------------
    Charge (ESU x 10^10)
                -0.0000
    Dipole Moment (Debye)
         X       1.4806      Y       1.2833      Z       2.6957
       Tot       3.3326
    Quadrupole Moments (Debye-Ang)
        XX     -94.3064     XY       3.5935     YY     -84.2220
        XZ      -3.9908     YZ      -9.4673     ZZ     -97.0846

 Total job time:  54.45s(wall), 1910.32s(cpu)
        *  Thank you very much for using Q-Chem.  Have a nice day.  *
