 Q-Chem 5.4, Q-Chem, Inc., Pleasanton, CA (2021)
 Q-Chem 5.4.0 for Intel X86 EM64T Linux

User input:
--------------------------------------------------------------
$molecule
0 1
C	-0.573482	-0.628442	1.023580
S	0.006418	0.059158	2.534280
C	1.018118	1.266558	1.751180
C	0.010318	0.067358	-0.041120
C	0.901818	1.132158	0.345280
C	-0.031082	0.015358	-1.462520
C	0.781818	0.984358	-2.083320
S	1.581118	1.942158	-0.942120
C	0.948918	1.176358	-3.536420
O	0.351218	0.459358	-4.326720
O	1.776218	2.157258	-3.980820
F	-0.744282	-0.840542	-2.222720
C	2.014618	2.425458	-5.311420
H	2.725318	3.271558	-5.346720
H	1.081818	2.699958	-5.852020
H	2.452518	1.548958	-5.838320
C	-0.573482	-2.063642	1.023580
H	0.488618	-2.072642	0.827680
H	-0.427982	-2.747542	1.846680
H	-0.745282	-2.588042	0.095180
H	1.609618	1.971358	2.345080
$end

$rem
JOBTYPE		SP
EXCHANGE	HF
CORRELATION	pRIMP2
BASIS		cc-pvtz
METHOD		rimp2
AUX_BASIS	rimp2-cc-pvtz
SOLVENT_METHOD	PCM
PURECART	11111
SYMMETRY	false
MEM_TOTAL	110000
SCF_CONVERGENCE = 6
THRESH=10
GUI = 2
$end

$solvent
dielectric 4.90
$end
--------------------------------------------------------------

             Standard Nuclear Orientation (Angstroms)
    I     Atom           X                Y                Z
 ----------------------------------------------------------------
    1      C      -0.5734820000    -0.6284420000     1.0235800000
    2      S       0.0064180000     0.0591580000     2.5342800000
    3      C       1.0181180000     1.2665580000     1.7511800000
    4      C       0.0103180000     0.0673580000    -0.0411200000
    5      C       0.9018180000     1.1321580000     0.3452800000
    6      C      -0.0310820000     0.0153580000    -1.4625200000
    7      C       0.7818180000     0.9843580000    -2.0833200000
    8      S       1.5811180000     1.9421580000    -0.9421200000
    9      C       0.9489180000     1.1763580000    -3.5364200000
   10      O       0.3512180000     0.4593580000    -4.3267200000
   11      O       1.7762180000     2.1572580000    -3.9808200000
   12      F      -0.7442820000    -0.8405420000    -2.2227200000
   13      C       2.0146180000     2.4254580000    -5.3114200000
   14      H       2.7253180000     3.2715580000    -5.3467200000
   15      H       1.0818180000     2.6999580000    -5.8520200000
   16      H       2.4525180000     1.5489580000    -5.8383200000
   17      C      -0.5734820000    -2.0636420000     1.0235800000
   18      H       0.4886180000    -2.0726420000     0.8276800000
   19      H      -0.4279820000    -2.7475420000     1.8466800000
   20      H      -0.7452820000    -2.5880420000     0.0951800000
   21      H       1.6096180000     1.9713580000     2.3450800000
 ----------------------------------------------------------------

   11   -1389.2260368515      5.40e-07  Convergence criterion met
 Total energy in the final basis set =    -1389.2260368515
        RIMP2         total energy =     -1391.7387410987 a.u.

                    Orbital Energies (a.u.)
 --------------------------------------------------------------

 Alpha MOs
 -- Occupied --
-92.0065 -91.9915 -26.3342 -20.6103 -20.5470 -11.4076 -11.3760 -11.3092
-11.2938 -11.2910 -11.2877 -11.2850 -11.2691 -11.2324  -9.0055  -8.9956
 -6.6862  -6.6856  -6.6852  -6.6769  -6.6762  -6.6749  -1.6472  -1.4699
 -1.3649  -1.2300  -1.1517  -1.0688  -1.0276  -1.0038  -0.9688  -0.9078
 -0.8640  -0.7961  -0.7854  -0.7680  -0.7268  -0.7152  -0.6963  -0.6773
 -0.6770  -0.6688  -0.6089  -0.6043  -0.6017  -0.5886  -0.5823  -0.5605
 -0.5290  -0.5244  -0.5156  -0.4961  -0.4801  -0.4610  -0.4585  -0.4564
 -0.3865  -0.3470  -0.2736

          Ground-State Mulliken Net Atomic Charges

     Atom                 Charge (a.u.)
  ----------------------------------------
      1 C                     0.012488
      2 S                     0.096142
      3 C                    -0.255330
      4 C                    -0.089994
      5 C                    -0.008011
      6 C                     0.368000
      7 C                    -0.164530
      8 S                     0.037349
      9 C                     0.457770
     10 O                    -0.455528
     11 O                    -0.298916
     12 F                    -0.211160
     13 C                    -0.054649
     14 H                     0.116142
     15 H                     0.084013
     16 H                     0.083637
     17 C                    -0.375487
     18 H                     0.144711
     19 H                     0.165344
     20 H                     0.137560
     21 H                     0.210449
  ----------------------------------------
  Sum of atomic charges =     0.000000

                    Cartesian Multipole Moments
 -----------------------------------------------------------------
    Charge (ESU x 10^10)
                -0.0000
    Dipole Moment (Debye)
         X       2.5041      Y       0.3732      Z       3.4873
       Tot       4.3094
    Quadrupole Moments (Debye-Ang)
        XX     -93.6900     XY       3.8331     YY     -86.4876
        XZ      -5.8936     YZ      -9.4513     ZZ     -96.1979

 Total job time:  56.16s(wall), 2001.37s(cpu)
        *  Thank you very much for using Q-Chem.  Have a nice day.  *
