 Q-Chem 5.4, Q-Chem, Inc., Pleasanton, CA (2021)
 Q-Chem 5.4.0 for Intel X86 EM64T Linux

User input:
--------------------------------------------------------------
$molecule
0 1
C	-0.001234	-0.836989	1.020627
S	0.000966	0.062411	2.531327
C	-0.000034	1.637711	1.748227
C	-0.001234	0.071211	-0.044073
C	-0.002734	1.460011	0.342327
C	0.000366	0.004811	-1.465473
C	0.000266	1.269711	-2.086273
S	-0.003034	2.517211	-0.945073
C	0.004966	1.524111	-3.539373
O	0.007966	0.590611	-4.329673
O	0.008166	2.807311	-3.983773
F	0.004266	-1.109289	-2.225673
C	0.018366	3.166011	-5.314373
H	0.018966	4.271011	-5.349673
H	-0.872634	2.776711	-5.854973
H	0.917266	2.776111	-5.841273
C	-0.001234	-2.272189	1.020627
H	-0.362634	-2.281189	2.038327
H	-0.786834	-2.956089	0.735127
H	0.888666	-2.796589	1.336027
H	-0.000034	2.557811	2.342127
$end

$rem
JOBTYPE		SP
EXCHANGE	HF
CORRELATION	pRIMP2
BASIS		cc-pvtz
METHOD		rimp2
AUX_BASIS	rimp2-cc-pvtz
SOLVENT_METHOD	PCM
PURECART	11111
SYMMETRY	false
MEM_TOTAL	110000
SCF_CONVERGENCE = 6
THRESH=10
GUI = 2
$end

$solvent
dielectric 4.90
$end
--------------------------------------------------------------

             Standard Nuclear Orientation (Angstroms)
    I     Atom           X                Y                Z
 ----------------------------------------------------------------
    1      C      -0.0012340000    -0.8369890000     1.0206270000
    2      S       0.0009660000     0.0624110000     2.5313270000
    3      C      -0.0000340000     1.6377110000     1.7482270000
    4      C      -0.0012340000     0.0712110000    -0.0440730000
    5      C      -0.0027340000     1.4600110000     0.3423270000
    6      C       0.0003660000     0.0048110000    -1.4654730000
    7      C       0.0002660000     1.2697110000    -2.0862730000
    8      S      -0.0030340000     2.5172110000    -0.9450730000
    9      C       0.0049660000     1.5241110000    -3.5393730000
   10      O       0.0079660000     0.5906110000    -4.3296730000
   11      O       0.0081660000     2.8073110000    -3.9837730000
   12      F       0.0042660000    -1.1092890000    -2.2256730000
   13      C       0.0183660000     3.1660110000    -5.3143730000
   14      H       0.0189660000     4.2710110000    -5.3496730000
   15      H      -0.8726340000     2.7767110000    -5.8549730000
   16      H       0.9172660000     2.7761110000    -5.8412730000
   17      C      -0.0012340000    -2.2721890000     1.0206270000
   18      H      -0.3626340000    -2.2811890000     2.0383270000
   19      H      -0.7868340000    -2.9560890000     0.7351270000
   20      H       0.8886660000    -2.7965890000     1.3360270000
   21      H      -0.0000340000     2.5578110000     2.3421270000
 ----------------------------------------------------------------

   11   -1389.2525681728      4.73e-07  Convergence criterion met
 Total energy in the final basis set =    -1389.2525681728
        RIMP2         total energy =     -1391.7581274673 a.u.

                    Orbital Energies (a.u.)
 --------------------------------------------------------------

 Alpha MOs
 -- Occupied --
-92.0094 -91.9894 -26.3330 -20.6102 -20.5470 -11.4075 -11.3752 -11.3089
-11.2913 -11.2909 -11.2875 -11.2830 -11.2686 -11.2291  -9.0080  -8.9936
 -6.6888  -6.6882  -6.6877  -6.6749  -6.6743  -6.6729  -1.6459  -1.4698
 -1.3648  -1.2266  -1.1467  -1.0651  -1.0296  -1.0055  -0.9683  -0.9101
 -0.8641  -0.7966  -0.7840  -0.7675  -0.7261  -0.7139  -0.6956  -0.6769
 -0.6764  -0.6677  -0.6092  -0.6040  -0.5969  -0.5872  -0.5740  -0.5689
 -0.5440  -0.5247  -0.5055  -0.4811  -0.4768  -0.4630  -0.4597  -0.4576
 -0.3954  -0.3463  -0.2810

          Ground-State Mulliken Net Atomic Charges

     Atom                 Charge (a.u.)
  ----------------------------------------
      1 C                     0.041624
      2 S                     0.083335
      3 C                    -0.258452
      4 C                    -0.088094
      5 C                    -0.010286
      6 C                     0.391316
      7 C                    -0.163692
      8 S                     0.027541
      9 C                     0.459190
     10 O                    -0.455090
     11 O                    -0.298464
     12 F                    -0.213764
     13 C                    -0.055000
     14 H                     0.116164
     15 H                     0.083928
     16 H                     0.083881
     17 C                    -0.368853
     18 H                     0.115799
     19 H                     0.160148
     20 H                     0.136668
     21 H                     0.212100
  ----------------------------------------
  Sum of atomic charges =     0.000000

                    Cartesian Multipole Moments
 -----------------------------------------------------------------
    Charge (ESU x 10^10)
                -0.0000
    Dipole Moment (Debye)
         X      -0.2071      Y       1.0603      Z       4.1725
       Tot       4.3101
    Quadrupole Moments (Debye-Ang)
        XX     -95.9477     XY       0.7301     YY     -82.2400
        XZ      -0.0264     YZ     -13.4486     ZZ     -95.0596

 Total job time:  63.38s(wall), 2479.22s(cpu)
        *  Thank you very much for using Q-Chem.  Have a nice day.  *
