 Q-Chem 5.4, Q-Chem, Inc., Pleasanton, CA (2021)
 Q-Chem 5.4.0 for Intel X86 EM64T Linux

User input:
--------------------------------------------------------------
$molecule
0 1
C	-0.770038	-0.392188	1.021016
S	0.009962	0.055612	2.531716
C	1.373762	0.844212	1.748616
C	0.016462	0.061912	-0.043684
C	1.218462	0.757612	0.342716
C	-0.040138	0.027312	-1.465084
C	1.055162	0.659812	-2.085884
S	2.133862	1.286512	-0.944684
C	1.277862	0.783012	-3.538984
O	0.470962	0.313712	-4.329284
O	2.390762	1.421812	-3.983384
F	-1.003038	-0.533088	-2.225284
C	2.706462	1.592412	-5.313984
H	3.663662	2.144312	-5.349284
H	1.923762	2.169312	-5.854584
H	2.818162	0.618912	-5.840884
C	-0.770038	-1.827388	1.021016
H	-0.222738	-1.836388	1.952016
H	-1.493738	-2.511288	1.439216
H	0.043562	-2.351788	0.542016
H	2.170562	1.304112	2.342516
$end

$rem
JOBTYPE		SP
EXCHANGE	HF
CORRELATION	pRIMP2
BASIS		cc-pvtz
METHOD		rimp2
AUX_BASIS	rimp2-cc-pvtz
SOLVENT_METHOD	PCM
PURECART	11111
SYMMETRY	false
MEM_TOTAL	110000
SCF_CONVERGENCE = 6
THRESH=10
GUI = 2
$end

$solvent
dielectric 4.90
$end
--------------------------------------------------------------

             Standard Nuclear Orientation (Angstroms)
    I     Atom           X                Y                Z
 ----------------------------------------------------------------
    1      C      -0.7700380000    -0.3921880000     1.0210160000
    2      S       0.0099620000     0.0556120000     2.5317160000
    3      C       1.3737620000     0.8442120000     1.7486160000
    4      C       0.0164620000     0.0619120000    -0.0436840000
    5      C       1.2184620000     0.7576120000     0.3427160000
    6      C      -0.0401380000     0.0273120000    -1.4650840000
    7      C       1.0551620000     0.6598120000    -2.0858840000
    8      S       2.1338620000     1.2865120000    -0.9446840000
    9      C       1.2778620000     0.7830120000    -3.5389840000
   10      O       0.4709620000     0.3137120000    -4.3292840000
   11      O       2.3907620000     1.4218120000    -3.9833840000
   12      F      -1.0030380000    -0.5330880000    -2.2252840000
   13      C       2.7064620000     1.5924120000    -5.3139840000
   14      H       3.6636620000     2.1443120000    -5.3492840000
   15      H       1.9237620000     2.1693120000    -5.8545840000
   16      H       2.8181620000     0.6189120000    -5.8408840000
   17      C      -0.7700380000    -1.8273880000     1.0210160000
   18      H      -0.2227380000    -1.8363880000     1.9520160000
   19      H      -1.4937380000    -2.5112880000     1.4392160000
   20      H       0.0435620000    -2.3517880000     0.5420160000
   21      H       2.1705620000     1.3041120000     2.3425160000
 ----------------------------------------------------------------

   11   -1389.1649718129      8.43e-07  Convergence criterion met
 Total energy in the final basis set =    -1389.1649718129
        RIMP2         total energy =     -1391.6900198320 a.u.

                    Orbital Energies (a.u.)
 --------------------------------------------------------------

 Alpha MOs
 -- Occupied --
-91.9997 -91.9991 -26.3327 -20.6147 -20.5552 -11.4143 -11.3735 -11.3150
-11.3075 -11.2928 -11.2898 -11.2853 -11.2687 -11.2111  -9.0028  -9.0006
 -6.6841  -6.6834  -6.6821  -6.6811  -6.6801  -6.6800  -1.6457  -1.4748
 -1.3708  -1.2365  -1.1586  -1.0693  -1.0347  -1.0002  -0.9729  -0.8993
 -0.8704  -0.7999  -0.7874  -0.7751  -0.7305  -0.7149  -0.6978  -0.6806
 -0.6748  -0.6734  -0.6104  -0.6081  -0.6045  -0.5919  -0.5683  -0.5601
 -0.5364  -0.5285  -0.5143  -0.4896  -0.4819  -0.4646  -0.4634  -0.4298
 -0.3890  -0.3367  -0.2851

          Ground-State Mulliken Net Atomic Charges

     Atom                 Charge (a.u.)
  ----------------------------------------
      1 C                    -0.104790
      2 S                     0.092262
      3 C                    -0.166549
      4 C                    -0.028949
      5 C                    -0.037537
      6 C                     0.371884
      7 C                    -0.135550
      8 S                     0.052487
      9 C                     0.457454
     10 O                    -0.440828
     11 O                    -0.296401
     12 F                    -0.210050
     13 C                    -0.054717
     14 H                     0.117237
     15 H                     0.085493
     16 H                     0.085116
     17 C                    -0.390982
     18 H                     0.129564
     19 H                     0.131625
     20 H                     0.126757
     21 H                     0.216472
  ----------------------------------------
  Sum of atomic charges =     0.000000

                    Cartesian Multipole Moments
 -----------------------------------------------------------------
    Charge (ESU x 10^10)
                -0.0000
    Dipole Moment (Debye)
         X       4.7376      Y       1.1228      Z       3.2580
       Tot       5.8583
    Quadrupole Moments (Debye-Ang)
        XX     -89.6095     XY       4.4621     YY     -91.6385
        XZ      -8.3509     YZ      -7.3307     ZZ     -91.8303

 Total job time:  54.13s(wall), 1958.18s(cpu)
        *  Thank you very much for using Q-Chem.  Have a nice day.  *
