 Q-Chem 5.4, Q-Chem, Inc., Pleasanton, CA (2021)
 Q-Chem 5.4.0 for Intel X86 EM64T Linux

User input:
--------------------------------------------------------------
$molecule
0 1
C	-0.376123	-0.753180	1.020565
S	0.005977	0.061020	2.531265
C	0.670777	1.489220	1.748165
C	0.007677	0.069920	-0.044135
C	0.593277	1.329320	0.342265
C	-0.018923	0.009120	-1.465535
C	0.515577	1.155520	-2.086335
S	1.039777	2.287520	-0.945135
C	0.627377	1.384120	-3.539435
O	0.235477	0.536820	-4.329735
O	1.172577	2.545720	-3.983835
F	-0.486223	-1.002280	-2.225735
C	1.333377	2.866520	-5.314435
H	1.800877	3.867720	-5.349735
H	0.361277	2.890220	-5.855035
H	1.983277	2.133220	-5.841335
C	-0.376123	-2.188380	1.020565
H	-0.555323	-2.197380	2.085565
H	-1.199323	-2.872280	0.875765
H	0.555077	-2.712780	1.176665
H	1.059677	2.323020	2.342065
$end

$rem
JOBTYPE		SP
EXCHANGE	HF
CORRELATION	pRIMP2
BASIS		cc-pvtz
METHOD		rimp2
AUX_BASIS	rimp2-cc-pvtz
SOLVENT_METHOD	PCM
PURECART	11111
SYMMETRY	false
MEM_TOTAL	110000
SCF_CONVERGENCE = 6
THRESH=10
GUI = 2
$end

$solvent
dielectric 4.90
$end
--------------------------------------------------------------

             Standard Nuclear Orientation (Angstroms)
    I     Atom           X                Y                Z
 ----------------------------------------------------------------
    1      C      -0.3761230000    -0.7531800000     1.0205650000
    2      S       0.0059770000     0.0610200000     2.5312650000
    3      C       0.6707770000     1.4892200000     1.7481650000
    4      C       0.0076770000     0.0699200000    -0.0441350000
    5      C       0.5932770000     1.3293200000     0.3422650000
    6      C      -0.0189230000     0.0091200000    -1.4655350000
    7      C       0.5155770000     1.1555200000    -2.0863350000
    8      S       1.0397770000     2.2875200000    -0.9451350000
    9      C       0.6273770000     1.3841200000    -3.5394350000
   10      O       0.2354770000     0.5368200000    -4.3297350000
   11      O       1.1725770000     2.5457200000    -3.9838350000
   12      F      -0.4862230000    -1.0022800000    -2.2257350000
   13      C       1.3333770000     2.8665200000    -5.3144350000
   14      H       1.8008770000     3.8677200000    -5.3497350000
   15      H       0.3612770000     2.8902200000    -5.8550350000
   16      H       1.9832770000     2.1332200000    -5.8413350000
   17      C      -0.3761230000    -2.1883800000     1.0205650000
   18      H      -0.5553230000    -2.1973800000     2.0855650000
   19      H      -1.1993230000    -2.8722800000     0.8757650000
   20      H       0.5550770000    -2.7127800000     1.1766650000
   21      H       1.0596770000     2.3230200000     2.3420650000
 ----------------------------------------------------------------

   11   -1389.2405736376      5.36e-07  Convergence criterion met
 Total energy in the final basis set =    -1389.2405736376
        RIMP2         total energy =     -1391.7505992691 a.u.

                    Orbital Energies (a.u.)
 --------------------------------------------------------------

 Alpha MOs
 -- Occupied --
-92.0095 -91.9912 -26.3327 -20.6109 -20.5483 -11.4086 -11.3745 -11.3005
-11.2937 -11.2919 -11.2886 -11.2879 -11.2704 -11.2261  -9.0083  -8.9954
 -6.6890  -6.6884  -6.6879  -6.6766  -6.6760  -6.6746  -1.6457  -1.4705
 -1.3657  -1.2277  -1.1479  -1.0649  -1.0301  -1.0044  -0.9689  -0.9087
 -0.8651  -0.7969  -0.7844  -0.7686  -0.7266  -0.7138  -0.6953  -0.6775
 -0.6754  -0.6686  -0.6091  -0.6048  -0.5968  -0.5880  -0.5763  -0.5659
 -0.5418  -0.5253  -0.5054  -0.4819  -0.4695  -0.4640  -0.4603  -0.4585
 -0.3945  -0.3457  -0.2836

          Ground-State Mulliken Net Atomic Charges

     Atom                 Charge (a.u.)
  ----------------------------------------
      1 C                     0.019778
      2 S                     0.089021
      3 C                    -0.244149
      4 C                    -0.088077
      5 C                    -0.006485
      6 C                     0.364250
      7 C                    -0.156100
      8 S                     0.034752
      9 C                     0.456554
     10 O                    -0.452346
     11 O                    -0.298161
     12 F                    -0.211285
     13 C                    -0.054791
     14 H                     0.116323
     15 H                     0.084141
     16 H                     0.084053
     17 C                    -0.354300
     18 H                     0.109040
     19 H                     0.154232
     20 H                     0.140861
     21 H                     0.212689
  ----------------------------------------
  Sum of atomic charges =     0.000000

                    Cartesian Multipole Moments
 -----------------------------------------------------------------
    Charge (ESU x 10^10)
                -0.0000
    Dipole Moment (Debye)
         X       1.2800      Y       1.2846      Z       4.0427
       Tot       4.4308
    Quadrupole Moments (Debye-Ang)
        XX     -94.2005     XY       4.2914     YY     -84.3494
        XZ      -4.5450     YZ     -12.1078     ZZ     -94.5423

 Total job time:  54.35s(wall), 2029.75s(cpu)
        *  Thank you very much for using Q-Chem.  Have a nice day.  *
