 Q-Chem 5.4, Q-Chem, Inc., Pleasanton, CA (2021)
 Q-Chem 5.4.0 for Intel X86 EM64T Linux

User input:
--------------------------------------------------------------
$molecule
0 1
C	-0.302628	-0.782911	1.022261
S	0.007072	0.061489	2.532961
C	0.544872	1.542189	1.749861
C	0.007972	0.070589	-0.042439
C	0.481572	1.376089	0.343961
C	-0.013128	0.007589	-1.463839
C	0.419272	1.196189	-2.084639
S	0.842872	2.369589	-0.943439
C	0.510772	1.433689	-3.537739
O	0.194272	0.555489	-4.328039
O	0.952672	2.638389	-3.982139
F	-0.390528	-1.040711	-2.224039
C	1.084872	2.971989	-5.312739
H	1.463372	4.010189	-5.348039
H	0.114472	2.910889	-5.853339
H	1.796172	2.298089	-5.839639
C	-0.302628	-2.218111	1.022261
H	-1.364728	-2.227111	1.218161
H	-0.448128	-2.902011	0.199161
H	-0.130828	-2.742511	1.950661
H	0.859572	2.406689	2.343761
$end

$rem
JOBTYPE		SP
EXCHANGE	HF
CORRELATION	pRIMP2
BASIS		cc-pvtz
METHOD		rimp2
AUX_BASIS	rimp2-cc-pvtz
SOLVENT_METHOD	PCM
PURECART	11111
SYMMETRY	false
MEM_TOTAL	110000
SCF_CONVERGENCE = 6
THRESH=10
GUI = 2
$end

$solvent
dielectric 4.90
$end
--------------------------------------------------------------

             Standard Nuclear Orientation (Angstroms)
    I     Atom           X                Y                Z
 ----------------------------------------------------------------
    1      C      -0.3026280000    -0.7829110000     1.0222610000
    2      S       0.0070720000     0.0614890000     2.5329610000
    3      C       0.5448720000     1.5421890000     1.7498610000
    4      C       0.0079720000     0.0705890000    -0.0424390000
    5      C       0.4815720000     1.3760890000     0.3439610000
    6      C      -0.0131280000     0.0075890000    -1.4638390000
    7      C       0.4192720000     1.1961890000    -2.0846390000
    8      S       0.8428720000     2.3695890000    -0.9434390000
    9      C       0.5107720000     1.4336890000    -3.5377390000
   10      O       0.1942720000     0.5554890000    -4.3280390000
   11      O       0.9526720000     2.6383890000    -3.9821390000
   12      F      -0.3905280000    -1.0407110000    -2.2240390000
   13      C       1.0848720000     2.9719890000    -5.3127390000
   14      H       1.4633720000     4.0101890000    -5.3480390000
   15      H       0.1144720000     2.9108890000    -5.8533390000
   16      H       1.7961720000     2.2980890000    -5.8396390000
   17      C      -0.3026280000    -2.2181110000     1.0222610000
   18      H      -1.3647280000    -2.2271110000     1.2181610000
   19      H      -0.4481280000    -2.9020110000     0.1991610000
   20      H      -0.1308280000    -2.7425110000     1.9506610000
   21      H       0.8595720000     2.4066890000     2.3437610000
 ----------------------------------------------------------------

   11   -1389.2451927235      4.57e-07  Convergence criterion met
 Total energy in the final basis set =    -1389.2451927235
        RIMP2         total energy =     -1391.7504649254 a.u.

                    Orbital Energies (a.u.)
 --------------------------------------------------------------

 Alpha MOs
 -- Occupied --
-92.0065 -91.9880 -26.3339 -20.6092 -20.5451 -11.4059 -11.3760 -11.3157
-11.2912 -11.2874 -11.2870 -11.2774 -11.2670 -11.2325  -9.0054  -8.9922
 -6.6862  -6.6856  -6.6851  -6.6735  -6.6728  -6.6715  -1.6468  -1.4686
 -1.3634  -1.2261  -1.1468  -1.0664  -1.0275  -1.0058  -0.9674  -0.9111
 -0.8627  -0.7959  -0.7841  -0.7661  -0.7256  -0.7145  -0.6956  -0.6771
 -0.6761  -0.6670  -0.6092  -0.6028  -0.5917  -0.5870  -0.5858  -0.5583
 -0.5309  -0.5267  -0.5187  -0.4944  -0.4788  -0.4604  -0.4572  -0.4566
 -0.3886  -0.3465  -0.2720

          Ground-State Mulliken Net Atomic Charges

     Atom                 Charge (a.u.)
  ----------------------------------------
      1 C                     0.027618
      2 S                     0.085401
      3 C                    -0.268827
      4 C                    -0.085012
      5 C                    -0.012602
      6 C                     0.382990
      7 C                    -0.169503
      8 S                     0.025304
      9 C                     0.457848
     10 O                    -0.458254
     11 O                    -0.298983
     12 F                    -0.212521
     13 C                    -0.054818
     14 H                     0.115891
     15 H                     0.083574
     16 H                     0.083462
     17 C                    -0.378044
     18 H                     0.144428
     19 H                     0.170831
     20 H                     0.150719
     21 H                     0.210500
  ----------------------------------------
  Sum of atomic charges =     0.000000

                    Cartesian Multipole Moments
 -----------------------------------------------------------------
    Charge (ESU x 10^10)
                -0.0000
    Dipole Moment (Debye)
         X       0.0567      Y       0.2726      Z       3.8788
       Tot       3.8888
    Quadrupole Moments (Debye-Ang)
        XX     -95.1174     XY       5.0808     YY     -83.1440
        XZ      -4.3368     YZ     -11.9194     ZZ     -96.3642

 Total job time:  54.76s(wall), 1949.65s(cpu)
        *  Thank you very much for using Q-Chem.  Have a nice day.  *
