 Q-Chem 5.4, Q-Chem, Inc., Pleasanton, CA (2021)
 Q-Chem 5.4.0 for Intel X86 EM64T Linux

User input:
--------------------------------------------------------------
$molecule
0 1
C	-0.076780	-0.833466	1.022261
S	0.003820	0.062334	2.532961
C	0.140020	1.631734	1.749861
C	0.002320	0.071334	-0.042439
C	0.121920	1.454934	0.343961
C	-0.001780	0.005034	-1.463839
C	0.108320	1.265034	-2.084639
S	0.213720	2.508134	-0.943439
C	0.135120	1.518134	-3.537739
O	0.056720	0.587934	-4.328039
O	0.250220	2.796134	-3.982139
F	-0.094980	-1.105166	-2.224039
C	0.291620	3.152634	-5.312739
H	0.388520	4.253334	-5.348039
H	-0.629880	2.842434	-5.853339
H	1.153120	2.685834	-5.839639
C	-0.076780	-2.268666	1.022261
H	-1.138880	-2.277666	1.218161
H	-0.222280	-2.952566	0.199161
H	0.095020	-2.793066	1.950661
H	0.220320	2.548234	2.343761
$end

$rem
JOBTYPE		SP
EXCHANGE	HF
CORRELATION	pRIMP2
BASIS		cc-pvtz
METHOD		rimp2
AUX_BASIS	rimp2-cc-pvtz
SOLVENT_METHOD	PCM
PURECART	11111
SYMMETRY	false
MEM_TOTAL	110000
SCF_CONVERGENCE = 6
THRESH=10
GUI = 2
$end

$solvent
dielectric 4.90
$end
--------------------------------------------------------------

             Standard Nuclear Orientation (Angstroms)
    I     Atom           X                Y                Z
 ----------------------------------------------------------------
    1      C      -0.0767800000    -0.8334660000     1.0222610000
    2      S       0.0038200000     0.0623340000     2.5329610000
    3      C       0.1400200000     1.6317340000     1.7498610000
    4      C       0.0023200000     0.0713340000    -0.0424390000
    5      C       0.1219200000     1.4549340000     0.3439610000
    6      C      -0.0017800000     0.0050340000    -1.4638390000
    7      C       0.1083200000     1.2650340000    -2.0846390000
    8      S       0.2137200000     2.5081340000    -0.9434390000
    9      C       0.1351200000     1.5181340000    -3.5377390000
   10      O       0.0567200000     0.5879340000    -4.3280390000
   11      O       0.2502200000     2.7961340000    -3.9821390000
   12      F      -0.0949800000    -1.1051660000    -2.2240390000
   13      C       0.2916200000     3.1526340000    -5.3127390000
   14      H       0.3885200000     4.2533340000    -5.3480390000
   15      H      -0.6298800000     2.8424340000    -5.8533390000
   16      H       1.1531200000     2.6858340000    -5.8396390000
   17      C      -0.0767800000    -2.2686660000     1.0222610000
   18      H      -1.1388800000    -2.2776660000     1.2181610000
   19      H      -0.2222800000    -2.9525660000     0.1991610000
   20      H       0.0950200000    -2.7930660000     1.9506610000
   21      H       0.2203200000     2.5482340000     2.3437610000
 ----------------------------------------------------------------

   11   -1389.2558528655      4.16e-07  Convergence criterion met
 Total energy in the final basis set =    -1389.2558528655
        RIMP2         total energy =     -1391.7573685590 a.u.

                    Orbital Energies (a.u.)
 --------------------------------------------------------------

 Alpha MOs
 -- Occupied --
-92.0068 -91.9870 -26.3340 -20.6088 -20.5443 -11.4053 -11.3765 -11.3211
-11.2910 -11.2868 -11.2858 -11.2740 -11.2656 -11.2362  -9.0056  -8.9913
 -6.6864  -6.6858  -6.6853  -6.6727  -6.6720  -6.6706  -1.6469  -1.4682
 -1.3629  -1.2256  -1.1468  -1.0671  -1.0274  -1.0064  -0.9672  -0.9114
 -0.8622  -0.7958  -0.7839  -0.7655  -0.7256  -0.7146  -0.6964  -0.6777
 -0.6758  -0.6666  -0.6099  -0.6024  -0.5937  -0.5858  -0.5849  -0.5586
 -0.5317  -0.5292  -0.5190  -0.4943  -0.4781  -0.4619  -0.4582  -0.4560
 -0.3901  -0.3469  -0.2716

          Ground-State Mulliken Net Atomic Charges

     Atom                 Charge (a.u.)
  ----------------------------------------
      1 C                     0.041311
      2 S                     0.081428
      3 C                    -0.278406
      4 C                    -0.094241
      5 C                    -0.012260
      6 C                     0.402033
      7 C                    -0.173519
      8 S                     0.021033
      9 C                     0.460391
     10 O                    -0.460126
     11 O                    -0.299175
     12 F                    -0.214228
     13 C                    -0.055112
     14 H                     0.115857
     15 H                     0.083437
     16 H                     0.083430
     17 C                    -0.383871
     18 H                     0.149288
     19 H                     0.173174
     20 H                     0.149299
     21 H                     0.210256
  ----------------------------------------
  Sum of atomic charges =     0.000000

                    Cartesian Multipole Moments
 -----------------------------------------------------------------
    Charge (ESU x 10^10)
                -0.0000
    Dipole Moment (Debye)
         X      -0.5793      Y       0.0717      Z       3.9613
       Tot       4.0041
    Quadrupole Moments (Debye-Ang)
        XX     -96.4147     XY       2.8063     YY     -81.7639
        XZ      -1.6550     YZ     -12.7633     ZZ     -96.7165

 Total job time:  67.95s(wall), 2821.69s(cpu)
        *  Thank you very much for using Q-Chem.  Have a nice day.  *
