 Q-Chem 5.4, Q-Chem, Inc., Pleasanton, CA (2021)
 Q-Chem 5.4.0 for Intel X86 EM64T Linux

User input:
--------------------------------------------------------------
$molecule
0 1
C	-0.446967	-0.717327	1.021968
S	0.004633	0.060473	2.532668
C	0.791433	1.425273	1.749568
C	0.007133	0.069273	-0.042732
C	0.700233	1.272673	0.343668
C	-0.024667	0.010873	-1.464132
C	0.607633	1.106373	-2.084932
S	1.228533	2.188373	-0.943732
C	0.738933	1.324373	-3.538032
O	0.274733	0.514473	-4.328332
O	1.383333	2.434073	-3.982432
F	-0.578267	-0.955927	-2.224332
C	1.571533	2.739673	-5.313032
H	2.124533	3.696273	-5.348332
H	0.605233	2.847873	-5.853632
H	2.154933	1.952473	-5.839932
C	-0.446967	-2.152527	1.021968
H	0.492533	-2.161527	1.554568
H	-0.864567	-2.836427	1.746068
H	0.018133	-2.676927	0.200368
H	1.251433	2.221973	2.343468
$end

$rem
JOBTYPE		SP
EXCHANGE	HF
CORRELATION	pRIMP2
BASIS		cc-pvtz
METHOD		rimp2
AUX_BASIS	rimp2-cc-pvtz
SOLVENT_METHOD	PCM
PURECART	11111
SYMMETRY	false
MEM_TOTAL	110000
SCF_CONVERGENCE = 6
THRESH=10
GUI = 2
$end

$solvent
dielectric 4.90
$end
--------------------------------------------------------------

             Standard Nuclear Orientation (Angstroms)
    I     Atom           X                Y                Z
 ----------------------------------------------------------------
    1      C      -0.4469670000    -0.7173270000     1.0219680000
    2      S       0.0046330000     0.0604730000     2.5326680000
    3      C       0.7914330000     1.4252730000     1.7495680000
    4      C       0.0071330000     0.0692730000    -0.0427320000
    5      C       0.7002330000     1.2726730000     0.3436680000
    6      C      -0.0246670000     0.0108730000    -1.4641320000
    7      C       0.6076330000     1.1063730000    -2.0849320000
    8      S       1.2285330000     2.1883730000    -0.9437320000
    9      C       0.7389330000     1.3243730000    -3.5380320000
   10      O       0.2747330000     0.5144730000    -4.3283320000
   11      O       1.3833330000     2.4340730000    -3.9824320000
   12      F      -0.5782670000    -0.9559270000    -2.2243320000
   13      C       1.5715330000     2.7396730000    -5.3130320000
   14      H       2.1245330000     3.6962730000    -5.3483320000
   15      H       0.6052330000     2.8478730000    -5.8536320000
   16      H       2.1549330000     1.9524730000    -5.8399320000
   17      C      -0.4469670000    -2.1525270000     1.0219680000
   18      H       0.4925330000    -2.1615270000     1.5545680000
   19      H      -0.8645670000    -2.8364270000     1.7460680000
   20      H       0.0181330000    -2.6769270000     0.2003680000
   21      H       1.2514330000     2.2219730000     2.3434680000
 ----------------------------------------------------------------

   11   -1389.2383520789      4.83e-07  Convergence criterion met
 Total energy in the final basis set =    -1389.2383520789
        RIMP2         total energy =     -1391.7456604619 a.u.

                    Orbital Energies (a.u.)
 --------------------------------------------------------------

 Alpha MOs
 -- Occupied --
-92.0023 -91.9893 -26.3338 -20.6103 -20.5470 -11.4075 -11.3764 -11.3119
-11.2915 -11.2909 -11.2876 -11.2829 -11.2708 -11.2316  -9.0019  -8.9935
 -6.6827  -6.6820  -6.6815  -6.6748  -6.6742  -6.6728  -1.6467  -1.4698
 -1.3648  -1.2284  -1.1498  -1.0669  -1.0287  -1.0043  -0.9684  -0.9084
 -0.8639  -0.7966  -0.7847  -0.7678  -0.7267  -0.7147  -0.6958  -0.6770
 -0.6766  -0.6681  -0.6096  -0.6040  -0.6009  -0.5874  -0.5754  -0.5611
 -0.5394  -0.5259  -0.5149  -0.4917  -0.4791  -0.4605  -0.4583  -0.4533
 -0.3922  -0.3463  -0.2741

          Ground-State Mulliken Net Atomic Charges

     Atom                 Charge (a.u.)
  ----------------------------------------
      1 C                     0.063309
      2 S                     0.076317
      3 C                    -0.254851
      4 C                    -0.126697
      5 C                    -0.010234
      6 C                     0.373725
      7 C                    -0.163419
      8 S                     0.029034
      9 C                     0.458354
     10 O                    -0.455156
     11 O                    -0.298629
     12 F                    -0.210411
     13 C                    -0.054836
     14 H                     0.116224
     15 H                     0.083973
     16 H                     0.083778
     17 C                    -0.375035
     18 H                     0.147444
     19 H                     0.160386
     20 H                     0.146362
     21 H                     0.210364
  ----------------------------------------
  Sum of atomic charges =     0.000000

                    Cartesian Multipole Moments
 -----------------------------------------------------------------
    Charge (ESU x 10^10)
                -0.0000
    Dipole Moment (Debye)
         X       1.9846      Y       0.4435      Z       3.8278
       Tot       4.3345
    Quadrupole Moments (Debye-Ang)
        XX     -94.7620     XY       3.0805     YY     -84.7336
        XZ      -4.9931     YZ     -11.7321     ZZ     -95.6633

 Total job time:  54.14s(wall), 1962.56s(cpu)
        *  Thank you very much for using Q-Chem.  Have a nice day.  *
