 Q-Chem 5.4, Q-Chem, Inc., Pleasanton, CA (2021)
 Q-Chem 5.4.0 for Intel X86 EM64T Linux

User input:
--------------------------------------------------------------
$molecule
0 1
C	0.000165	-0.836989	1.024233
S	0.002365	0.062411	2.534933
C	0.001365	1.637711	1.751833
C	0.000165	0.071211	-0.040467
C	-0.001335	1.460011	0.345933
C	0.001765	0.004811	-1.461867
C	0.001665	1.269711	-2.082667
S	-0.001635	2.517211	-0.941467
C	0.006365	1.524111	-3.535767
O	0.009365	0.590611	-4.326067
O	0.009565	2.807311	-3.980167
F	0.005665	-1.109289	-2.222067
C	0.019765	3.166011	-5.310767
H	0.020365	4.271011	-5.346067
H	-0.871235	2.776711	-5.851367
H	0.918665	2.776111	-5.837667
C	0.000165	-2.272189	1.024233
H	-0.832535	-2.281189	0.336533
H	0.537165	-2.956089	0.383733
H	-0.600535	-2.796589	1.752633
H	0.001365	2.557811	2.345733
$end

$rem
JOBTYPE		SP
EXCHANGE	HF
CORRELATION	pRIMP2
BASIS		cc-pvtz
METHOD		rimp2
AUX_BASIS	rimp2-cc-pvtz
SOLVENT_METHOD	PCM
PURECART	11111
SYMMETRY	false
MEM_TOTAL	110000
SCF_CONVERGENCE = 6
THRESH=10
GUI = 2
$end

$solvent
dielectric 4.90
$end
--------------------------------------------------------------

             Standard Nuclear Orientation (Angstroms)
    I     Atom           X                Y                Z
 ----------------------------------------------------------------
    1      C       0.0001650000    -0.8369890000     1.0242330000
    2      S       0.0023650000     0.0624110000     2.5349330000
    3      C       0.0013650000     1.6377110000     1.7518330000
    4      C       0.0001650000     0.0712110000    -0.0404670000
    5      C      -0.0013350000     1.4600110000     0.3459330000
    6      C       0.0017650000     0.0048110000    -1.4618670000
    7      C       0.0016650000     1.2697110000    -2.0826670000
    8      S      -0.0016350000     2.5172110000    -0.9414670000
    9      C       0.0063650000     1.5241110000    -3.5357670000
   10      O       0.0093650000     0.5906110000    -4.3260670000
   11      O       0.0095650000     2.8073110000    -3.9801670000
   12      F       0.0056650000    -1.1092890000    -2.2220670000
   13      C       0.0197650000     3.1660110000    -5.3107670000
   14      H       0.0203650000     4.2710110000    -5.3460670000
   15      H      -0.8712350000     2.7767110000    -5.8513670000
   16      H       0.9186650000     2.7761110000    -5.8376670000
   17      C       0.0001650000    -2.2721890000     1.0242330000
   18      H      -0.8325350000    -2.2811890000     0.3365330000
   19      H       0.5371650000    -2.9560890000     0.3837330000
   20      H      -0.6005350000    -2.7965890000     1.7526330000
   21      H       0.0013650000     2.5578110000     2.3457330000
 ----------------------------------------------------------------

   11   -1389.2561547676      4.50e-07  Convergence criterion met
 Total energy in the final basis set =    -1389.2561547676
        RIMP2         total energy =     -1391.7604977229 a.u.

                    Orbital Energies (a.u.)
 --------------------------------------------------------------

 Alpha MOs
 -- Occupied --
-92.0067 -91.9890 -26.3348 -20.6097 -20.5459 -11.4066 -11.3765 -11.3167
-11.2917 -11.2886 -11.2874 -11.2767 -11.2684 -11.2329  -9.0053  -8.9932
 -6.6861  -6.6855  -6.6851  -6.6745  -6.6738  -6.6725  -1.6478  -1.4692
 -1.3641  -1.2266  -1.1459  -1.0677  -1.0267  -1.0066  -0.9678  -0.9116
 -0.8628  -0.7955  -0.7849  -0.7659  -0.7259  -0.7155  -0.6975  -0.6786
 -0.6766  -0.6676  -0.6101  -0.6033  -0.5935  -0.5862  -0.5842  -0.5642
 -0.5419  -0.5236  -0.5073  -0.4887  -0.4786  -0.4633  -0.4593  -0.4566
 -0.3916  -0.3461  -0.2758

          Ground-State Mulliken Net Atomic Charges

     Atom                 Charge (a.u.)
  ----------------------------------------
      1 C                     0.056139
      2 S                     0.083552
      3 C                    -0.272248
      4 C                    -0.104160
      5 C                    -0.008462
      6 C                     0.390935
      7 C                    -0.165556
      8 S                     0.025330
      9 C                     0.459412
     10 O                    -0.458111
     11 O                    -0.298833
     12 F                    -0.214487
     13 C                    -0.055004
     14 H                     0.116082
     15 H                     0.083652
     16 H                     0.083639
     17 C                    -0.377936
     18 H                     0.134744
     19 H                     0.163289
     20 H                     0.148522
     21 H                     0.209503
  ----------------------------------------
  Sum of atomic charges =     0.000000

                    Cartesian Multipole Moments
 -----------------------------------------------------------------
    Charge (ESU x 10^10)
                -0.0000
    Dipole Moment (Debye)
         X      -0.5672      Y       0.4898      Z       3.2482
       Tot       3.3336
    Quadrupole Moments (Debye-Ang)
        XX     -96.3069     XY       1.4442     YY     -81.8804
        XZ      -0.9450     YZ     -11.3140     ZZ     -97.6001

 Total job time:  56.37s(wall), 2031.35s(cpu)
        *  Thank you very much for using Q-Chem.  Have a nice day.  *
