 Q-Chem 5.4, Q-Chem, Inc., Pleasanton, CA (2021)
 Q-Chem 5.4.0 for Intel X86 EM64T Linux

User input:
--------------------------------------------------------------
$molecule
0 1
C	-0.230219	-0.806326	1.020760
S	0.004681	0.061874	2.531460
C	0.411381	1.583774	1.748360
C	0.004781	0.070974	-0.043940
C	0.362781	1.412774	0.342460
C	-0.010719	0.006374	-1.465340
C	0.316481	1.228174	-2.086140
S	0.636081	2.434074	-0.944940
C	0.386881	1.472774	-3.539240
O	0.148081	0.570274	-4.329540
O	0.722081	2.711374	-3.983640
F	-0.295319	-1.070726	-2.225540
C	0.824781	3.055274	-5.314240
H	1.111281	4.122374	-5.349540
H	-0.136619	2.909774	-5.854840
H	1.592081	2.445874	-5.841140
C	-0.230219	-2.241526	1.020760
H	-0.762819	-2.250526	1.960260
H	-0.954319	-2.925426	0.603160
H	0.591381	-2.765926	1.485860
H	0.649581	2.472474	2.342260
$end

$rem
JOBTYPE		SP
EXCHANGE	HF
CORRELATION	pRIMP2
BASIS		cc-pvtz
METHOD		rimp2
AUX_BASIS	rimp2-cc-pvtz
SOLVENT_METHOD	PCM
PURECART	11111
SYMMETRY	false
MEM_TOTAL	110000
SCF_CONVERGENCE = 6
THRESH=10
GUI = 2
$end

$solvent
dielectric 4.90
$end
--------------------------------------------------------------

             Standard Nuclear Orientation (Angstroms)
    I     Atom           X                Y                Z
 ----------------------------------------------------------------
    1      C      -0.2302190000    -0.8063260000     1.0207600000
    2      S       0.0046810000     0.0618740000     2.5314600000
    3      C       0.4113810000     1.5837740000     1.7483600000
    4      C       0.0047810000     0.0709740000    -0.0439400000
    5      C       0.3627810000     1.4127740000     0.3424600000
    6      C      -0.0107190000     0.0063740000    -1.4653400000
    7      C       0.3164810000     1.2281740000    -2.0861400000
    8      S       0.6360810000     2.4340740000    -0.9449400000
    9      C       0.3868810000     1.4727740000    -3.5392400000
   10      O       0.1480810000     0.5702740000    -4.3295400000
   11      O       0.7220810000     2.7113740000    -3.9836400000
   12      F      -0.2953190000    -1.0707260000    -2.2255400000
   13      C       0.8247810000     3.0552740000    -5.3142400000
   14      H       1.1112810000     4.1223740000    -5.3495400000
   15      H      -0.1366190000     2.9097740000    -5.8548400000
   16      H       1.5920810000     2.4458740000    -5.8411400000
   17      C      -0.2302190000    -2.2415260000     1.0207600000
   18      H      -0.7628190000    -2.2505260000     1.9602600000
   19      H      -0.9543190000    -2.9254260000     0.6031600000
   20      H       0.5913810000    -2.7659260000     1.4858600000
   21      H       0.6495810000     2.4724740000     2.3422600000
 ----------------------------------------------------------------

   11   -1389.2489235924      4.86e-07  Convergence criterion met
 Total energy in the final basis set =    -1389.2489235924
        RIMP2         total energy =     -1391.7554844438 a.u.

                    Orbital Energies (a.u.)
 --------------------------------------------------------------

 Alpha MOs
 -- Occupied --
-92.0091 -91.9896 -26.3329 -20.6102 -20.5470 -11.4075 -11.3751 -11.3079
-11.2914 -11.2911 -11.2875 -11.2838 -11.2686 -11.2288  -9.0078  -8.9938
 -6.6885  -6.6880  -6.6875  -6.6751  -6.6744  -6.6730  -1.6459  -1.4698
 -1.3647  -1.2267  -1.1469  -1.0651  -1.0294  -1.0053  -0.9683  -0.9101
 -0.8641  -0.7965  -0.7840  -0.7674  -0.7261  -0.7139  -0.6953  -0.6769
 -0.6761  -0.6678  -0.6096  -0.6040  -0.5957  -0.5872  -0.5786  -0.5647
 -0.5415  -0.5249  -0.5063  -0.4805  -0.4794  -0.4629  -0.4595  -0.4577
 -0.3936  -0.3464  -0.2800

          Ground-State Mulliken Net Atomic Charges

     Atom                 Charge (a.u.)
  ----------------------------------------
      1 C                     0.016910
      2 S                     0.085148
      3 C                    -0.253427
      4 C                    -0.073326
      5 C                    -0.010851
      6 C                     0.374818
      7 C                    -0.161352
      8 S                     0.028261
      9 C                     0.458123
     10 O                    -0.454780
     11 O                    -0.298399
     12 F                    -0.212323
     13 C                    -0.054914
     14 H                     0.116181
     15 H                     0.083934
     16 H                     0.083845
     17 C                    -0.362938
     18 H                     0.117686
     19 H                     0.164447
     20 H                     0.141195
     21 H                     0.211763
  ----------------------------------------
  Sum of atomic charges =     0.000000

                    Cartesian Multipole Moments
 -----------------------------------------------------------------
    Charge (ESU x 10^10)
                -0.0000
    Dipole Moment (Debye)
         X       0.4176      Y       0.9994      Z       4.1181
       Tot       4.2582
    Quadrupole Moments (Debye-Ang)
        XX     -95.2857     XY       3.4918     YY     -82.9413
        XZ      -2.8650     YZ     -12.8864     ZZ     -95.0790

 Total job time:  53.21s(wall), 1921.87s(cpu)
        *  Thank you very much for using Q-Chem.  Have a nice day.  *
