 Q-Chem 5.4, Q-Chem, Inc., Pleasanton, CA (2021)
 Q-Chem 5.4.0 for Intel X86 EM64T Linux

User input:
--------------------------------------------------------------
$molecule
0 1
C	-0.077143	-0.833466	1.021526
S	0.003457	0.062334	2.532226
C	0.139657	1.631734	1.749126
C	0.001957	0.071334	-0.043174
C	0.121557	1.454934	0.343226
C	-0.002143	0.005034	-1.464574
C	0.107957	1.265034	-2.085374
S	0.213357	2.508134	-0.944174
C	0.134757	1.518134	-3.538474
O	0.056357	0.587934	-4.328774
O	0.249857	2.796134	-3.982874
F	-0.095343	-1.105166	-2.224774
C	0.291257	3.152634	-5.313474
H	0.388157	4.253334	-5.348774
H	-0.630243	2.842434	-5.854074
H	1.152757	2.685834	-5.840374
C	-0.077143	-2.268666	1.021526
H	-1.008143	-2.277666	1.568826
H	-0.495343	-2.952566	0.297826
H	0.401857	-2.793066	1.835126
H	0.219957	2.548234	2.343026
$end

$rem
JOBTYPE		SP
EXCHANGE	HF
CORRELATION	pRIMP2
BASIS		cc-pvtz
METHOD		rimp2
AUX_BASIS	rimp2-cc-pvtz
SOLVENT_METHOD	PCM
PURECART	11111
SYMMETRY	false
MEM_TOTAL	110000
SCF_CONVERGENCE = 6
THRESH=10
GUI = 2
$end

$solvent
dielectric 4.90
$end
--------------------------------------------------------------

             Standard Nuclear Orientation (Angstroms)
    I     Atom           X                Y                Z
 ----------------------------------------------------------------
    1      C      -0.0771430000    -0.8334660000     1.0215260000
    2      S       0.0034570000     0.0623340000     2.5322260000
    3      C       0.1396570000     1.6317340000     1.7491260000
    4      C       0.0019570000     0.0713340000    -0.0431740000
    5      C       0.1215570000     1.4549340000     0.3432260000
    6      C      -0.0021430000     0.0050340000    -1.4645740000
    7      C       0.1079570000     1.2650340000    -2.0853740000
    8      S       0.2133570000     2.5081340000    -0.9441740000
    9      C       0.1347570000     1.5181340000    -3.5384740000
   10      O       0.0563570000     0.5879340000    -4.3287740000
   11      O       0.2498570000     2.7961340000    -3.9828740000
   12      F      -0.0953430000    -1.1051660000    -2.2247740000
   13      C       0.2912570000     3.1526340000    -5.3134740000
   14      H       0.3881570000     4.2533340000    -5.3487740000
   15      H      -0.6302430000     2.8424340000    -5.8540740000
   16      H       1.1527570000     2.6858340000    -5.8403740000
   17      C      -0.0771430000    -2.2686660000     1.0215260000
   18      H      -1.0081430000    -2.2776660000     1.5688260000
   19      H      -0.4953430000    -2.9525660000     0.2978260000
   20      H       0.4018570000    -2.7930660000     1.8351260000
   21      H       0.2199570000     2.5482340000     2.3430260000
 ----------------------------------------------------------------

   11   -1389.2546657873      4.28e-07  Convergence criterion met
 Total energy in the final basis set =    -1389.2546657873
        RIMP2         total energy =     -1391.7570978618 a.u.

                    Orbital Energies (a.u.)
 --------------------------------------------------------------

 Alpha MOs
 -- Occupied --
-92.0068 -91.9875 -26.3336 -20.6092 -20.5451 -11.4059 -11.3762 -11.3178
-11.2908 -11.2873 -11.2870 -11.2768 -11.2666 -11.2338  -9.0057  -8.9917
 -6.6865  -6.6859  -6.6854  -6.6731  -6.6724  -6.6710  -1.6465  -1.4686
 -1.3634  -1.2258  -1.1467  -1.0663  -1.0281  -1.0060  -0.9674  -0.9110
 -0.8627  -0.7960  -0.7838  -0.7660  -0.7257  -0.7142  -0.6959  -0.6772
 -0.6761  -0.6668  -0.6100  -0.6028  -0.5951  -0.5857  -0.5821  -0.5605
 -0.5378  -0.5258  -0.5141  -0.4915  -0.4785  -0.4618  -0.4584  -0.4564
 -0.3915  -0.3468  -0.2737

          Ground-State Mulliken Net Atomic Charges

     Atom                 Charge (a.u.)
  ----------------------------------------
      1 C                     0.030703
      2 S                     0.077232
      3 C                    -0.267466
      4 C                    -0.080467
      5 C                    -0.017346
      6 C                     0.399019
      7 C                    -0.170039
      8 S                     0.021507
      9 C                     0.459849
     10 O                    -0.458581
     11 O                    -0.298908
     12 F                    -0.213738
     13 C                    -0.055099
     14 H                     0.115946
     15 H                     0.083594
     16 H                     0.083576
     17 C                    -0.378145
     18 H                     0.139179
     19 H                     0.169929
     20 H                     0.148355
     21 H                     0.210902
  ----------------------------------------
  Sum of atomic charges =     0.000000

                    Cartesian Multipole Moments
 -----------------------------------------------------------------
    Charge (ESU x 10^10)
                -0.0000
    Dipole Moment (Debye)
         X      -0.4407      Y       0.3372      Z       4.1037
       Tot       4.1411
    Quadrupole Moments (Debye-Ang)
        XX     -96.2662     XY       2.5676     YY     -81.9281
        XZ      -1.3611     YZ     -13.1702     ZZ     -96.0444

 Total job time:  53.19s(wall), 1929.36s(cpu)
        *  Thank you very much for using Q-Chem.  Have a nice day.  *
