 Q-Chem 5.4, Q-Chem, Inc., Pleasanton, CA (2021)
 Q-Chem 5.4.0 for Intel X86 EM64T Linux

User input:
--------------------------------------------------------------
$molecule
0 1
C	-0.081009	-0.833466	1.021608
S	-0.000409	0.062334	2.532308
C	0.135791	1.631734	1.749208
C	-0.001909	0.071334	-0.043092
C	0.117691	1.454934	0.343308
C	-0.006009	0.005034	-1.464492
C	0.104091	1.265034	-2.085292
S	0.209491	2.508134	-0.944092
C	0.130891	1.518134	-3.538392
O	0.052491	0.587934	-4.328692
O	0.245991	2.796134	-3.982792
F	-0.099209	-1.105166	-2.224692
C	0.287391	3.152634	-5.313392
H	0.384291	4.253334	-5.348692
H	-0.634109	2.842434	-5.853992
H	1.148891	2.685834	-5.840292
C	-0.081009	-2.268666	1.021608
H	0.751691	-2.277666	1.709308
H	-0.618009	-2.952566	1.662108
H	0.519691	-2.793066	0.293208
H	0.216091	2.548234	2.343108
$end

$rem
JOBTYPE		SP
EXCHANGE	HF
CORRELATION	pRIMP2
BASIS		cc-pvtz
METHOD		rimp2
AUX_BASIS	rimp2-cc-pvtz
SOLVENT_METHOD	PCM
PURECART	11111
SYMMETRY	false
MEM_TOTAL	110000
SCF_CONVERGENCE = 6
THRESH=10
GUI = 2
$end

$solvent
dielectric 4.90
$end
--------------------------------------------------------------

             Standard Nuclear Orientation (Angstroms)
    I     Atom           X                Y                Z
 ----------------------------------------------------------------
    1      C      -0.0810090000    -0.8334660000     1.0216080000
    2      S      -0.0004090000     0.0623340000     2.5323080000
    3      C       0.1357910000     1.6317340000     1.7492080000
    4      C      -0.0019090000     0.0713340000    -0.0430920000
    5      C       0.1176910000     1.4549340000     0.3433080000
    6      C      -0.0060090000     0.0050340000    -1.4644920000
    7      C       0.1040910000     1.2650340000    -2.0852920000
    8      S       0.2094910000     2.5081340000    -0.9440920000
    9      C       0.1308910000     1.5181340000    -3.5383920000
   10      O       0.0524910000     0.5879340000    -4.3286920000
   11      O       0.2459910000     2.7961340000    -3.9827920000
   12      F      -0.0992090000    -1.1051660000    -2.2246920000
   13      C       0.2873910000     3.1526340000    -5.3133920000
   14      H       0.3842910000     4.2533340000    -5.3486920000
   15      H      -0.6341090000     2.8424340000    -5.8539920000
   16      H       1.1488910000     2.6858340000    -5.8402920000
   17      C      -0.0810090000    -2.2686660000     1.0216080000
   18      H       0.7516910000    -2.2776660000     1.7093080000
   19      H      -0.6180090000    -2.9525660000     1.6621080000
   20      H       0.5196910000    -2.7930660000     0.2932080000
   21      H       0.2160910000     2.5482340000     2.3431080000
 ----------------------------------------------------------------

   11   -1389.2547224798      4.37e-07  Convergence criterion met
 Total energy in the final basis set =    -1389.2547224798
        RIMP2         total energy =     -1391.7578759552 a.u.

                    Orbital Energies (a.u.)
 --------------------------------------------------------------

 Alpha MOs
 -- Occupied --
-92.0057 -91.9880 -26.3335 -20.6096 -20.5458 -11.4065 -11.3762 -11.3160
-11.2909 -11.2886 -11.2872 -11.2785 -11.2683 -11.2327  -9.0047  -8.9923
 -6.6856  -6.6850  -6.6845  -6.6736  -6.6729  -6.6716  -1.6464  -1.4691
 -1.3639  -1.2263  -1.1468  -1.0662  -1.0284  -1.0059  -0.9677  -0.9106
 -0.8631  -0.7962  -0.7840  -0.7666  -0.7260  -0.7142  -0.6957  -0.6766
 -0.6764  -0.6672  -0.6099  -0.6032  -0.5978  -0.5861  -0.5816  -0.5614
 -0.5396  -0.5249  -0.5108  -0.4894  -0.4787  -0.4615  -0.4586  -0.4566
 -0.3932  -0.3465  -0.2755

          Ground-State Mulliken Net Atomic Charges

     Atom                 Charge (a.u.)
  ----------------------------------------
      1 C                     0.044726
      2 S                     0.077269
      3 C                    -0.265591
      4 C                    -0.093686
      5 C                    -0.015482
      6 C                     0.399462
      7 C                    -0.168401
      8 S                     0.023264
      9 C                     0.460196
     10 O                    -0.457373
     11 O                    -0.298730
     12 F                    -0.213577
     13 C                    -0.055072
     14 H                     0.116046
     15 H                     0.083819
     16 H                     0.083605
     17 C                    -0.376344
     18 H                     0.135741
     19 H                     0.161953
     20 H                     0.147481
     21 H                     0.210693
  ----------------------------------------
  Sum of atomic charges =     0.000000

                    Cartesian Multipole Moments
 -----------------------------------------------------------------
    Charge (ESU x 10^10)
                -0.0000
    Dipole Moment (Debye)
         X       0.7881      Y       0.5111      Z       4.0849
       Tot       4.1915
    Quadrupole Moments (Debye-Ang)
        XX     -96.3349     XY      -0.4201     YY     -82.0280
        XZ      -0.7263     YZ     -13.5068     ZZ     -95.7775

 Total job time:  53.04s(wall), 1914.70s(cpu)
        *  Thank you very much for using Q-Chem.  Have a nice day.  *
