 Q-Chem 5.4, Q-Chem, Inc., Pleasanton, CA (2021)
 Q-Chem 5.4.0 for Intel X86 EM64T Linux

User input:
--------------------------------------------------------------
$molecule
0 1
C	-0.573507	-0.628442	1.022358
S	0.006393	0.059158	2.533058
C	1.018093	1.266558	1.749958
C	0.010293	0.067358	-0.042342
C	0.901793	1.132158	0.344058
C	-0.031107	0.015358	-1.463742
C	0.781793	0.984358	-2.084542
S	1.581093	1.942158	-0.943342
C	0.948893	1.176358	-3.537642
O	0.351193	0.459358	-4.327942
O	1.776193	2.157258	-3.982042
F	-0.744307	-0.840542	-2.223942
C	2.014593	2.425458	-5.312642
H	2.725293	3.271558	-5.347942
H	1.081793	2.699958	-5.853242
H	2.452493	1.548958	-5.839542
C	-0.573507	-2.063642	1.022358
H	0.444193	-2.072642	1.383758
H	-0.859007	-2.747542	1.807958
H	-0.258107	-2.588042	0.132458
H	1.609593	1.971358	2.343858
$end

$rem
JOBTYPE		SP
EXCHANGE	HF
CORRELATION	pRIMP2
BASIS		cc-pvtz
METHOD		rimp2
AUX_BASIS	rimp2-cc-pvtz
SOLVENT_METHOD	PCM
PURECART	11111
SYMMETRY	false
MEM_TOTAL	110000
SCF_CONVERGENCE = 6
THRESH=10
GUI = 2
$end

$solvent
dielectric 4.90
$end
--------------------------------------------------------------

             Standard Nuclear Orientation (Angstroms)
    I     Atom           X                Y                Z
 ----------------------------------------------------------------
    1      C      -0.5735070000    -0.6284420000     1.0223580000
    2      S       0.0063930000     0.0591580000     2.5330580000
    3      C       1.0180930000     1.2665580000     1.7499580000
    4      C       0.0102930000     0.0673580000    -0.0423420000
    5      C       0.9017930000     1.1321580000     0.3440580000
    6      C      -0.0311070000     0.0153580000    -1.4637420000
    7      C       0.7817930000     0.9843580000    -2.0845420000
    8      S       1.5810930000     1.9421580000    -0.9433420000
    9      C       0.9488930000     1.1763580000    -3.5376420000
   10      O       0.3511930000     0.4593580000    -4.3279420000
   11      O       1.7761930000     2.1572580000    -3.9820420000
   12      F      -0.7443070000    -0.8405420000    -2.2239420000
   13      C       2.0145930000     2.4254580000    -5.3126420000
   14      H       2.7252930000     3.2715580000    -5.3479420000
   15      H       1.0817930000     2.6999580000    -5.8532420000
   16      H       2.4524930000     1.5489580000    -5.8395420000
   17      C      -0.5735070000    -2.0636420000     1.0223580000
   18      H       0.4441930000    -2.0726420000     1.3837580000
   19      H      -0.8590070000    -2.7475420000     1.8079580000
   20      H      -0.2581070000    -2.5880420000     0.1324580000
   21      H       1.6095930000     1.9713580000     2.3438580000
 ----------------------------------------------------------------

   11   -1389.2252121220      5.41e-07  Convergence criterion met
 Total energy in the final basis set =    -1389.2252121220
        RIMP2         total energy =     -1391.7366823913 a.u.

                    Orbital Energies (a.u.)
 --------------------------------------------------------------

 Alpha MOs
 -- Occupied --
-92.0015 -91.9909 -26.3340 -20.6108 -20.5479 -11.4083 -11.3764 -11.3073
-11.2928 -11.2927 -11.2879 -11.2877 -11.2722 -11.2310  -9.0013  -8.9951
 -6.6821  -6.6814  -6.6810  -6.6764  -6.6757  -6.6744  -1.6470  -1.4704
 -1.3655  -1.2302  -1.1521  -1.0679  -1.0290  -1.0034  -0.9690  -0.9071
 -0.8646  -0.7970  -0.7854  -0.7689  -0.7273  -0.7151  -0.6960  -0.6775
 -0.6767  -0.6690  -0.6093  -0.6050  -0.6025  -0.5888  -0.5742  -0.5605
 -0.5359  -0.5271  -0.5176  -0.4935  -0.4800  -0.4608  -0.4590  -0.4506
 -0.3903  -0.3466  -0.2739

          Ground-State Mulliken Net Atomic Charges

     Atom                 Charge (a.u.)
  ----------------------------------------
      1 C                     0.043940
      2 S                     0.078932
      3 C                    -0.244072
      4 C                    -0.114172
      5 C                    -0.011156
      6 C                     0.364550
      7 C                    -0.159165
      8 S                     0.034041
      9 C                     0.457642
     10 O                    -0.453694
     11 O                    -0.298508
     12 F                    -0.209948
     13 C                    -0.054622
     14 H                     0.116293
     15 H                     0.084178
     16 H                     0.083827
     17 C                    -0.373015
     18 H                     0.143844
     19 H                     0.158836
     20 H                     0.141311
     21 H                     0.210960
  ----------------------------------------
  Sum of atomic charges =     0.000000

                    Cartesian Multipole Moments
 -----------------------------------------------------------------
    Charge (ESU x 10^10)
                -0.0000
    Dipole Moment (Debye)
         X       2.5774      Y       0.4469      Z       3.6154
       Tot       4.4625
    Quadrupole Moments (Debye-Ang)
        XX     -93.5827     XY       3.9118     YY     -86.5340
        XZ      -6.2562     YZ     -10.2191     ZZ     -95.5368

 Total job time:  57.90s(wall), 1994.52s(cpu)
        *  Thank you very much for using Q-Chem.  Have a nice day.  *
