 Q-Chem 5.4, Q-Chem, Inc., Pleasanton, CA (2021)
 Q-Chem 5.4.0 for Intel X86 EM64T Linux

User input:
--------------------------------------------------------------
$molecule
0 1
C	-0.306800	-0.782911	1.024315
S	0.002900	0.061489	2.535015
C	0.540700	1.542189	1.751915
C	0.003800	0.070589	-0.040385
C	0.477400	1.376089	0.346015
C	-0.017300	0.007589	-1.461785
C	0.415100	1.196189	-2.082585
S	0.838700	2.369589	-0.941385
C	0.506600	1.433689	-3.535685
O	0.190100	0.555489	-4.325985
O	0.948500	2.638389	-3.980085
F	-0.394700	-1.040711	-2.221985
C	1.080700	2.971989	-5.310685
H	1.459200	4.010189	-5.345985
H	0.110300	2.910889	-5.851285
H	1.792000	2.298089	-5.837585
C	-0.306800	-2.218111	1.024315
H	0.624200	-2.227111	0.477015
H	0.111400	-2.902011	1.748015
H	-0.785800	-2.742511	0.210715
H	0.855400	2.406689	2.345815
$end

$rem
JOBTYPE		SP
EXCHANGE	HF
CORRELATION	pRIMP2
BASIS		cc-pvtz
METHOD		rimp2
AUX_BASIS	rimp2-cc-pvtz
SOLVENT_METHOD	PCM
PURECART	11111
SYMMETRY	false
MEM_TOTAL	110000
SCF_CONVERGENCE = 6
THRESH=10
GUI = 2
$end

$solvent
dielectric 4.90
$end
--------------------------------------------------------------

             Standard Nuclear Orientation (Angstroms)
    I     Atom           X                Y                Z
 ----------------------------------------------------------------
    1      C      -0.3068000000    -0.7829110000     1.0243150000
    2      S       0.0029000000     0.0614890000     2.5350150000
    3      C       0.5407000000     1.5421890000     1.7519150000
    4      C       0.0038000000     0.0705890000    -0.0403850000
    5      C       0.4774000000     1.3760890000     0.3460150000
    6      C      -0.0173000000     0.0075890000    -1.4617850000
    7      C       0.4151000000     1.1961890000    -2.0825850000
    8      S       0.8387000000     2.3695890000    -0.9413850000
    9      C       0.5066000000     1.4336890000    -3.5356850000
   10      O       0.1901000000     0.5554890000    -4.3259850000
   11      O       0.9485000000     2.6383890000    -3.9800850000
   12      F      -0.3947000000    -1.0407110000    -2.2219850000
   13      C       1.0807000000     2.9719890000    -5.3106850000
   14      H       1.4592000000     4.0101890000    -5.3459850000
   15      H       0.1103000000     2.9108890000    -5.8512850000
   16      H       1.7920000000     2.2980890000    -5.8375850000
   17      C      -0.3068000000    -2.2181110000     1.0243150000
   18      H       0.6242000000    -2.2271110000     0.4770150000
   19      H       0.1114000000    -2.9020110000     1.7480150000
   20      H      -0.7858000000    -2.7425110000     0.2107150000
   21      H       0.8554000000     2.4066890000     2.3458150000
 ----------------------------------------------------------------

   11   -1389.2485828912      4.59e-07  Convergence criterion met
 Total energy in the final basis set =    -1389.2485828912
        RIMP2         total energy =     -1391.7546055693 a.u.

                    Orbital Energies (a.u.)
 --------------------------------------------------------------

 Alpha MOs
 -- Occupied --
-92.0073 -91.9893 -26.3347 -20.6095 -20.5456 -11.4064 -11.3764 -11.3173
-11.2923 -11.2882 -11.2873 -11.2763 -11.2673 -11.2338  -9.0059  -8.9935
 -6.6867  -6.6861  -6.6857  -6.6748  -6.6741  -6.6728  -1.6477  -1.4690
 -1.3638  -1.2272  -1.1476  -1.0682  -1.0264  -1.0059  -0.9678  -0.9105
 -0.8627  -0.7954  -0.7849  -0.7660  -0.7260  -0.7155  -0.6969  -0.6777
 -0.6765  -0.6676  -0.6099  -0.6031  -0.5947  -0.5916  -0.5853  -0.5616
 -0.5359  -0.5237  -0.5079  -0.4922  -0.4781  -0.4643  -0.4592  -0.4569
 -0.3893  -0.3464  -0.2741

          Ground-State Mulliken Net Atomic Charges

     Atom                 Charge (a.u.)
  ----------------------------------------
      1 C                     0.043994
      2 S                     0.090476
      3 C                    -0.275039
      4 C                    -0.095069
      5 C                    -0.007244
      6 C                     0.374384
      7 C                    -0.168825
      8 S                     0.029718
      9 C                     0.458217
     10 O                    -0.458101
     11 O                    -0.299015
     12 F                    -0.212541
     13 C                    -0.054797
     14 H                     0.115974
     15 H                     0.083741
     16 H                     0.083417
     17 C                    -0.382188
     18 H                     0.146180
     19 H                     0.170680
     20 H                     0.146988
     21 H                     0.209050
  ----------------------------------------
  Sum of atomic charges =     0.000000

                    Cartesian Multipole Moments
 -----------------------------------------------------------------
    Charge (ESU x 10^10)
                -0.0000
    Dipole Moment (Debye)
         X       1.4309      Y       0.3120      Z       3.3670
       Tot       3.6717
    Quadrupole Moments (Debye-Ang)
        XX     -95.7613     XY       1.7179     YY     -83.1623
        XZ      -2.7267     YZ     -11.0952     ZZ     -97.3757

 Total job time:  65.36s(wall), 2677.27s(cpu)
        *  Thank you very much for using Q-Chem.  Have a nice day.  *
