 Q-Chem 5.4, Q-Chem, Inc., Pleasanton, CA (2021)
 Q-Chem 5.4.0 for Intel X86 EM64T Linux

User input:
--------------------------------------------------------------
$molecule
0 1
C	-0.682166	-0.518946	1.024315
S	0.008234	0.057454	2.535015
C	1.214334	1.070954	1.751915
C	0.013534	0.064854	-0.040385
C	1.076434	0.958754	0.346015
C	-0.036266	0.020954	-1.461785
C	0.932634	0.834054	-2.082585
S	1.886134	1.638454	-0.941385
C	1.130534	0.994054	-3.535685
O	0.417334	0.391754	-4.325985
O	2.115634	1.816354	-3.980085
F	-0.887166	-0.698246	-2.221985
C	2.396934	2.039154	-5.310685
H	3.243734	2.748954	-5.345985
H	1.525934	2.471454	-5.851285
H	2.675934	1.099854	-5.837585
C	-0.682166	-1.954146	1.024315
H	0.248834	-1.963146	0.477015
H	-0.263966	-2.638046	1.748015
H	-1.161166	-2.478546	0.210715
H	1.919134	1.662254	2.345815
$end

$rem
JOBTYPE		SP
EXCHANGE	HF
CORRELATION	pRIMP2
BASIS		cc-pvtz
METHOD		rimp2
AUX_BASIS	rimp2-cc-pvtz
SOLVENT_METHOD	PCM
PURECART	11111
SYMMETRY	false
MEM_TOTAL	110000
SCF_CONVERGENCE = 6
THRESH=10
GUI = 2
$end

$solvent
dielectric 4.90
$end
--------------------------------------------------------------

             Standard Nuclear Orientation (Angstroms)
    I     Atom           X                Y                Z
 ----------------------------------------------------------------
    1      C      -0.6821660000    -0.5189460000     1.0243150000
    2      S       0.0082340000     0.0574540000     2.5350150000
    3      C       1.2143340000     1.0709540000     1.7519150000
    4      C       0.0135340000     0.0648540000    -0.0403850000
    5      C       1.0764340000     0.9587540000     0.3460150000
    6      C      -0.0362660000     0.0209540000    -1.4617850000
    7      C       0.9326340000     0.8340540000    -2.0825850000
    8      S       1.8861340000     1.6384540000    -0.9413850000
    9      C       1.1305340000     0.9940540000    -3.5356850000
   10      O       0.4173340000     0.3917540000    -4.3259850000
   11      O       2.1156340000     1.8163540000    -3.9800850000
   12      F      -0.8871660000    -0.6982460000    -2.2219850000
   13      C       2.3969340000     2.0391540000    -5.3106850000
   14      H       3.2437340000     2.7489540000    -5.3459850000
   15      H       1.5259340000     2.4714540000    -5.8512850000
   16      H       2.6759340000     1.0998540000    -5.8375850000
   17      C      -0.6821660000    -1.9541460000     1.0243150000
   18      H       0.2488340000    -1.9631460000     0.4770150000
   19      H      -0.2639660000    -2.6380460000     1.7480150000
   20      H      -1.1611660000    -2.4785460000     0.2107150000
   21      H       1.9191340000     1.6622540000     2.3458150000
 ----------------------------------------------------------------

   11   -1389.1998412273      6.81e-07  Convergence criterion met
 Total energy in the final basis set =    -1389.1998412273
        RIMP2         total energy =     -1391.7218314557 a.u.

                    Orbital Energies (a.u.)
 --------------------------------------------------------------

 Alpha MOs
 -- Occupied --
-92.0094 -91.9960 -26.3338 -20.6118 -20.5497 -11.4099 -11.3746 -11.2967
-11.2959 -11.2946 -11.2931 -11.2885 -11.2722 -11.2239  -9.0082  -8.9998
 -6.6888  -6.6881  -6.6879  -6.6810  -6.6804  -6.6791  -1.6469  -1.4716
 -1.3669  -1.2328  -1.1536  -1.0703  -1.0284  -1.0021  -0.9702  -0.9058
 -0.8653  -0.7960  -0.7864  -0.7699  -0.7277  -0.7154  -0.6967  -0.6784
 -0.6771  -0.6706  -0.6085  -0.6057  -0.6004  -0.5915  -0.5835  -0.5617
 -0.5284  -0.5258  -0.5084  -0.4914  -0.4801  -0.4619  -0.4605  -0.4559
 -0.3817  -0.3449  -0.2777

          Ground-State Mulliken Net Atomic Charges

     Atom                 Charge (a.u.)
  ----------------------------------------
      1 C                    -0.062141
      2 S                     0.114242
      3 C                    -0.230151
      4 C                    -0.044069
      5 C                    -0.016899
      6 C                     0.357156
      7 C                    -0.154733
      8 S                     0.050069
      9 C                     0.458123
     10 O                    -0.450943
     11 O                    -0.298267
     12 F                    -0.211210
     13 C                    -0.054613
     14 H                     0.116502
     15 H                     0.084423
     16 H                     0.084161
     17 C                    -0.373798
     18 H                     0.130590
     19 H                     0.160846
     20 H                     0.128245
     21 H                     0.212467
  ----------------------------------------
  Sum of atomic charges =     0.000000

                    Cartesian Multipole Moments
 -----------------------------------------------------------------
    Charge (ESU x 10^10)
                -0.0000
    Dipole Moment (Debye)
         X       3.4081      Y       0.8033      Z       3.1446
       Tot       4.7062
    Quadrupole Moments (Debye-Ang)
        XX     -91.8540     XY       4.3281     YY     -88.9598
        XZ      -6.7501     YZ      -7.3614     ZZ     -95.1597

 Total job time:  58.30s(wall), 2055.61s(cpu)
        *  Thank you very much for using Q-Chem.  Have a nice day.  *
