 Q-Chem 5.4, Q-Chem, Inc., Pleasanton, CA (2021)
 Q-Chem 5.4.0 for Intel X86 EM64T Linux

User input:
--------------------------------------------------------------
$molecule
0 1
C	-0.570172	-0.628442	1.025038
S	0.009728	0.059158	2.535738
C	1.021428	1.266558	1.752638
C	0.013628	0.067358	-0.039662
C	0.905128	1.132158	0.346738
C	-0.027772	0.015358	-1.461062
C	0.785128	0.984358	-2.081862
S	1.584428	1.942158	-0.940662
C	0.952228	1.176358	-3.534962
O	0.354528	0.459358	-4.325262
O	1.779528	2.157258	-3.979362
F	-0.740972	-0.840542	-2.221262
C	2.017928	2.425458	-5.309962
H	2.728628	3.271558	-5.345262
H	1.085128	2.699958	-5.850562
H	2.455828	1.548958	-5.836862
C	-0.570172	-2.063642	1.025038
H	-0.947472	-2.072642	0.013138
H	0.215128	-2.747542	0.738838
H	-1.454572	-2.588042	1.355438
H	1.612928	1.971358	2.346538
$end

$rem
JOBTYPE		SP
EXCHANGE	HF
CORRELATION	pRIMP2
BASIS		cc-pvtz
METHOD		rimp2
AUX_BASIS	rimp2-cc-pvtz
SOLVENT_METHOD	PCM
PURECART	11111
SYMMETRY	false
MEM_TOTAL	110000
SCF_CONVERGENCE = 6
THRESH=10
GUI = 2
$end

$solvent
dielectric 4.90
$end
--------------------------------------------------------------

             Standard Nuclear Orientation (Angstroms)
    I     Atom           X                Y                Z
 ----------------------------------------------------------------
    1      C      -0.5701720000    -0.6284420000     1.0250380000
    2      S       0.0097280000     0.0591580000     2.5357380000
    3      C       1.0214280000     1.2665580000     1.7526380000
    4      C       0.0136280000     0.0673580000    -0.0396620000
    5      C       0.9051280000     1.1321580000     0.3467380000
    6      C      -0.0277720000     0.0153580000    -1.4610620000
    7      C       0.7851280000     0.9843580000    -2.0818620000
    8      S       1.5844280000     1.9421580000    -0.9406620000
    9      C       0.9522280000     1.1763580000    -3.5349620000
   10      O       0.3545280000     0.4593580000    -4.3252620000
   11      O       1.7795280000     2.1572580000    -3.9793620000
   12      F      -0.7409720000    -0.8405420000    -2.2212620000
   13      C       2.0179280000     2.4254580000    -5.3099620000
   14      H       2.7286280000     3.2715580000    -5.3452620000
   15      H       1.0851280000     2.6999580000    -5.8505620000
   16      H       2.4558280000     1.5489580000    -5.8368620000
   17      C      -0.5701720000    -2.0636420000     1.0250380000
   18      H      -0.9474720000    -2.0726420000     0.0131380000
   19      H       0.2151280000    -2.7475420000     0.7388380000
   20      H      -1.4545720000    -2.5880420000     1.3554380000
   21      H       1.6129280000     1.9713580000     2.3465380000
 ----------------------------------------------------------------

   11   -1389.2234878052      6.41e-07  Convergence criterion met
 Total energy in the final basis set =    -1389.2234878052
        RIMP2         total energy =     -1391.7401758622 a.u.

                    Orbital Energies (a.u.)
 --------------------------------------------------------------

 Alpha MOs
 -- Occupied --
-92.0021 -91.9954 -26.3348 -20.6127 -20.5513 -11.4112 -11.3756 -11.2993
-11.2981 -11.2930 -11.2889 -11.2879 -11.2788 -11.2207  -9.0015  -8.9994
 -6.6822  -6.6814  -6.6812  -6.6806  -6.6800  -6.6786  -1.6481  -1.4726
 -1.3681  -1.2311  -1.1478  -1.0684  -1.0283  -1.0036  -0.9700  -0.9093
 -0.8655  -0.7963  -0.7875  -0.7695  -0.7279  -0.7165  -0.6970  -0.6791
 -0.6772  -0.6714  -0.6071  -0.6053  -0.6003  -0.5911  -0.5753  -0.5649
 -0.5404  -0.5261  -0.5083  -0.4833  -0.4753  -0.4623  -0.4615  -0.4403
 -0.3942  -0.3442  -0.2861

          Ground-State Mulliken Net Atomic Charges

     Atom                 Charge (a.u.)
  ----------------------------------------
      1 C                    -0.038605
      2 S                     0.093937
      3 C                    -0.212805
      4 C                    -0.069022
      5 C                    -0.019756
      6 C                     0.360988
      7 C                    -0.143151
      8 S                     0.045236
      9 C                     0.456819
     10 O                    -0.448414
     11 O                    -0.297522
     12 F                    -0.211710
     13 C                    -0.054599
     14 H                     0.116774
     15 H                     0.084664
     16 H                     0.084424
     17 C                    -0.358571
     18 H                     0.109849
     19 H                     0.155937
     20 H                     0.133464
     21 H                     0.212061
  ----------------------------------------
  Sum of atomic charges =     0.000000

                    Cartesian Multipole Moments
 -----------------------------------------------------------------
    Charge (ESU x 10^10)
                -0.0000
    Dipole Moment (Debye)
         X       2.3079      Y       1.4666      Z       2.5393
       Tot       3.7316
    Quadrupole Moments (Debye-Ang)
        XX     -91.8352     XY       5.7645     YY     -86.9666
        XZ      -6.5901     YZ      -7.7411     ZZ     -96.2293

 Total job time:  58.21s(wall), 2045.48s(cpu)
        *  Thank you very much for using Q-Chem.  Have a nice day.  *
