 Q-Chem 5.4, Q-Chem, Inc., Pleasanton, CA (2021)
 Q-Chem 5.4.0 for Intel X86 EM64T Linux

User input:
--------------------------------------------------------------
$molecule
0 1
C	-0.691171	-0.520106	1.023176
S	-0.000771	0.056294	2.533876
C	1.205329	1.069794	1.750776
C	0.004529	0.063694	-0.041524
C	1.067429	0.957594	0.344876
C	-0.045271	0.019794	-1.462924
C	0.923629	0.832894	-2.083724
S	1.877129	1.637294	-0.942524
C	1.121529	0.992894	-3.536824
O	0.408329	0.390594	-4.327124
O	2.106629	1.815194	-3.981224
F	-0.896171	-0.699406	-2.223124
C	2.387929	2.037994	-5.311824
H	3.234729	2.747794	-5.347124
H	1.516929	2.470294	-5.852424
H	2.666929	1.098694	-5.838724
C	-0.441971	-1.933506	1.023176
H	0.623129	-1.754806	1.014676
H	-0.322871	-2.606906	1.859076
H	-0.358771	-2.451306	0.079076
H	1.910129	1.661094	2.344676
$end

$rem
JOBTYPE		SP
EXCHANGE	HF
CORRELATION	pRIMP2
BASIS		cc-pvtz
METHOD		rimp2
AUX_BASIS	rimp2-cc-pvtz
SOLVENT_METHOD	PCM
PURECART	11111
SYMMETRY	false
MEM_TOTAL	110000
SCF_CONVERGENCE = 6
THRESH=10
GUI = 2
$end

$solvent
dielectric 4.90
$end
--------------------------------------------------------------

             Standard Nuclear Orientation (Angstroms)
    I     Atom           X                Y                Z
 ----------------------------------------------------------------
    1      C      -0.6911710000    -0.5201060000     1.0231760000
    2      S      -0.0007710000     0.0562940000     2.5338760000
    3      C       1.2053290000     1.0697940000     1.7507760000
    4      C       0.0045290000     0.0636940000    -0.0415240000
    5      C       1.0674290000     0.9575940000     0.3448760000
    6      C      -0.0452710000     0.0197940000    -1.4629240000
    7      C       0.9236290000     0.8328940000    -2.0837240000
    8      S       1.8771290000     1.6372940000    -0.9425240000
    9      C       1.1215290000     0.9928940000    -3.5368240000
   10      O       0.4083290000     0.3905940000    -4.3271240000
   11      O       2.1066290000     1.8151940000    -3.9812240000
   12      F      -0.8961710000    -0.6994060000    -2.2231240000
   13      C       2.3879290000     2.0379940000    -5.3118240000
   14      H       3.2347290000     2.7477940000    -5.3471240000
   15      H       1.5169290000     2.4702940000    -5.8524240000
   16      H       2.6669290000     1.0986940000    -5.8387240000
   17      C      -0.4419710000    -1.9335060000     1.0231760000
   18      H       0.6231290000    -1.7548060000     1.0146760000
   19      H      -0.3228710000    -2.6069060000     1.8590760000
   20      H      -0.3587710000    -2.4513060000     0.0790760000
   21      H       1.9101290000     1.6610940000     2.3446760000
 ----------------------------------------------------------------

   11   -1389.1830619224      7.18e-07  Convergence criterion met
 Total energy in the final basis set =    -1389.1830619224
        RIMP2         total energy =     -1391.7080761927 a.u.

                    Orbital Energies (a.u.)
 --------------------------------------------------------------

 Alpha MOs
 -- Occupied --
-92.0050 -91.9983 -26.3337 -20.6129 -20.5516 -11.4116 -11.3752 -11.3085
-11.3004 -11.2969 -11.2890 -11.2843 -11.2778 -11.2261  -9.0047  -9.0020
 -6.6853  -6.6845  -6.6844  -6.6833  -6.6826  -6.6813  -1.6467  -1.4728
 -1.3683  -1.2369  -1.1589  -1.0720  -1.0308  -1.0013  -0.9716  -0.9037
 -0.8672  -0.7982  -0.7875  -0.7729  -0.7295  -0.7155  -0.6975  -0.6793
 -0.6770  -0.6726  -0.6101  -0.6088  -0.6055  -0.5931  -0.5719  -0.5621
 -0.5298  -0.5230  -0.5186  -0.4972  -0.4834  -0.4624  -0.4620  -0.4439
 -0.3819  -0.3471  -0.2790

          Ground-State Mulliken Net Atomic Charges

     Atom                 Charge (a.u.)
  ----------------------------------------
      1 C                    -0.098569
      2 S                     0.108430
      3 C                    -0.197530
      4 C                    -0.028126
      5 C                    -0.029337
      6 C                     0.366692
      7 C                    -0.146917
      8 S                     0.055074
      9 C                     0.457684
     10 O                    -0.447644
     11 O                    -0.297899
     12 F                    -0.210819
     13 C                    -0.054610
     14 H                     0.116733
     15 H                     0.084816
     16 H                     0.084507
     17 C                    -0.360593
     18 H                     0.102336
     19 H                     0.153648
     20 H                     0.127061
     21 H                     0.215063
  ----------------------------------------
  Sum of atomic charges =     0.000000

                    Cartesian Multipole Moments
 -----------------------------------------------------------------
    Charge (ESU x 10^10)
                -0.0000
    Dipole Moment (Debye)
         X       4.1454      Y       1.3778      Z       3.1564
       Tot       5.3894
    Quadrupole Moments (Debye-Ang)
        XX     -92.0176     XY       4.3410     YY     -89.2497
        XZ      -6.5300     YZ      -7.5185     ZZ     -93.9288

 Total job time:  56.58s(wall), 1968.87s(cpu)
        *  Thank you very much for using Q-Chem.  Have a nice day.  *
