 Q-Chem 5.4, Q-Chem, Inc., Pleasanton, CA (2021)
 Q-Chem 5.4.0 for Intel X86 EM64T Linux

User input:
--------------------------------------------------------------
$molecule
0 1
C	-0.232484	-0.806326	1.024882
S	0.002416	0.061874	2.535582
C	0.409116	1.583774	1.752482
C	0.002516	0.070974	-0.039818
C	0.360516	1.412774	0.346582
C	-0.012984	0.006374	-1.461218
C	0.314216	1.228174	-2.082018
S	0.633816	2.434074	-0.940818
C	0.384616	1.472774	-3.535118
O	0.145816	0.570274	-4.325418
O	0.719816	2.711374	-3.979518
F	-0.297584	-1.070726	-2.221418
C	0.822516	3.055274	-5.310118
H	1.109016	4.122374	-5.345418
H	-0.138884	2.909774	-5.850718
H	1.589816	2.445874	-5.837018
C	-0.232484	-2.241526	1.024882
H	0.455216	-2.250526	0.192182
H	0.408016	-2.925426	1.561882
H	-0.960884	-2.765926	0.424182
H	0.647316	2.472474	2.346382
$end

$rem
JOBTYPE		SP
EXCHANGE	HF
CORRELATION	pRIMP2
BASIS		cc-pvtz
METHOD		rimp2
AUX_BASIS	rimp2-cc-pvtz
SOLVENT_METHOD	PCM
PURECART	11111
SYMMETRY	false
MEM_TOTAL	110000
SCF_CONVERGENCE = 6
THRESH=10
GUI = 2
$end

$solvent
dielectric 4.90
$end
--------------------------------------------------------------

             Standard Nuclear Orientation (Angstroms)
    I     Atom           X                Y                Z
 ----------------------------------------------------------------
    1      C      -0.2324840000    -0.8063260000     1.0248820000
    2      S       0.0024160000     0.0618740000     2.5355820000
    3      C       0.4091160000     1.5837740000     1.7524820000
    4      C       0.0025160000     0.0709740000    -0.0398180000
    5      C       0.3605160000     1.4127740000     0.3465820000
    6      C      -0.0129840000     0.0063740000    -1.4612180000
    7      C       0.3142160000     1.2281740000    -2.0820180000
    8      S       0.6338160000     2.4340740000    -0.9408180000
    9      C       0.3846160000     1.4727740000    -3.5351180000
   10      O       0.1458160000     0.5702740000    -4.3254180000
   11      O       0.7198160000     2.7113740000    -3.9795180000
   12      F      -0.2975840000    -1.0707260000    -2.2214180000
   13      C       0.8225160000     3.0552740000    -5.3101180000
   14      H       1.1090160000     4.1223740000    -5.3454180000
   15      H      -0.1388840000     2.9097740000    -5.8507180000
   16      H       1.5898160000     2.4458740000    -5.8370180000
   17      C      -0.2324840000    -2.2415260000     1.0248820000
   18      H       0.4552160000    -2.2505260000     0.1921820000
   19      H       0.4080160000    -2.9254260000     1.5618820000
   20      H      -0.9608840000    -2.7659260000     0.4241820000
   21      H       0.6473160000     2.4724740000     2.3463820000
 ----------------------------------------------------------------

   11   -1389.2500605149      4.78e-07  Convergence criterion met
 Total energy in the final basis set =    -1389.2500605149
        RIMP2         total energy =     -1391.7570570602 a.u.

                    Orbital Energies (a.u.)
 --------------------------------------------------------------

 Alpha MOs
 -- Occupied --
-92.0063 -91.9902 -26.3350 -20.6102 -20.5468 -11.4074 -11.3764 -11.3133
-11.2920 -11.2905 -11.2876 -11.2792 -11.2700 -11.2307  -9.0050  -8.9943
 -6.6858  -6.6852  -6.6848  -6.6756  -6.6749  -6.6736  -1.6481  -1.4698
 -1.3647  -1.2275  -1.1463  -1.0682  -1.0266  -1.0061  -0.9682  -0.9110
 -0.8632  -0.7955  -0.7855  -0.7664  -0.7262  -0.7160  -0.6972  -0.6781
 -0.6770  -0.6683  -0.6095  -0.6039  -0.5952  -0.5896  -0.5856  -0.5642
 -0.5400  -0.5243  -0.5050  -0.4846  -0.4754  -0.4654  -0.4598  -0.4571
 -0.3919  -0.3456  -0.2778

          Ground-State Mulliken Net Atomic Charges

     Atom                 Charge (a.u.)
  ----------------------------------------
      1 C                     0.041640
      2 S                     0.086955
      3 C                    -0.265376
      4 C                    -0.090313
      5 C                    -0.009874
      6 C                     0.371872
      7 C                    -0.160151
      8 S                     0.030481
      9 C                     0.457972
     10 O                    -0.456301
     11 O                    -0.298582
     12 F                    -0.213129
     13 C                    -0.054876
     14 H                     0.116227
     15 H                     0.083895
     16 H                     0.083670
     17 C                    -0.379122
     18 H                     0.132891
     19 H                     0.167569
     20 H                     0.145067
     21 H                     0.209485
  ----------------------------------------
  Sum of atomic charges =     0.000000

                    Cartesian Multipole Moments
 -----------------------------------------------------------------
    Charge (ESU x 10^10)
                -0.0000
    Dipole Moment (Debye)
         X       1.1126      Y       0.6837      Z       3.0719
       Tot       3.3380
    Quadrupole Moments (Debye-Ang)
        XX     -95.7602     XY       1.3558     YY     -82.7491
        XZ      -1.9363     YZ     -10.8268     ZZ     -97.5131

 Total job time:  55.16s(wall), 2059.70s(cpu)
        *  Thank you very much for using Q-Chem.  Have a nice day.  *
