 Q-Chem 5.4, Q-Chem, Inc., Pleasanton, CA (2021)
 Q-Chem 5.4.0 for Intel X86 EM64T Linux

User input:
--------------------------------------------------------------
$molecule
0 1
C	0.000559	-0.836989	1.023076
S	0.002759	0.062411	2.533776
C	0.001759	1.637711	1.750676
C	0.000559	0.071211	-0.041624
C	-0.000941	1.460011	0.344776
C	0.002159	0.004811	-1.463024
C	0.002059	1.269711	-2.083824
S	-0.001241	2.517211	-0.942624
C	0.006759	1.524111	-3.536924
O	0.009759	0.590611	-4.327224
O	0.009959	2.807311	-3.981324
F	0.006059	-1.109289	-2.223224
C	0.020159	3.166011	-5.311924
H	0.020759	4.271011	-5.347224
H	-0.870841	2.776711	-5.852524
H	0.919059	2.776111	-5.838824
C	0.000559	-2.272189	1.023076
H	-1.064441	-2.281189	0.843876
H	0.145359	-2.956089	0.199876
H	-0.155541	-2.796589	1.954276
H	0.001759	2.557811	2.344576
$end

$rem
JOBTYPE		SP
EXCHANGE	HF
CORRELATION	pRIMP2
BASIS		cc-pvtz
METHOD		rimp2
AUX_BASIS	rimp2-cc-pvtz
SOLVENT_METHOD	PCM
PURECART	11111
SYMMETRY	false
MEM_TOTAL	110000
SCF_CONVERGENCE = 6
THRESH=10
GUI = 2
$end

$solvent
dielectric 4.90
$end
--------------------------------------------------------------

             Standard Nuclear Orientation (Angstroms)
    I     Atom           X                Y                Z
 ----------------------------------------------------------------
    1      C       0.0005590000    -0.8369890000     1.0230760000
    2      S       0.0027590000     0.0624110000     2.5337760000
    3      C       0.0017590000     1.6377110000     1.7506760000
    4      C       0.0005590000     0.0712110000    -0.0416240000
    5      C      -0.0009410000     1.4600110000     0.3447760000
    6      C       0.0021590000     0.0048110000    -1.4630240000
    7      C       0.0020590000     1.2697110000    -2.0838240000
    8      S      -0.0012410000     2.5172110000    -0.9426240000
    9      C       0.0067590000     1.5241110000    -3.5369240000
   10      O       0.0097590000     0.5906110000    -4.3272240000
   11      O       0.0099590000     2.8073110000    -3.9813240000
   12      F       0.0060590000    -1.1092890000    -2.2232240000
   13      C       0.0201590000     3.1660110000    -5.3119240000
   14      H       0.0207590000     4.2710110000    -5.3472240000
   15      H      -0.8708410000     2.7767110000    -5.8525240000
   16      H       0.9190590000     2.7761110000    -5.8388240000
   17      C       0.0005590000    -2.2721890000     1.0230760000
   18      H      -1.0644410000    -2.2811890000     0.8438760000
   19      H       0.1453590000    -2.9560890000     0.1998760000
   20      H      -0.1555410000    -2.7965890000     1.9542760000
   21      H       0.0017590000     2.5578110000     2.3445760000
 ----------------------------------------------------------------

   11   -1389.2574930730      4.15e-07  Convergence criterion met
 Total energy in the final basis set =    -1389.2574930730
        RIMP2         total energy =     -1391.7590327590 a.u.

                    Orbital Energies (a.u.)
 --------------------------------------------------------------

 Alpha MOs
 -- Occupied --
-92.0073 -91.9874 -26.3344 -20.6088 -20.5443 -11.4052 -11.3766 -11.3220
-11.2914 -11.2869 -11.2856 -11.2729 -11.2654 -11.2369  -9.0060  -8.9916
 -6.6868  -6.6862  -6.6857  -6.6729  -6.6722  -6.6709  -1.6474  -1.4682
 -1.3628  -1.2257  -1.1467  -1.0676  -1.0268  -1.0066  -0.9672  -0.9115
 -0.8621  -0.7957  -0.7841  -0.7654  -0.7256  -0.7150  -0.6971  -0.6781
 -0.6758  -0.6666  -0.6101  -0.6024  -0.5926  -0.5873  -0.5848  -0.5594
 -0.5360  -0.5239  -0.5184  -0.4949  -0.4781  -0.4628  -0.4584  -0.4559
 -0.3898  -0.3469  -0.2717

          Ground-State Mulliken Net Atomic Charges

     Atom                 Charge (a.u.)
  ----------------------------------------
      1 C                     0.048961
      2 S                     0.087098
      3 C                    -0.284262
      4 C                    -0.104150
      5 C                    -0.006052
      6 C                     0.399065
      7 C                    -0.174987
      8 S                     0.021631
      9 C                     0.461029
     10 O                    -0.460544
     11 O                    -0.299283
     12 F                    -0.214539
     13 C                    -0.055031
     14 H                     0.115850
     15 H                     0.083373
     16 H                     0.083395
     17 C                    -0.382733
     18 H                     0.151380
     19 H                     0.172897
     20 H                     0.147529
     21 H                     0.209372
  ----------------------------------------
  Sum of atomic charges =     0.000000

                    Cartesian Multipole Moments
 -----------------------------------------------------------------
    Charge (ESU x 10^10)
                -0.0000
    Dipole Moment (Debye)
         X      -0.7648      Y       0.0333      Z       3.7263
       Tot       3.8041
    Quadrupole Moments (Debye-Ang)
        XX     -96.6029     XY       1.9212     YY     -81.6524
        XZ      -0.9281     YZ     -12.2373     ZZ     -97.2923

 Total job time:  55.41s(wall), 1938.30s(cpu)
        *  Thank you very much for using Q-Chem.  Have a nice day.  *
