 Q-Chem 5.4, Q-Chem, Inc., Pleasanton, CA (2021)
 Q-Chem 5.4.0 for Intel X86 EM64T Linux

User input:
--------------------------------------------------------------
$molecule
0 1
C	-0.230916	-0.806326	1.025267
S	0.003984	0.061874	2.535967
C	0.410684	1.583774	1.752867
C	0.004084	0.070974	-0.039433
C	0.362084	1.412774	0.346967
C	-0.011416	0.006374	-1.460833
C	0.315784	1.228174	-2.081633
S	0.635384	2.434074	-0.940433
C	0.386184	1.472774	-3.534733
O	0.147384	0.570274	-4.325033
O	0.721384	2.711374	-3.979133
F	-0.296016	-1.070726	-2.221033
C	0.824084	3.055274	-5.309733
H	1.110584	4.122374	-5.345033
H	-0.137316	2.909774	-5.850333
H	1.591384	2.445874	-5.836633
C	-0.230916	-2.241526	1.025267
H	-0.239416	-2.250526	-0.054633
H	0.604984	-2.925426	1.024867
H	-1.175016	-2.765926	1.033267
H	0.648884	2.472474	2.346767
$end

$rem
JOBTYPE		SP
EXCHANGE	HF
CORRELATION	pRIMP2
BASIS		cc-pvtz
METHOD		rimp2
AUX_BASIS	rimp2-cc-pvtz
SOLVENT_METHOD	PCM
PURECART	11111
SYMMETRY	false
MEM_TOTAL	110000
SCF_CONVERGENCE = 6
THRESH=10
GUI = 2
$end

$solvent
dielectric 4.90
$end
--------------------------------------------------------------

             Standard Nuclear Orientation (Angstroms)
    I     Atom           X                Y                Z
 ----------------------------------------------------------------
    1      C      -0.2309160000    -0.8063260000     1.0252670000
    2      S       0.0039840000     0.0618740000     2.5359670000
    3      C       0.4106840000     1.5837740000     1.7528670000
    4      C       0.0040840000     0.0709740000    -0.0394330000
    5      C       0.3620840000     1.4127740000     0.3469670000
    6      C      -0.0114160000     0.0063740000    -1.4608330000
    7      C       0.3157840000     1.2281740000    -2.0816330000
    8      S       0.6353840000     2.4340740000    -0.9404330000
    9      C       0.3861840000     1.4727740000    -3.5347330000
   10      O       0.1473840000     0.5702740000    -4.3250330000
   11      O       0.7213840000     2.7113740000    -3.9791330000
   12      F      -0.2960160000    -1.0707260000    -2.2210330000
   13      C       0.8240840000     3.0552740000    -5.3097330000
   14      H       1.1105840000     4.1223740000    -5.3450330000
   15      H      -0.1373160000     2.9097740000    -5.8503330000
   16      H       1.5913840000     2.4458740000    -5.8366330000
   17      C      -0.2309160000    -2.2415260000     1.0252670000
   18      H      -0.2394160000    -2.2505260000    -0.0546330000
   19      H       0.6049840000    -2.9254260000     1.0248670000
   20      H      -1.1750160000    -2.7659260000     1.0332670000
   21      H       0.6488840000     2.4724740000     2.3467670000
 ----------------------------------------------------------------

   11   -1389.2496911285      5.19e-07  Convergence criterion met
 Total energy in the final basis set =    -1389.2496911285
        RIMP2         total energy =     -1391.7585213065 a.u.

                    Orbital Energies (a.u.)
 --------------------------------------------------------------

 Alpha MOs
 -- Occupied --
-92.0036 -91.9915 -26.3357 -20.6113 -20.5488 -11.4091 -11.3766 -11.3055
-11.2942 -11.2917 -11.2882 -11.2859 -11.2748 -11.2263  -9.0026  -8.9956
 -6.6833  -6.6827  -6.6823  -6.6769  -6.6763  -6.6749  -1.6491  -1.4710
 -1.3662  -1.2285  -1.1454  -1.0679  -1.0272  -1.0059  -0.9689  -0.9113
 -0.8641  -0.7961  -0.7869  -0.7676  -0.7270  -0.7169  -0.6974  -0.6783
 -0.6779  -0.6698  -0.6078  -0.6051  -0.5984  -0.5889  -0.5794  -0.5684
 -0.5438  -0.5251  -0.5051  -0.4817  -0.4708  -0.4628  -0.4607  -0.4515
 -0.3976  -0.3450  -0.2836

          Ground-State Mulliken Net Atomic Charges

     Atom                 Charge (a.u.)
  ----------------------------------------
      1 C                     0.030403
      2 S                     0.084263
      3 C                    -0.246549
      4 C                    -0.098305
      5 C                    -0.011289
      6 C                     0.367311
      7 C                    -0.142767
      8 S                     0.033181
      9 C                     0.457374
     10 O                    -0.453005
     11 O                    -0.297983
     12 F                    -0.213457
     13 C                    -0.054906
     14 H                     0.116551
     15 H                     0.084203
     16 H                     0.084036
     17 C                    -0.356610
     18 H                     0.113614
     19 H                     0.155222
     20 H                     0.138181
     21 H                     0.210534
  ----------------------------------------
  Sum of atomic charges =     0.000000

                    Cartesian Multipole Moments
 -----------------------------------------------------------------
    Charge (ESU x 10^10)
                -0.0000
    Dipole Moment (Debye)
         X       0.7735      Y       1.2423      Z       2.7165
       Tot       3.0856
    Quadrupole Moments (Debye-Ang)
        XX     -95.2109     XY       2.5267     YY     -82.8862
        XZ      -2.6316     YZ     -10.1147     ZZ     -97.4487

 Total job time:  53.26s(wall), 1898.16s(cpu)
        *  Thank you very much for using Q-Chem.  Have a nice day.  *
