 Q-Chem 5.4, Q-Chem, Inc., Pleasanton, CA (2021)
 Q-Chem 5.4.0 for Intel X86 EM64T Linux

User input:
--------------------------------------------------------------
$molecule
0 1
C	-0.678949	-0.518946	1.020958
S	0.011451	0.057454	2.531658
C	1.217551	1.070954	1.748558
C	0.016751	0.064854	-0.043742
C	1.079651	0.958754	0.342658
C	-0.033049	0.020954	-1.465142
C	0.935851	0.834054	-2.085942
S	1.889351	1.638454	-0.944742
C	1.133751	0.994054	-3.539042
O	0.420551	0.391754	-4.329342
O	2.118851	1.816354	-3.983442
F	-0.883949	-0.698246	-2.225342
C	2.400151	2.039154	-5.314042
H	3.246951	2.748954	-5.349342
H	1.529151	2.471454	-5.854642
H	2.679151	1.099854	-5.840942
C	-0.678949	-1.954146	1.020958
H	-1.366649	-1.963146	1.853658
H	-1.319449	-2.638046	0.483958
H	0.049451	-2.478546	1.621658
H	1.922351	1.662254	2.342458
$end

$rem
JOBTYPE		SP
EXCHANGE	HF
CORRELATION	pRIMP2
BASIS		cc-pvtz
METHOD		rimp2
AUX_BASIS	rimp2-cc-pvtz
SOLVENT_METHOD	PCM
PURECART	11111
SYMMETRY	false
MEM_TOTAL	110000
SCF_CONVERGENCE = 6
THRESH=10
GUI = 2
$end

$solvent
dielectric 4.90
$end
--------------------------------------------------------------

             Standard Nuclear Orientation (Angstroms)
    I     Atom           X                Y                Z
 ----------------------------------------------------------------
    1      C      -0.6789490000    -0.5189460000     1.0209580000
    2      S       0.0114510000     0.0574540000     2.5316580000
    3      C       1.2175510000     1.0709540000     1.7485580000
    4      C       0.0167510000     0.0648540000    -0.0437420000
    5      C       1.0796510000     0.9587540000     0.3426580000
    6      C      -0.0330490000     0.0209540000    -1.4651420000
    7      C       0.9358510000     0.8340540000    -2.0859420000
    8      S       1.8893510000     1.6384540000    -0.9447420000
    9      C       1.1337510000     0.9940540000    -3.5390420000
   10      O       0.4205510000     0.3917540000    -4.3293420000
   11      O       2.1188510000     1.8163540000    -3.9834420000
   12      F      -0.8839490000    -0.6982460000    -2.2253420000
   13      C       2.4001510000     2.0391540000    -5.3140420000
   14      H       3.2469510000     2.7489540000    -5.3493420000
   15      H       1.5291510000     2.4714540000    -5.8546420000
   16      H       2.6791510000     1.0998540000    -5.8409420000
   17      C      -0.6789490000    -1.9541460000     1.0209580000
   18      H      -1.3666490000    -1.9631460000     1.8536580000
   19      H      -1.3194490000    -2.6380460000     0.4839580000
   20      H       0.0494510000    -2.4785460000     1.6216580000
   21      H       1.9223510000     1.6622540000     2.3424580000
 ----------------------------------------------------------------

   11   -1389.2018142633      7.50e-07  Convergence criterion met
 Total energy in the final basis set =    -1389.2018142633
        RIMP2         total energy =     -1391.7217463630 a.u.

                    Orbital Energies (a.u.)
 --------------------------------------------------------------

 Alpha MOs
 -- Occupied --
-92.0071 -91.9959 -26.3323 -20.6127 -20.5518 -11.4114 -11.3732 -11.3047
-11.3006 -11.2930 -11.2888 -11.2786 -11.2760 -11.2184  -9.0063  -8.9998
 -6.6870  -6.6862  -6.6860  -6.6810  -6.6804  -6.6791  -1.6453  -1.4726
 -1.3683  -1.2314  -1.1513  -1.0661  -1.0312  -1.0020  -0.9705  -0.9057
 -0.8671  -0.7975  -0.7859  -0.7713  -0.7281  -0.7140  -0.6956  -0.6790
 -0.6732  -0.6711  -0.6097  -0.6070  -0.5970  -0.5884  -0.5808  -0.5613
 -0.5307  -0.5272  -0.5083  -0.4837  -0.4743  -0.4622  -0.4612  -0.4528
 -0.3844  -0.3448  -0.2842

          Ground-State Mulliken Net Atomic Charges

     Atom                 Charge (a.u.)
  ----------------------------------------
      1 C                    -0.096468
      2 S                     0.099461
      3 C                    -0.195991
      4 C                    -0.014137
      5 C                    -0.022633
      6 C                     0.354920
      7 C                    -0.144211
      8 S                     0.046798
      9 C                     0.456929
     10 O                    -0.446632
     11 O                    -0.297386
     12 F                    -0.210833
     13 C                    -0.054612
     14 H                     0.116766
     15 H                     0.084710
     16 H                     0.084594
     17 C                    -0.374528
     18 H                     0.113582
     19 H                     0.149402
     20 H                     0.135143
     21 H                     0.215125
  ----------------------------------------
  Sum of atomic charges =     0.000000

                    Cartesian Multipole Moments
 -----------------------------------------------------------------
    Charge (ESU x 10^10)
                -0.0000
    Dipole Moment (Debye)
         X       2.9688      Y       1.3177      Z       3.5394
       Tot       4.8039
    Quadrupole Moments (Debye-Ang)
        XX     -90.2806     XY       6.4570     YY     -89.1187
        XZ      -7.6114     YZ      -8.2128     ZZ     -93.3550

 Total job time:  57.22s(wall), 2027.54s(cpu)
        *  Thank you very much for using Q-Chem.  Have a nice day.  *
