 Q-Chem 5.4, Q-Chem, Inc., Pleasanton, CA (2021)
 Q-Chem 5.4.0 for Intel X86 EM64T Linux

User input:
--------------------------------------------------------------
$molecule
0 1
C	-0.076701	-0.833466	1.022665
S	0.003899	0.062334	2.533365
C	0.140099	1.631734	1.750265
C	0.002399	0.071334	-0.042035
C	0.121999	1.454934	0.344365
C	-0.001701	0.005034	-1.463435
C	0.108399	1.265034	-2.084235
S	0.213799	2.508134	-0.943035
C	0.135199	1.518134	-3.537335
O	0.056799	0.587934	-4.327635
O	0.250299	2.796134	-3.981735
F	-0.094901	-1.105166	-2.223635
C	0.291699	3.152634	-5.312335
H	0.388599	4.253334	-5.347635
H	-0.629801	2.842434	-5.852935
H	1.153199	2.685834	-5.839235
C	-0.076701	-2.268666	1.022665
H	-1.156601	-2.277666	1.031165
H	-0.077101	-2.952566	0.186765
H	-0.068701	-2.793066	1.966765
H	0.220399	2.548234	2.344165
$end

$rem
JOBTYPE		SP
EXCHANGE	HF
CORRELATION	pRIMP2
BASIS		cc-pvtz
METHOD		rimp2
AUX_BASIS	rimp2-cc-pvtz
SOLVENT_METHOD	PCM
PURECART	11111
SYMMETRY	false
MEM_TOTAL	110000
SCF_CONVERGENCE = 6
THRESH=10
GUI = 2
$end

$solvent
dielectric 4.90
$end
--------------------------------------------------------------

             Standard Nuclear Orientation (Angstroms)
    I     Atom           X                Y                Z
 ----------------------------------------------------------------
    1      C      -0.0767010000    -0.8334660000     1.0226650000
    2      S       0.0038990000     0.0623340000     2.5333650000
    3      C       0.1400990000     1.6317340000     1.7502650000
    4      C       0.0023990000     0.0713340000    -0.0420350000
    5      C       0.1219990000     1.4549340000     0.3443650000
    6      C      -0.0017010000     0.0050340000    -1.4634350000
    7      C       0.1083990000     1.2650340000    -2.0842350000
    8      S       0.2137990000     2.5081340000    -0.9430350000
    9      C       0.1351990000     1.5181340000    -3.5373350000
   10      O       0.0567990000     0.5879340000    -4.3276350000
   11      O       0.2502990000     2.7961340000    -3.9817350000
   12      F      -0.0949010000    -1.1051660000    -2.2236350000
   13      C       0.2916990000     3.1526340000    -5.3123350000
   14      H       0.3885990000     4.2533340000    -5.3476350000
   15      H      -0.6298010000     2.8424340000    -5.8529350000
   16      H       1.1531990000     2.6858340000    -5.8392350000
   17      C      -0.0767010000    -2.2686660000     1.0226650000
   18      H      -1.1566010000    -2.2776660000     1.0311650000
   19      H      -0.0771010000    -2.9525660000     0.1867650000
   20      H      -0.0687010000    -2.7930660000     1.9667650000
   21      H       0.2203990000     2.5482340000     2.3441650000
 ----------------------------------------------------------------

   11   -1389.2561548837      4.16e-07  Convergence criterion met
 Total energy in the final basis set =    -1389.2561548837
        RIMP2         total energy =     -1391.7577315078 a.u.

                    Orbital Energies (a.u.)
 --------------------------------------------------------------

 Alpha MOs
 -- Occupied --
-92.0070 -91.9871 -26.3343 -20.6087 -20.5442 -11.4052 -11.3766 -11.3216
-11.2912 -11.2868 -11.2856 -11.2733 -11.2655 -11.2366  -9.0057  -8.9914
 -6.6866  -6.6860  -6.6854  -6.6727  -6.6721  -6.6707  -1.6472  -1.4681
 -1.3628  -1.2256  -1.1467  -1.0673  -1.0271  -1.0065  -0.9671  -0.9115
 -0.8622  -0.7958  -0.7840  -0.7654  -0.7256  -0.7148  -0.6967  -0.6779
 -0.6758  -0.6666  -0.6099  -0.6023  -0.5927  -0.5871  -0.5849  -0.5586
 -0.5333  -0.5265  -0.5197  -0.4949  -0.4781  -0.4620  -0.4582  -0.4559
 -0.3898  -0.3469  -0.2714

          Ground-State Mulliken Net Atomic Charges

     Atom                 Charge (a.u.)
  ----------------------------------------
      1 C                     0.045872
      2 S                     0.085185
      3 C                    -0.282514
      4 C                    -0.101126
      5 C                    -0.008087
      6 C                     0.399992
      7 C                    -0.174158
      8 S                     0.021491
      9 C                     0.460688
     10 O                    -0.460421
     11 O                    -0.299233
     12 F                    -0.214384
     13 C                    -0.055110
     14 H                     0.115855
     15 H                     0.083409
     16 H                     0.083402
     17 C                    -0.383957
     18 H                     0.151095
     19 H                     0.173794
     20 H                     0.148414
     21 H                     0.209792
  ----------------------------------------
  Sum of atomic charges =     0.000000

                    Cartesian Multipole Moments
 -----------------------------------------------------------------
    Charge (ESU x 10^10)
                -0.0000
    Dipole Moment (Debye)
         X      -0.5992      Y       0.0343      Z       3.8492
       Tot       3.8957
    Quadrupole Moments (Debye-Ang)
        XX     -96.4334     XY       2.8316     YY     -81.7407
        XZ      -1.7765     YZ     -12.4818     ZZ     -97.0094

 Total job time:  54.48s(wall), 1934.44s(cpu)
        *  Thank you very much for using Q-Chem.  Have a nice day.  *
