 Q-Chem 5.4, Q-Chem, Inc., Pleasanton, CA (2021)
 Q-Chem 5.4.0 for Intel X86 EM64T Linux

User input:
--------------------------------------------------------------
$molecule
0 1
C	-0.376535	-0.753180	1.020573
S	0.005565	0.061020	2.531273
C	0.670365	1.489220	1.748173
C	0.007265	0.069920	-0.044127
C	0.592865	1.329320	0.342273
C	-0.019335	0.009120	-1.465527
C	0.515165	1.155520	-2.086327
S	1.039365	2.287520	-0.945127
C	0.626965	1.384120	-3.539427
O	0.235065	0.536820	-4.329727
O	1.172165	2.545720	-3.983827
F	-0.486635	-1.002280	-2.225727
C	1.332965	2.866520	-5.314427
H	1.800465	3.867720	-5.349727
H	0.360865	2.890220	-5.855027
H	1.982865	2.133220	-5.841327
C	-0.376535	-2.188380	1.020573
H	-0.368035	-2.197380	2.100473
H	-1.212435	-2.872280	1.020973
H	0.567565	-2.712780	1.012573
H	1.059265	2.323020	2.342073
$end

$rem
JOBTYPE		SP
EXCHANGE	HF
CORRELATION	pRIMP2
BASIS		cc-pvtz
METHOD		rimp2
AUX_BASIS	rimp2-cc-pvtz
SOLVENT_METHOD	PCM
PURECART	11111
SYMMETRY	false
MEM_TOTAL	110000
SCF_CONVERGENCE = 6
THRESH=10
GUI = 2
$end

$solvent
dielectric 4.90
$end
--------------------------------------------------------------

             Standard Nuclear Orientation (Angstroms)
    I     Atom           X                Y                Z
 ----------------------------------------------------------------
    1      C      -0.3765350000    -0.7531800000     1.0205730000
    2      S       0.0055650000     0.0610200000     2.5312730000
    3      C       0.6703650000     1.4892200000     1.7481730000
    4      C       0.0072650000     0.0699200000    -0.0441270000
    5      C       0.5928650000     1.3293200000     0.3422730000
    6      C      -0.0193350000     0.0091200000    -1.4655270000
    7      C       0.5151650000     1.1555200000    -2.0863270000
    8      S       1.0393650000     2.2875200000    -0.9451270000
    9      C       0.6269650000     1.3841200000    -3.5394270000
   10      O       0.2350650000     0.5368200000    -4.3297270000
   11      O       1.1721650000     2.5457200000    -3.9838270000
   12      F      -0.4866350000    -1.0022800000    -2.2257270000
   13      C       1.3329650000     2.8665200000    -5.3144270000
   14      H       1.8004650000     3.8677200000    -5.3497270000
   15      H       0.3608650000     2.8902200000    -5.8550270000
   16      H       1.9828650000     2.1332200000    -5.8413270000
   17      C      -0.3765350000    -2.1883800000     1.0205730000
   18      H      -0.3680350000    -2.1973800000     2.1004730000
   19      H      -1.2124350000    -2.8722800000     1.0209730000
   20      H       0.5675650000    -2.7127800000     1.0125730000
   21      H       1.0592650000     2.3230200000     2.3420730000
 ----------------------------------------------------------------

   11   -1389.2399595526      5.34e-07  Convergence criterion met
 Total energy in the final basis set =    -1389.2399595526
        RIMP2         total energy =     -1391.7500260825 a.u.

                    Orbital Energies (a.u.)
 --------------------------------------------------------------

 Alpha MOs
 -- Occupied --
-92.0091 -91.9913 -26.3328 -20.6109 -20.5484 -11.4086 -11.3745 -11.3005
-11.2938 -11.2918 -11.2886 -11.2879 -11.2707 -11.2259  -9.0079  -8.9954
 -6.6886  -6.6880  -6.6876  -6.6767  -6.6760  -6.6747  -1.6457  -1.4706
 -1.3658  -1.2278  -1.1481  -1.0650  -1.0302  -1.0043  -0.9690  -0.9084
 -0.8652  -0.7969  -0.7844  -0.7687  -0.7266  -0.7139  -0.6953  -0.6775
 -0.6755  -0.6686  -0.6090  -0.6049  -0.5974  -0.5881  -0.5743  -0.5671
 -0.5427  -0.5252  -0.5054  -0.4822  -0.4713  -0.4618  -0.4603  -0.4578
 -0.3952  -0.3454  -0.2837

          Ground-State Mulliken Net Atomic Charges

     Atom                 Charge (a.u.)
  ----------------------------------------
      1 C                     0.026762
      2 S                     0.087448
      3 C                    -0.244000
      4 C                    -0.092955
      5 C                    -0.006742
      6 C                     0.367111
      7 C                    -0.157241
      8 S                     0.034828
      9 C                     0.456671
     10 O                    -0.452208
     11 O                    -0.298142
     12 F                    -0.211332
     13 C                    -0.054783
     14 H                     0.116331
     15 H                     0.084167
     16 H                     0.084059
     17 C                    -0.356744
     18 H                     0.110942
     19 H                     0.151041
     20 H                     0.142066
     21 H                     0.212723
  ----------------------------------------
  Sum of atomic charges =     0.000000

                    Cartesian Multipole Moments
 -----------------------------------------------------------------
    Charge (ESU x 10^10)
                -0.0000
    Dipole Moment (Debye)
         X       1.3945      Y       1.2918      Z       4.0431
       Tot       4.4677
    Quadrupole Moments (Debye-Ang)
        XX     -94.2679     XY       3.9934     YY     -84.3887
        XZ      -4.5610     YZ     -12.1783     ZZ     -94.4905

 Total job time:  62.50s(wall), 2546.08s(cpu)
        *  Thank you very much for using Q-Chem.  Have a nice day.  *
