 Q-Chem 5.4, Q-Chem, Inc., Pleasanton, CA (2021)
 Q-Chem 5.4.0 for Intel X86 EM64T Linux

User input:
--------------------------------------------------------------
$molecule
0 1
C	-0.232876	-0.806326	1.021287
S	0.002024	0.061874	2.531987
C	0.408724	1.583774	1.748887
C	0.002124	0.070974	-0.043413
C	0.360124	1.412774	0.342987
C	-0.013376	0.006374	-1.464813
C	0.313824	1.228174	-2.085613
S	0.633424	2.434074	-0.944413
C	0.384224	1.472774	-3.538713
O	0.145424	0.570274	-4.329013
O	0.719424	2.711374	-3.983113
F	-0.297976	-1.070726	-2.225013
C	0.822124	3.055274	-5.313713
H	1.108624	4.122374	-5.349013
H	-0.139276	2.909774	-5.854313
H	1.589424	2.445874	-5.840613
C	-0.232876	-2.241526	1.021287
H	0.467724	-2.250526	1.843087
H	-0.872976	-2.925426	1.558887
H	0.485224	-2.765926	0.408287
H	0.646924	2.472474	2.342787
$end

$rem
JOBTYPE		SP
EXCHANGE	HF
CORRELATION	pRIMP2
BASIS		cc-pvtz
METHOD		rimp2
AUX_BASIS	rimp2-cc-pvtz
SOLVENT_METHOD	PCM
PURECART	11111
SYMMETRY	false
MEM_TOTAL	110000
SCF_CONVERGENCE = 6
THRESH=10
GUI = 2
$end

$solvent
dielectric 4.90
$end
--------------------------------------------------------------

             Standard Nuclear Orientation (Angstroms)
    I     Atom           X                Y                Z
 ----------------------------------------------------------------
    1      C      -0.2328760000    -0.8063260000     1.0212870000
    2      S       0.0020240000     0.0618740000     2.5319870000
    3      C       0.4087240000     1.5837740000     1.7488870000
    4      C       0.0021240000     0.0709740000    -0.0434130000
    5      C       0.3601240000     1.4127740000     0.3429870000
    6      C      -0.0133760000     0.0063740000    -1.4648130000
    7      C       0.3138240000     1.2281740000    -2.0856130000
    8      S       0.6334240000     2.4340740000    -0.9444130000
    9      C       0.3842240000     1.4727740000    -3.5387130000
   10      O       0.1454240000     0.5702740000    -4.3290130000
   11      O       0.7194240000     2.7113740000    -3.9831130000
   12      F      -0.2979760000    -1.0707260000    -2.2250130000
   13      C       0.8221240000     3.0552740000    -5.3137130000
   14      H       1.1086240000     4.1223740000    -5.3490130000
   15      H      -0.1392760000     2.9097740000    -5.8543130000
   16      H       1.5894240000     2.4458740000    -5.8406130000
   17      C      -0.2328760000    -2.2415260000     1.0212870000
   18      H       0.4677240000    -2.2505260000     1.8430870000
   19      H      -0.8729760000    -2.9254260000     1.5588870000
   20      H       0.4852240000    -2.7659260000     0.4082870000
   21      H       0.6469240000     2.4724740000     2.3427870000
 ----------------------------------------------------------------

   11   -1389.2495105270      4.59e-07  Convergence criterion met
 Total energy in the final basis set =    -1389.2495105270
        RIMP2         total energy =     -1391.7545861264 a.u.

                    Orbital Energies (a.u.)
 --------------------------------------------------------------

 Alpha MOs
 -- Occupied --
-92.0055 -91.9888 -26.3333 -20.6101 -20.5467 -11.4072 -11.3759 -11.3120
-11.2910 -11.2904 -11.2874 -11.2814 -11.2696 -11.2303  -9.0046  -8.9931
 -6.6854  -6.6848  -6.6843  -6.6744  -6.6737  -6.6724  -1.6463  -1.4696
 -1.3645  -1.2269  -1.1475  -1.0658  -1.0291  -1.0052  -0.9681  -0.9097
 -0.8638  -0.7965  -0.7842  -0.7673  -0.7262  -0.7142  -0.6956  -0.6768
 -0.6764  -0.6676  -0.6096  -0.6038  -0.5985  -0.5868  -0.5765  -0.5640
 -0.5425  -0.5248  -0.5087  -0.4868  -0.4791  -0.4608  -0.4586  -0.4561
 -0.3942  -0.3460  -0.2773

          Ground-State Mulliken Net Atomic Charges

     Atom                 Charge (a.u.)
  ----------------------------------------
      1 C                     0.053169
      2 S                     0.079947
      3 C                    -0.258924
      4 C                    -0.105704
      5 C                    -0.012943
      6 C                     0.390511
      7 C                    -0.167800
      8 S                     0.026393
      9 C                     0.459436
     10 O                    -0.455506
     11 O                    -0.298492
     12 F                    -0.212252
     13 C                    -0.054875
     14 H                     0.116150
     15 H                     0.083949
     16 H                     0.083721
     17 C                    -0.376314
     18 H                     0.132879
     19 H                     0.158227
     20 H                     0.147523
     21 H                     0.210903
  ----------------------------------------
  Sum of atomic charges =     0.000000

                    Cartesian Multipole Moments
 -----------------------------------------------------------------
    Charge (ESU x 10^10)
                -0.0000
    Dipole Moment (Debye)
         X       1.1604      Y       0.7312      Z       4.0641
       Tot       4.2893
    Quadrupole Moments (Debye-Ang)
        XX     -95.7915     XY       1.4668     YY     -82.8805
        XZ      -2.7040     YZ     -13.1762     ZZ     -95.3472

 Total job time:  67.90s(wall), 1926.48s(cpu)
        *  Thank you very much for using Q-Chem.  Have a nice day.  *
