 Q-Chem 5.4, Q-Chem, Inc., Pleasanton, CA (2021)
 Q-Chem 5.4.0 for Intel X86 EM64T Linux

User input:
--------------------------------------------------------------
$molecule
0 1
C	-0.304332	-0.782911	1.020627
S	0.005368	0.061489	2.531327
C	0.543168	1.542189	1.748227
C	0.006268	0.070589	-0.044073
C	0.479868	1.376089	0.342327
C	-0.014832	0.007589	-1.465473
C	0.417568	1.196189	-2.086273
S	0.841168	2.369589	-0.945073
C	0.509068	1.433689	-3.539373
O	0.192568	0.555489	-4.329673
O	0.950968	2.638389	-3.983773
F	-0.392232	-1.040711	-2.225673
C	1.083168	2.971989	-5.314373
H	1.461668	4.010189	-5.349673
H	0.112768	2.910889	-5.854973
H	1.794468	2.298089	-5.841273
C	-0.304332	-2.218111	1.020627
H	-0.665732	-2.227111	2.038327
H	-1.089932	-2.902011	0.735127
H	0.585568	-2.742511	1.336027
H	0.857868	2.406689	2.342127
$end

$rem
JOBTYPE		SP
EXCHANGE	HF
CORRELATION	pRIMP2
BASIS		cc-pvtz
METHOD		rimp2
AUX_BASIS	rimp2-cc-pvtz
SOLVENT_METHOD	PCM
PURECART	11111
SYMMETRY	false
MEM_TOTAL	110000
SCF_CONVERGENCE = 6
THRESH=10
GUI = 2
$end

$solvent
dielectric 4.90
$end
--------------------------------------------------------------

             Standard Nuclear Orientation (Angstroms)
    I     Atom           X                Y                Z
 ----------------------------------------------------------------
    1      C      -0.3043320000    -0.7829110000     1.0206270000
    2      S       0.0053680000     0.0614890000     2.5313270000
    3      C       0.5431680000     1.5421890000     1.7482270000
    4      C       0.0062680000     0.0705890000    -0.0440730000
    5      C       0.4798680000     1.3760890000     0.3423270000
    6      C      -0.0148320000     0.0075890000    -1.4654730000
    7      C       0.4175680000     1.1961890000    -2.0862730000
    8      S       0.8411680000     2.3695890000    -0.9450730000
    9      C       0.5090680000     1.4336890000    -3.5393730000
   10      O       0.1925680000     0.5554890000    -4.3296730000
   11      O       0.9509680000     2.6383890000    -3.9837730000
   12      F      -0.3922320000    -1.0407110000    -2.2256730000
   13      C       1.0831680000     2.9719890000    -5.3143730000
   14      H       1.4616680000     4.0101890000    -5.3496730000
   15      H       0.1127680000     2.9108890000    -5.8549730000
   16      H       1.7944680000     2.2980890000    -5.8412730000
   17      C      -0.3043320000    -2.2181110000     1.0206270000
   18      H      -0.6657320000    -2.2271110000     2.0383270000
   19      H      -1.0899320000    -2.9020110000     0.7351270000
   20      H       0.5855680000    -2.7425110000     1.3360270000
   21      H       0.8578680000     2.4066890000     2.3421270000
 ----------------------------------------------------------------

   11   -1389.2453360051      5.11e-07  Convergence criterion met
 Total energy in the final basis set =    -1389.2453360051
        RIMP2         total energy =     -1391.7536335339 a.u.

                    Orbital Energies (a.u.)
 --------------------------------------------------------------

 Alpha MOs
 -- Occupied --
-92.0096 -91.9904 -26.3328 -20.6105 -20.5477 -11.4080 -11.3747 -11.3040
-11.2924 -11.2917 -11.2877 -11.2863 -11.2694 -11.2274  -9.0083  -8.9946
 -6.6890  -6.6884  -6.6880  -6.6759  -6.6752  -6.6739  -1.6457  -1.4702
 -1.3653  -1.2272  -1.1473  -1.0650  -1.0298  -1.0049  -0.9686  -0.9095
 -0.8646  -0.7967  -0.7842  -0.7680  -0.7263  -0.7138  -0.6953  -0.6772
 -0.6757  -0.6682  -0.6094  -0.6044  -0.5961  -0.5876  -0.5776  -0.5655
 -0.5418  -0.5250  -0.5055  -0.4811  -0.4737  -0.4639  -0.4599  -0.4582
 -0.3942  -0.3462  -0.2821

          Ground-State Mulliken Net Atomic Charges

     Atom                 Charge (a.u.)
  ----------------------------------------
      1 C                     0.019312
      2 S                     0.087855
      3 C                    -0.249296
      4 C                    -0.081897
      5 C                    -0.007859
      6 C                     0.368407
      7 C                    -0.158313
      8 S                     0.031716
      9 C                     0.457196
     10 O                    -0.453436
     11 O                    -0.298289
     12 F                    -0.211819
     13 C                    -0.054826
     14 H                     0.116208
     15 H                     0.084084
     16 H                     0.083918
     17 C                    -0.357464
     18 H                     0.111848
     19 H                     0.160101
     20 H                     0.140323
     21 H                     0.212231
  ----------------------------------------
  Sum of atomic charges =     0.000000

                    Cartesian Multipole Moments
 -----------------------------------------------------------------
    Charge (ESU x 10^10)
                -0.0000
    Dipole Moment (Debye)
         X       0.8402      Y       1.1731      Z       4.0853
       Tot       4.3326
    Quadrupole Moments (Debye-Ang)
        XX     -94.7577     XY       3.9372     YY     -83.5876
        XZ      -3.7063     YZ     -12.5308     ZZ     -94.8036

 Total job time:  56.07s(wall), 2067.92s(cpu)
        *  Thank you very much for using Q-Chem.  Have a nice day.  *
