 Q-Chem 5.4, Q-Chem, Inc., Pleasanton, CA (2021)
 Q-Chem 5.4.0 for Intel X86 EM64T Linux

User input:
--------------------------------------------------------------
$molecule
0 1
C	-0.377231	-0.753180	1.025081
S	0.004869	0.061020	2.535781
C	0.669669	1.489220	1.752681
C	0.006569	0.069920	-0.039619
C	0.592169	1.329320	0.346781
C	-0.020031	0.009120	-1.461019
C	0.514469	1.155520	-2.081819
S	1.038669	2.287520	-0.940619
C	0.626269	1.384120	-3.534919
O	0.234369	0.536820	-4.325219
O	1.171469	2.545720	-3.979319
F	-0.487331	-1.002280	-2.221219
C	1.332269	2.866520	-5.309919
H	1.799769	3.867720	-5.345219
H	0.360169	2.890220	-5.850519
H	1.982169	2.133220	-5.836819
C	-0.377231	-2.188380	1.025081
H	0.155369	-2.197380	0.085581
H	0.346869	-2.872280	1.442681
H	-1.198831	-2.712780	0.559981
H	1.058569	2.323020	2.346581
$end

$rem
JOBTYPE		SP
EXCHANGE	HF
CORRELATION	pRIMP2
BASIS		cc-pvtz
METHOD		rimp2
AUX_BASIS	rimp2-cc-pvtz
SOLVENT_METHOD	PCM
PURECART	11111
SYMMETRY	false
MEM_TOTAL	110000
SCF_CONVERGENCE = 6
THRESH=10
GUI = 2
$end

$solvent
dielectric 4.90
$end
--------------------------------------------------------------

             Standard Nuclear Orientation (Angstroms)
    I     Atom           X                Y                Z
 ----------------------------------------------------------------
    1      C      -0.3772310000    -0.7531800000     1.0250810000
    2      S       0.0048690000     0.0610200000     2.5357810000
    3      C       0.6696690000     1.4892200000     1.7526810000
    4      C       0.0065690000     0.0699200000    -0.0396190000
    5      C       0.5921690000     1.3293200000     0.3467810000
    6      C      -0.0200310000     0.0091200000    -1.4610190000
    7      C       0.5144690000     1.1555200000    -2.0818190000
    8      S       1.0386690000     2.2875200000    -0.9406190000
    9      C       0.6262690000     1.3841200000    -3.5349190000
   10      O       0.2343690000     0.5368200000    -4.3252190000
   11      O       1.1714690000     2.5457200000    -3.9793190000
   12      F      -0.4873310000    -1.0022800000    -2.2212190000
   13      C       1.3322690000     2.8665200000    -5.3099190000
   14      H       1.7997690000     3.8677200000    -5.3452190000
   15      H       0.3601690000     2.8902200000    -5.8505190000
   16      H       1.9821690000     2.1332200000    -5.8368190000
   17      C      -0.3772310000    -2.1883800000     1.0250810000
   18      H       0.1553690000    -2.1973800000     0.0855810000
   19      H       0.3468690000    -2.8722800000     1.4426810000
   20      H      -1.1988310000    -2.7127800000     0.5599810000
   21      H       1.0585690000     2.3230200000     2.3465810000
 ----------------------------------------------------------------

   11   -1389.2402226112      5.28e-07  Convergence criterion met
 Total energy in the final basis set =    -1389.2402226112
        RIMP2         total energy =     -1391.7509960586 a.u.

                    Orbital Energies (a.u.)
 --------------------------------------------------------------

 Alpha MOs
 -- Occupied --
-92.0060 -91.9918 -26.3351 -20.6110 -20.5483 -11.4087 -11.3760 -11.3061
-11.2934 -11.2922 -11.2880 -11.2844 -11.2722 -11.2270  -9.0048  -8.9959
 -6.6855  -6.6849  -6.6845  -6.6772  -6.6765  -6.6752  -1.6482  -1.4707
 -1.3658  -1.2287  -1.1470  -1.0684  -1.0270  -1.0051  -0.9688  -0.9102
 -0.8639  -0.7956  -0.7862  -0.7674  -0.7267  -0.7163  -0.6971  -0.6780
 -0.6777  -0.6693  -0.6081  -0.6047  -0.5964  -0.5898  -0.5857  -0.5642
 -0.5392  -0.5251  -0.5054  -0.4831  -0.4694  -0.4664  -0.4604  -0.4573
 -0.3921  -0.3449  -0.2807

          Ground-State Mulliken Net Atomic Charges

     Atom                 Charge (a.u.)
  ----------------------------------------
      1 C                     0.018616
      2 S                     0.091427
      3 C                    -0.251788
      4 C                    -0.082941
      5 C                    -0.009879
      6 C                     0.355642
      7 C                    -0.151127
      8 S                     0.036282
      9 C                     0.457041
     10 O                    -0.453627
     11 O                    -0.298254
     12 F                    -0.212384
     13 C                    -0.054752
     14 H                     0.116412
     15 H                     0.084111
     16 H                     0.083929
     17 C                    -0.373186
     18 H                     0.129399
     19 H                     0.166692
     20 H                     0.138328
     21 H                     0.210061
  ----------------------------------------
  Sum of atomic charges =     0.000000

                    Cartesian Multipole Moments
 -----------------------------------------------------------------
    Charge (ESU x 10^10)
                -0.0000
    Dipole Moment (Debye)
         X       1.5976      Y       0.9915      Z       2.8964
       Tot       3.4532
    Quadrupole Moments (Debye-Ang)
        XX     -94.6662     XY       3.0141     YY     -84.1667
        XZ      -3.6854     YZ      -9.8463     ZZ     -97.0922

 Total job time:  53.45s(wall), 1926.25s(cpu)
        *  Thank you very much for using Q-Chem.  Have a nice day.  *
