 Q-Chem 5.4, Q-Chem, Inc., Pleasanton, CA (2021)
 Q-Chem 5.4.0 for Intel X86 EM64T Linux

User input:
--------------------------------------------------------------
$molecule
0 1
C	-0.568868	-0.628442	1.022665
S	0.011032	0.059158	2.533365
C	1.022732	1.266558	1.750265
C	0.014932	0.067358	-0.042035
C	0.906432	1.132158	0.344365
C	-0.026468	0.015358	-1.463435
C	0.786432	0.984358	-2.084235
S	1.585732	1.942158	-0.943035
C	0.953532	1.176358	-3.537335
O	0.355832	0.459358	-4.327635
O	1.780832	2.157258	-3.981735
F	-0.739668	-0.840542	-2.223635
C	2.019232	2.425458	-5.312335
H	2.729932	3.271558	-5.347635
H	1.086432	2.699958	-5.852935
H	2.457132	1.548958	-5.839235
C	-0.568868	-2.063642	1.022665
H	-1.648768	-2.072642	1.031165
H	-0.569268	-2.747542	0.186765
H	-0.560868	-2.588042	1.966765
H	1.614232	1.971358	2.344165
$end

$rem
JOBTYPE		SP
EXCHANGE	HF
CORRELATION	pRIMP2
BASIS		cc-pvtz
METHOD		rimp2
AUX_BASIS	rimp2-cc-pvtz
SOLVENT_METHOD	PCM
PURECART	11111
SYMMETRY	false
MEM_TOTAL	110000
SCF_CONVERGENCE = 6
THRESH=10
GUI = 2
$end

$solvent
dielectric 4.90
$end
--------------------------------------------------------------

             Standard Nuclear Orientation (Angstroms)
    I     Atom           X                Y                Z
 ----------------------------------------------------------------
    1      C      -0.5688680000    -0.6284420000     1.0226650000
    2      S       0.0110320000     0.0591580000     2.5333650000
    3      C       1.0227320000     1.2665580000     1.7502650000
    4      C       0.0149320000     0.0673580000    -0.0420350000
    5      C       0.9064320000     1.1321580000     0.3443650000
    6      C      -0.0264680000     0.0153580000    -1.4634350000
    7      C       0.7864320000     0.9843580000    -2.0842350000
    8      S       1.5857320000     1.9421580000    -0.9430350000
    9      C       0.9535320000     1.1763580000    -3.5373350000
   10      O       0.3558320000     0.4593580000    -4.3276350000
   11      O       1.7808320000     2.1572580000    -3.9817350000
   12      F      -0.7396680000    -0.8405420000    -2.2236350000
   13      C       2.0192320000     2.4254580000    -5.3123350000
   14      H       2.7299320000     3.2715580000    -5.3476350000
   15      H       1.0864320000     2.6999580000    -5.8529350000
   16      H       2.4571320000     1.5489580000    -5.8392350000
   17      C      -0.5688680000    -2.0636420000     1.0226650000
   18      H      -1.6487680000    -2.0726420000     1.0311650000
   19      H      -0.5692680000    -2.7475420000     0.1867650000
   20      H      -0.5608680000    -2.5880420000     1.9667650000
   21      H       1.6142320000     1.9713580000     2.3441650000
 ----------------------------------------------------------------

   11   -1389.2155712581      5.89e-07  Convergence criterion met
 Total energy in the final basis set =    -1389.2155712581
        RIMP2         total energy =     -1391.7308593842 a.u.

                    Orbital Energies (a.u.)
 --------------------------------------------------------------

 Alpha MOs
 -- Occupied --
-92.0048 -91.9915 -26.3337 -20.6107 -20.5479 -11.4082 -11.3748 -11.2990
-11.2929 -11.2921 -11.2883 -11.2878 -11.2718 -11.2239  -9.0039  -8.9955
 -6.6847  -6.6839  -6.6835  -6.6768  -6.6762  -6.6748  -1.6467  -1.4704
 -1.3655  -1.2284  -1.1481  -1.0660  -1.0281  -1.0039  -0.9685  -0.9092
 -0.8642  -0.7961  -0.7852  -0.7680  -0.7265  -0.7149  -0.6949  -0.6774
 -0.6760  -0.6687  -0.6074  -0.6046  -0.5941  -0.5889  -0.5795  -0.5584
 -0.5327  -0.5201  -0.5194  -0.4951  -0.4804  -0.4607  -0.4588  -0.4493
 -0.3836  -0.3453  -0.2732

          Ground-State Mulliken Net Atomic Charges

     Atom                 Charge (a.u.)
  ----------------------------------------
      1 C                    -0.015968
      2 S                     0.095106
      3 C                    -0.240447
      4 C                    -0.074301
      5 C                    -0.010721
      6 C                     0.366068
      7 C                    -0.157996
      8 S                     0.036733
      9 C                     0.456520
     10 O                    -0.453652
     11 O                    -0.298382
     12 F                    -0.211491
     13 C                    -0.054656
     14 H                     0.116281
     15 H                     0.084050
     16 H                     0.083872
     17 C                    -0.382784
     18 H                     0.138907
     19 H                     0.165828
     20 H                     0.145885
     21 H                     0.211149
  ----------------------------------------
  Sum of atomic charges =     0.000000

                    Cartesian Multipole Moments
 -----------------------------------------------------------------
    Charge (ESU x 10^10)
                -0.0000
    Dipole Moment (Debye)
         X       1.3442      Y       0.6768      Z       3.4916
       Tot       3.8021
    Quadrupole Moments (Debye-Ang)
        XX     -92.1519     XY       6.7290     YY     -86.7770
        XZ      -7.2852     YZ      -9.2955     ZZ     -95.5071

 Total job time:  61.30s(wall), 1916.05s(cpu)
        *  Thank you very much for using Q-Chem.  Have a nice day.  *
