 Q-Chem 5.4, Q-Chem, Inc., Pleasanton, CA (2021)
 Q-Chem 5.4.0 for Intel X86 EM64T Linux

User input:
--------------------------------------------------------------
$molecule
0 1
C	-0.305051	-0.782911	1.025276
S	0.004649	0.061489	2.535976
C	0.542449	1.542189	1.752876
C	0.005549	0.070589	-0.039424
C	0.479149	1.376089	0.346976
C	-0.015551	0.007589	-1.460824
C	0.416849	1.196189	-2.081624
S	0.840449	2.369589	-0.940424
C	0.508349	1.433689	-3.534724
O	0.191849	0.555489	-4.325024
O	0.950249	2.638389	-3.979124
F	-0.392951	-1.040711	-2.221024
C	1.082449	2.971989	-5.309724
H	1.460949	4.010189	-5.345024
H	0.112049	2.910889	-5.850324
H	1.793749	2.298089	-5.836624
C	-0.305051	-2.218111	1.025276
H	-0.125851	-2.227111	-0.039724
H	0.518149	-2.902011	1.170076
H	-1.236251	-2.742511	0.869176
H	0.857149	2.406689	2.346776
$end

$rem
JOBTYPE		SP
EXCHANGE	HF
CORRELATION	pRIMP2
BASIS		cc-pvtz
METHOD		rimp2
AUX_BASIS	rimp2-cc-pvtz
SOLVENT_METHOD	PCM
PURECART	11111
SYMMETRY	false
MEM_TOTAL	110000
SCF_CONVERGENCE = 6
THRESH=10
GUI = 2
$end

$solvent
dielectric 4.90
$end
--------------------------------------------------------------

             Standard Nuclear Orientation (Angstroms)
    I     Atom           X                Y                Z
 ----------------------------------------------------------------
    1      C      -0.3050510000    -0.7829110000     1.0252760000
    2      S       0.0046490000     0.0614890000     2.5359760000
    3      C       0.5424490000     1.5421890000     1.7528760000
    4      C       0.0055490000     0.0705890000    -0.0394240000
    5      C       0.4791490000     1.3760890000     0.3469760000
    6      C      -0.0155510000     0.0075890000    -1.4608240000
    7      C       0.4168490000     1.1961890000    -2.0816240000
    8      S       0.8404490000     2.3695890000    -0.9404240000
    9      C       0.5083490000     1.4336890000    -3.5347240000
   10      O       0.1918490000     0.5554890000    -4.3250240000
   11      O       0.9502490000     2.6383890000    -3.9791240000
   12      F      -0.3929510000    -1.0407110000    -2.2210240000
   13      C       1.0824490000     2.9719890000    -5.3097240000
   14      H       1.4609490000     4.0101890000    -5.3450240000
   15      H       0.1120490000     2.9108890000    -5.8503240000
   16      H       1.7937490000     2.2980890000    -5.8366240000
   17      C      -0.3050510000    -2.2181110000     1.0252760000
   18      H      -0.1258510000    -2.2271110000    -0.0397240000
   19      H       0.5181490000    -2.9020110000     1.1700760000
   20      H      -1.2362510000    -2.7425110000     0.8691760000
   21      H       0.8571490000     2.4066890000     2.3467760000
 ----------------------------------------------------------------

   11   -1389.2455769020      5.30e-07  Convergence criterion met
 Total energy in the final basis set =    -1389.2455769020
        RIMP2         total energy =     -1391.7555224756 a.u.

                    Orbital Energies (a.u.)
 --------------------------------------------------------------

 Alpha MOs
 -- Occupied --
-92.0040 -91.9919 -26.3356 -20.6114 -20.5489 -11.4092 -11.3763 -11.3043
-11.2945 -11.2918 -11.2882 -11.2865 -11.2746 -11.2259  -9.0030  -8.9960
 -6.6837  -6.6831  -6.6828  -6.6773  -6.6766  -6.6753  -1.6488  -1.4711
 -1.3663  -1.2288  -1.1459  -1.0681  -1.0272  -1.0055  -0.9690  -0.9109
 -0.8642  -0.7960  -0.7869  -0.7677  -0.7270  -0.7168  -0.6973  -0.6782
 -0.6779  -0.6698  -0.6075  -0.6051  -0.5983  -0.5890  -0.5818  -0.5667
 -0.5424  -0.5253  -0.5053  -0.4821  -0.4693  -0.4635  -0.4607  -0.4529
 -0.3964  -0.3448  -0.2834

          Ground-State Mulliken Net Atomic Charges

     Atom                 Charge (a.u.)
  ----------------------------------------
      1 C                     0.022926
      2 S                     0.086912
      3 C                    -0.245080
      4 C                    -0.092141
      5 C                    -0.011626
      6 C                     0.357926
      7 C                    -0.141347
      8 S                     0.035171
      9 C                     0.456685
     10 O                    -0.452581
     11 O                    -0.298000
     12 F                    -0.212657
     13 C                    -0.054805
     14 H                     0.116506
     15 H                     0.084262
     16 H                     0.084014
     17 C                    -0.359362
     18 H                     0.117678
     19 H                     0.159720
     20 H                     0.135316
     21 H                     0.210483
  ----------------------------------------
  Sum of atomic charges =     0.000000

                    Cartesian Multipole Moments
 -----------------------------------------------------------------
    Charge (ESU x 10^10)
                -0.0000
    Dipole Moment (Debye)
         X       1.1662      Y       1.2302      Z       2.7254
       Tot       3.2096
    Quadrupole Moments (Debye-Ang)
        XX     -94.8534     XY       2.9434     YY     -83.4854
        XZ      -3.2163     YZ      -9.8727     ZZ     -97.2913

 Total job time:  54.28s(wall), 1952.21s(cpu)
        *  Thank you very much for using Q-Chem.  Have a nice day.  *
