 Q-Chem 5.4, Q-Chem, Inc., Pleasanton, CA (2021)
 Q-Chem 5.4.0 for Intel X86 EM64T Linux

User input:
--------------------------------------------------------------
$molecule
0 1
C	-0.153442	-0.823218	1.022261
S	0.004958	0.062182	2.532961
C	0.277458	1.613782	1.749861
C	0.004258	0.071182	-0.042439
C	0.243958	1.439182	0.343961
C	-0.005642	0.005582	-1.463839
C	0.213858	1.251182	-2.084639
S	0.427158	2.480282	-0.943439
C	0.262658	1.500982	-3.537739
O	0.103458	0.581182	-4.328039
O	0.488658	2.764082	-3.982139
F	-0.195242	-1.092318	-2.224039
C	0.560958	3.115582	-5.312739
H	0.753358	4.203682	-5.348039
H	-0.384142	2.886882	-5.853339
H	1.378458	2.575482	-5.839639
C	-0.153442	-2.258418	1.022261
H	-1.215542	-2.267418	1.218161
H	-0.298942	-2.942318	0.199161
H	0.018358	-2.782818	1.950661
H	0.437258	2.519782	2.343761
$end

$rem
JOBTYPE		SP
EXCHANGE	HF
CORRELATION	pRIMP2
BASIS		cc-pvtz
METHOD		rimp2
AUX_BASIS	rimp2-cc-pvtz
SOLVENT_METHOD	PCM
PURECART	11111
SYMMETRY	false
MEM_TOTAL	110000
SCF_CONVERGENCE = 6
THRESH=10
GUI = 2
$end

$solvent
dielectric 4.90
$end
--------------------------------------------------------------

             Standard Nuclear Orientation (Angstroms)
    I     Atom           X                Y                Z
 ----------------------------------------------------------------
    1      C      -0.1534420000    -0.8232180000     1.0222610000
    2      S       0.0049580000     0.0621820000     2.5329610000
    3      C       0.2774580000     1.6137820000     1.7498610000
    4      C       0.0042580000     0.0711820000    -0.0424390000
    5      C       0.2439580000     1.4391820000     0.3439610000
    6      C      -0.0056420000     0.0055820000    -1.4638390000
    7      C       0.2138580000     1.2511820000    -2.0846390000
    8      S       0.4271580000     2.4802820000    -0.9434390000
    9      C       0.2626580000     1.5009820000    -3.5377390000
   10      O       0.1034580000     0.5811820000    -4.3280390000
   11      O       0.4886580000     2.7640820000    -3.9821390000
   12      F      -0.1952420000    -1.0923180000    -2.2240390000
   13      C       0.5609580000     3.1155820000    -5.3127390000
   14      H       0.7533580000     4.2036820000    -5.3480390000
   15      H      -0.3841420000     2.8868820000    -5.8533390000
   16      H       1.3784580000     2.5754820000    -5.8396390000
   17      C      -0.1534420000    -2.2584180000     1.0222610000
   18      H      -1.2155420000    -2.2674180000     1.2181610000
   19      H      -0.2989420000    -2.9423180000     0.1991610000
   20      H       0.0183580000    -2.7828180000     1.9506610000
   21      H       0.4372580000     2.5197820000     2.3437610000
 ----------------------------------------------------------------

   11   -1389.2533992422      4.25e-07  Convergence criterion met
 Total energy in the final basis set =    -1389.2533992422
        RIMP2         total energy =     -1391.7557930999 a.u.

                    Orbital Energies (a.u.)
 --------------------------------------------------------------

 Alpha MOs
 -- Occupied --
-92.0068 -91.9872 -26.3340 -20.6088 -20.5445 -11.4054 -11.3764 -11.3199
-11.2910 -11.2869 -11.2861 -11.2747 -11.2659 -11.2352  -9.0056  -8.9915
 -6.6864  -6.6858  -6.6853  -6.6728  -6.6721  -6.6708  -1.6469  -1.4683
 -1.3630  -1.2257  -1.1467  -1.0669  -1.0274  -1.0063  -0.9672  -0.9114
 -0.8623  -0.7958  -0.7839  -0.7656  -0.7256  -0.7145  -0.6962  -0.6775
 -0.6759  -0.6666  -0.6097  -0.6025  -0.5927  -0.5866  -0.5851  -0.5585
 -0.5313  -0.5286  -0.5189  -0.4943  -0.4783  -0.4614  -0.4581  -0.4561
 -0.3898  -0.3468  -0.2717

          Ground-State Mulliken Net Atomic Charges

     Atom                 Charge (a.u.)
  ----------------------------------------
      1 C                     0.039017
      2 S                     0.082162
      3 C                    -0.276093
      4 C                    -0.090682
      5 C                    -0.012661
      6 C                     0.395854
      7 C                    -0.172608
      8 S                     0.022068
      9 C                     0.459529
     10 O                    -0.459617
     11 O                    -0.299110
     12 F                    -0.213734
     13 C                    -0.054966
     14 H                     0.115837
     15 H                     0.083396
     16 H                     0.083456
     17 C                    -0.382261
     18 H                     0.147614
     19 H                     0.172703
     20 H                     0.149762
     21 H                     0.210334
  ----------------------------------------
  Sum of atomic charges =     0.000000

                    Cartesian Multipole Moments
 -----------------------------------------------------------------
    Charge (ESU x 10^10)
                -0.0000
    Dipole Moment (Debye)
         X      -0.3863      Y       0.1232      Z       3.9436
       Tot       3.9644
    Quadrupole Moments (Debye-Ang)
        XX     -96.0977     XY       3.6323     YY     -82.0623
        XZ      -2.5811     YZ     -12.5824     ZZ     -96.6328

 Total job time:  54.39s(wall), 1950.62s(cpu)
        *  Thank you very much for using Q-Chem.  Have a nice day.  *
