 Q-Chem 5.4, Q-Chem, Inc., Pleasanton, CA (2021)
 Q-Chem 5.4.0 for Intel X86 EM64T Linux

User input:
--------------------------------------------------------------
$molecule
0 1
C	-0.232124	-0.806326	1.025081
S	0.002776	0.061874	2.535781
C	0.409476	1.583774	1.752681
C	0.002876	0.070974	-0.039619
C	0.360876	1.412774	0.346781
C	-0.012624	0.006374	-1.461019
C	0.314576	1.228174	-2.081819
S	0.634176	2.434074	-0.940619
C	0.384976	1.472774	-3.534919
O	0.146176	0.570274	-4.325219
O	0.720176	2.711374	-3.979319
F	-0.297224	-1.070726	-2.221219
C	0.822876	3.055274	-5.309919
H	1.109376	4.122374	-5.345219
H	-0.138524	2.909774	-5.850519
H	1.590176	2.445874	-5.836819
C	-0.232124	-2.241526	1.025081
H	0.300476	-2.250526	0.085581
H	0.491976	-2.925426	1.442681
H	-1.053724	-2.765926	0.559981
H	0.647676	2.472474	2.346581
$end

$rem
JOBTYPE		SP
EXCHANGE	HF
CORRELATION	pRIMP2
BASIS		cc-pvtz
METHOD		rimp2
AUX_BASIS	rimp2-cc-pvtz
SOLVENT_METHOD	PCM
PURECART	11111
SYMMETRY	false
MEM_TOTAL	110000
SCF_CONVERGENCE = 6
THRESH=10
GUI = 2
$end

$solvent
dielectric 4.90
$end
--------------------------------------------------------------

             Standard Nuclear Orientation (Angstroms)
    I     Atom           X                Y                Z
 ----------------------------------------------------------------
    1      C      -0.2321240000    -0.8063260000     1.0250810000
    2      S       0.0027760000     0.0618740000     2.5357810000
    3      C       0.4094760000     1.5837740000     1.7526810000
    4      C       0.0028760000     0.0709740000    -0.0396190000
    5      C       0.3608760000     1.4127740000     0.3467810000
    6      C      -0.0126240000     0.0063740000    -1.4610190000
    7      C       0.3145760000     1.2281740000    -2.0818190000
    8      S       0.6341760000     2.4340740000    -0.9406190000
    9      C       0.3849760000     1.4727740000    -3.5349190000
   10      O       0.1461760000     0.5702740000    -4.3252190000
   11      O       0.7201760000     2.7113740000    -3.9793190000
   12      F      -0.2972240000    -1.0707260000    -2.2212190000
   13      C       0.8228760000     3.0552740000    -5.3099190000
   14      H       1.1093760000     4.1223740000    -5.3452190000
   15      H      -0.1385240000     2.9097740000    -5.8505190000
   16      H       1.5901760000     2.4458740000    -5.8368190000
   17      C      -0.2321240000    -2.2415260000     1.0250810000
   18      H       0.3004760000    -2.2505260000     0.0855810000
   19      H       0.4919760000    -2.9254260000     1.4426810000
   20      H      -1.0537240000    -2.7659260000     0.5599810000
   21      H       0.6476760000     2.4724740000     2.3465810000
 ----------------------------------------------------------------

   11   -1389.2494320727      4.93e-07  Convergence criterion met
 Total energy in the final basis set =    -1389.2494320727
        RIMP2         total energy =     -1391.7572805588 a.u.

                    Orbital Energies (a.u.)
 --------------------------------------------------------------

 Alpha MOs
 -- Occupied --
-92.0056 -91.9907 -26.3353 -20.6106 -20.5476 -11.4081 -11.3764 -11.3105
-11.2919 -11.2919 -11.2878 -11.2815 -11.2717 -11.2290  -9.0043  -8.9948
 -6.6851  -6.6844  -6.6841  -6.6761  -6.6755  -6.6741  -1.6484  -1.4702
 -1.3653  -1.2279  -1.1460  -1.0682  -1.0268  -1.0060  -0.9685  -0.9111
 -0.8635  -0.7957  -0.7860  -0.7668  -0.7265  -0.7163  -0.6973  -0.6782
 -0.6774  -0.6688  -0.6089  -0.6043  -0.5964  -0.5885  -0.5849  -0.5654
 -0.5413  -0.5246  -0.5048  -0.4827  -0.4721  -0.4655  -0.4601  -0.4567
 -0.3935  -0.3453  -0.2799

          Ground-State Mulliken Net Atomic Charges

     Atom                 Charge (a.u.)
  ----------------------------------------
      1 C                     0.038213
      2 S                     0.086251
      3 C                    -0.258392
      4 C                    -0.090217
      5 C                    -0.011403
      6 C                     0.368312
      7 C                    -0.153627
      8 S                     0.031642
      9 C                     0.457572
     10 O                    -0.455038
     11 O                    -0.298354
     12 F                    -0.213190
     13 C                    -0.054881
     14 H                     0.116349
     15 H                     0.084015
     16 H                     0.083805
     17 C                    -0.375436
     18 H                     0.127567
     19 H                     0.165138
     20 H                     0.141839
     21 H                     0.209834
  ----------------------------------------
  Sum of atomic charges =     0.000000

                    Cartesian Multipole Moments
 -----------------------------------------------------------------
    Charge (ESU x 10^10)
                -0.0000
    Dipole Moment (Debye)
         X       1.0459      Y       0.8917      Z       2.9354
       Tot       3.2412
    Quadrupole Moments (Debye-Ang)
        XX     -95.5778     XY       1.6144     YY     -82.8127
        XZ      -2.0497     YZ     -10.5697     ZZ     -97.4813

 Total job time:  55.37s(wall), 2043.92s(cpu)
        *  Thank you very much for using Q-Chem.  Have a nice day.  *
