 Q-Chem 5.4, Q-Chem, Inc., Pleasanton, CA (2021)
 Q-Chem 5.4.0 for Intel X86 EM64T Linux

User input:
--------------------------------------------------------------
$molecule
0 1
C	-0.157827	-0.823218	1.023963
S	0.000573	0.062182	2.534663
C	0.273073	1.613782	1.751563
C	-0.000127	0.071182	-0.040737
C	0.239573	1.439182	0.345663
C	-0.010027	0.005582	-1.462137
C	0.209473	1.251182	-2.082937
S	0.422773	2.480282	-0.941737
C	0.258273	1.500982	-3.536037
O	0.099073	0.581182	-4.326337
O	0.484273	2.764082	-3.980437
F	-0.199627	-1.092318	-2.222337
C	0.556573	3.115582	-5.311037
H	0.748973	4.203682	-5.346337
H	-0.388527	2.886882	-5.851637
H	1.374073	2.575482	-5.837937
C	-0.157827	-2.258418	1.023963
H	0.854073	-2.267418	0.646663
H	0.128373	-2.942318	1.809263
H	-0.488227	-2.782818	0.139563
H	0.432873	2.519782	2.345463
$end

$rem
JOBTYPE		SP
EXCHANGE	HF
CORRELATION	pRIMP2
BASIS		cc-pvtz
METHOD		rimp2
AUX_BASIS	rimp2-cc-pvtz
SOLVENT_METHOD	PCM
PURECART	11111
SYMMETRY	false
MEM_TOTAL	110000
SCF_CONVERGENCE = 6
THRESH=10
GUI = 2
$end

$solvent
dielectric 4.90
$end
--------------------------------------------------------------

             Standard Nuclear Orientation (Angstroms)
    I     Atom           X                Y                Z
 ----------------------------------------------------------------
    1      C      -0.1578270000    -0.8232180000     1.0239630000
    2      S       0.0005730000     0.0621820000     2.5346630000
    3      C       0.2730730000     1.6137820000     1.7515630000
    4      C      -0.0001270000     0.0711820000    -0.0407370000
    5      C       0.2395730000     1.4391820000     0.3456630000
    6      C      -0.0100270000     0.0055820000    -1.4621370000
    7      C       0.2094730000     1.2511820000    -2.0829370000
    8      S       0.4227730000     2.4802820000    -0.9417370000
    9      C       0.2582730000     1.5009820000    -3.5360370000
   10      O       0.0990730000     0.5811820000    -4.3263370000
   11      O       0.4842730000     2.7640820000    -3.9804370000
   12      F      -0.1996270000    -1.0923180000    -2.2223370000
   13      C       0.5565730000     3.1155820000    -5.3110370000
   14      H       0.7489730000     4.2036820000    -5.3463370000
   15      H      -0.3885270000     2.8868820000    -5.8516370000
   16      H       1.3740730000     2.5754820000    -5.8379370000
   17      C      -0.1578270000    -2.2584180000     1.0239630000
   18      H       0.8540730000    -2.2674180000     0.6466630000
   19      H       0.1283730000    -2.9423180000     1.8092630000
   20      H      -0.4882270000    -2.7828180000     0.1395630000
   21      H       0.4328730000     2.5197820000     2.3454630000
 ----------------------------------------------------------------

   11   -1389.2557930329      4.27e-07  Convergence criterion met
 Total energy in the final basis set =    -1389.2557930329
        RIMP2         total energy =     -1391.7586825585 a.u.

                    Orbital Energies (a.u.)
 --------------------------------------------------------------

 Alpha MOs
 -- Occupied --
-92.0067 -91.9881 -26.3348 -20.6090 -20.5447 -11.4056 -11.3768 -11.3215
-11.2919 -11.2870 -11.2864 -11.2733 -11.2665 -11.2364  -9.0054  -8.9923
 -6.6862  -6.6856  -6.6851  -6.6736  -6.6730  -6.6716  -1.6478  -1.4685
 -1.3632  -1.2263  -1.1470  -1.0682  -1.0264  -1.0066  -0.9674  -0.9113
 -0.8623  -0.7956  -0.7846  -0.7655  -0.7259  -0.7154  -0.6969  -0.6776
 -0.6761  -0.6671  -0.6106  -0.6026  -0.5943  -0.5914  -0.5848  -0.5608
 -0.5359  -0.5232  -0.5123  -0.4944  -0.4779  -0.4637  -0.4587  -0.4562
 -0.3900  -0.3467  -0.2725

          Ground-State Mulliken Net Atomic Charges

     Atom                 Charge (a.u.)
  ----------------------------------------
      1 C                     0.055945
      2 S                     0.085534
      3 C                    -0.281812
      4 C                    -0.101463
      5 C                    -0.008375
      6 C                     0.387673
      7 C                    -0.171946
      8 S                     0.024370
      9 C                     0.459557
     10 O                    -0.459771
     11 O                    -0.299177
     12 F                    -0.213771
     13 C                    -0.054930
     14 H                     0.115888
     15 H                     0.083514
     16 H                     0.083353
     17 C                    -0.383886
     18 H                     0.149478
     19 H                     0.170907
     20 H                     0.150045
     21 H                     0.208867
  ----------------------------------------
  Sum of atomic charges =     0.000000

                    Cartesian Multipole Moments
 -----------------------------------------------------------------
    Charge (ESU x 10^10)
                -0.0000
    Dipole Moment (Debye)
         X       1.0762      Y       0.0930      Z       3.5356
       Tot       3.6969
    Quadrupole Moments (Debye-Ang)
        XX     -96.4701     XY       0.0021     YY     -82.0208
        XZ      -0.9633     YZ     -11.9916     ZZ     -97.5188

 Total job time:  59.30s(wall), 2288.43s(cpu)
        *  Thank you very much for using Q-Chem.  Have a nice day.  *
