 Q-Chem 5.4, Q-Chem, Inc., Pleasanton, CA (2021)
 Q-Chem 5.4.0 for Intel X86 EM64T Linux

User input:
--------------------------------------------------------------
$molecule
0 1
C	-0.230609	-0.806326	1.020627
S	0.004291	0.061874	2.531327
C	0.410991	1.583774	1.748227
C	0.004391	0.070974	-0.044073
C	0.362391	1.412774	0.342327
C	-0.011109	0.006374	-1.465473
C	0.316091	1.228174	-2.086273
S	0.635691	2.434074	-0.945073
C	0.386491	1.472774	-3.539373
O	0.147691	0.570274	-4.329673
O	0.721691	2.711374	-3.983773
F	-0.295709	-1.070726	-2.225673
C	0.824391	3.055274	-5.314373
H	1.110891	4.122374	-5.349673
H	-0.137009	2.909774	-5.854973
H	1.591691	2.445874	-5.841273
C	-0.230609	-2.241526	1.020627
H	-0.592009	-2.250526	2.038327
H	-1.016209	-2.925426	0.735127
H	0.659291	-2.765926	1.336027
H	0.649191	2.472474	2.342127
$end

$rem
JOBTYPE		SP
EXCHANGE	HF
CORRELATION	pRIMP2
BASIS		cc-pvtz
METHOD		rimp2
AUX_BASIS	rimp2-cc-pvtz
SOLVENT_METHOD	PCM
PURECART	11111
SYMMETRY	false
MEM_TOTAL	110000
SCF_CONVERGENCE = 6
THRESH=10
GUI = 2
$end

$solvent
dielectric 4.90
$end
--------------------------------------------------------------

             Standard Nuclear Orientation (Angstroms)
    I     Atom           X                Y                Z
 ----------------------------------------------------------------
    1      C      -0.2306090000    -0.8063260000     1.0206270000
    2      S       0.0042910000     0.0618740000     2.5313270000
    3      C       0.4109910000     1.5837740000     1.7482270000
    4      C       0.0043910000     0.0709740000    -0.0440730000
    5      C       0.3623910000     1.4127740000     0.3423270000
    6      C      -0.0111090000     0.0063740000    -1.4654730000
    7      C       0.3160910000     1.2281740000    -2.0862730000
    8      S       0.6356910000     2.4340740000    -0.9450730000
    9      C       0.3864910000     1.4727740000    -3.5393730000
   10      O       0.1476910000     0.5702740000    -4.3296730000
   11      O       0.7216910000     2.7113740000    -3.9837730000
   12      F      -0.2957090000    -1.0707260000    -2.2256730000
   13      C       0.8243910000     3.0552740000    -5.3143730000
   14      H       1.1108910000     4.1223740000    -5.3496730000
   15      H      -0.1370090000     2.9097740000    -5.8549730000
   16      H       1.5916910000     2.4458740000    -5.8412730000
   17      C      -0.2306090000    -2.2415260000     1.0206270000
   18      H      -0.5920090000    -2.2505260000     2.0383270000
   19      H      -1.0162090000    -2.9254260000     0.7351270000
   20      H       0.6592910000    -2.7659260000     1.3360270000
   21      H       0.6491910000     2.4724740000     2.3421270000
 ----------------------------------------------------------------

   11   -1389.2487035894      4.95e-07  Convergence criterion met
 Total energy in the final basis set =    -1389.2487035894
        RIMP2         total energy =     -1391.7558343691 a.u.

                    Orbital Energies (a.u.)
 --------------------------------------------------------------

 Alpha MOs
 -- Occupied --
-92.0097 -91.9900 -26.3329 -20.6104 -20.5474 -11.4078 -11.3749 -11.3061
-11.2917 -11.2915 -11.2876 -11.2848 -11.2689 -11.2282  -9.0083  -8.9942
 -6.6890  -6.6885  -6.6880  -6.6755  -6.6748  -6.6735  -1.6458  -1.4700
 -1.3650  -1.2269  -1.1470  -1.0650  -1.0297  -1.0052  -0.9685  -0.9098
 -0.8644  -0.7966  -0.7841  -0.7678  -0.7262  -0.7138  -0.6954  -0.6770
 -0.6760  -0.6680  -0.6094  -0.6042  -0.5963  -0.5874  -0.5768  -0.5664
 -0.5426  -0.5249  -0.5054  -0.4808  -0.4750  -0.4640  -0.4598  -0.4580
 -0.3946  -0.3463  -0.2816

          Ground-State Mulliken Net Atomic Charges

     Atom                 Charge (a.u.)
  ----------------------------------------
      1 C                     0.026929
      2 S                     0.086294
      3 C                    -0.253076
      4 C                    -0.083615
      5 C                    -0.008470
      6 C                     0.374575
      7 C                    -0.160057
      8 S                     0.029990
      9 C                     0.457826
     10 O                    -0.454174
     11 O                    -0.298334
     12 F                    -0.212400
     13 C                    -0.054915
     14 H                     0.116221
     15 H                     0.084004
     16 H                     0.083895
     17 C                    -0.360079
     18 H                     0.112923
     19 H                     0.161669
     20 H                     0.138706
     21 H                     0.212088
  ----------------------------------------
  Sum of atomic charges =     0.000000

                    Cartesian Multipole Moments
 -----------------------------------------------------------------
    Charge (ESU x 10^10)
                -0.0000
    Dipole Moment (Debye)
         X       0.5569      Y       1.1284      Z       4.1234
       Tot       4.3111
    Quadrupole Moments (Debye-Ang)
        XX     -95.2344     XY       3.2173     YY     -83.0099
        XZ      -2.8295     YZ     -12.9172     ZZ     -94.9257

 Total job time:  53.29s(wall), 1906.78s(cpu)
        *  Thank you very much for using Q-Chem.  Have a nice day.  *
