 Q-Chem 5.4, Q-Chem, Inc., Pleasanton, CA (2021)
 Q-Chem 5.4.0 for Intel X86 EM64T Linux

User input:
--------------------------------------------------------------
$molecule
0 1
C	-0.572257	-0.628442	1.020802
S	0.007643	0.059158	2.531502
C	1.019343	1.266558	1.748402
C	0.011543	0.067358	-0.043898
C	0.903043	1.132158	0.342502
C	-0.029857	0.015358	-1.465298
C	0.783043	0.984358	-2.086098
S	1.582343	1.942158	-0.944898
C	0.950143	1.176358	-3.539198
O	0.352443	0.459358	-4.329498
O	1.777443	2.157258	-3.983598
F	-0.743057	-0.840542	-2.225498
C	2.015843	2.425458	-5.314198
H	2.726543	3.271558	-5.349498
H	1.083043	2.699958	-5.854798
H	2.453743	1.548958	-5.841098
C	-0.572257	-2.063642	1.020802
H	-0.194957	-2.072642	2.032702
H	-1.357557	-2.747542	1.307002
H	0.312143	-2.588042	0.690402
H	1.610843	1.971358	2.342302
$end

$rem
JOBTYPE		SP
EXCHANGE	HF
CORRELATION	pRIMP2
BASIS		cc-pvtz
METHOD		rimp2
AUX_BASIS	rimp2-cc-pvtz
SOLVENT_METHOD	PCM
PURECART	11111
SYMMETRY	false
MEM_TOTAL	110000
SCF_CONVERGENCE = 6
THRESH=10
GUI = 2
$end

$solvent
dielectric 4.90
$end
--------------------------------------------------------------

             Standard Nuclear Orientation (Angstroms)
    I     Atom           X                Y                Z
 ----------------------------------------------------------------
    1      C      -0.5722570000    -0.6284420000     1.0208020000
    2      S       0.0076430000     0.0591580000     2.5315020000
    3      C       1.0193430000     1.2665580000     1.7484020000
    4      C       0.0115430000     0.0673580000    -0.0438980000
    5      C       0.9030430000     1.1321580000     0.3425020000
    6      C      -0.0298570000     0.0153580000    -1.4652980000
    7      C       0.7830430000     0.9843580000    -2.0860980000
    8      S       1.5823430000     1.9421580000    -0.9448980000
    9      C       0.9501430000     1.1763580000    -3.5391980000
   10      O       0.3524430000     0.4593580000    -4.3294980000
   11      O       1.7774430000     2.1572580000    -3.9835980000
   12      F      -0.7430570000    -0.8405420000    -2.2254980000
   13      C       2.0158430000     2.4254580000    -5.3141980000
   14      H       2.7265430000     3.2715580000    -5.3494980000
   15      H       1.0830430000     2.6999580000    -5.8547980000
   16      H       2.4537430000     1.5489580000    -5.8410980000
   17      C      -0.5722570000    -2.0636420000     1.0208020000
   18      H      -0.1949570000    -2.0726420000     2.0327020000
   19      H      -1.3575570000    -2.7475420000     1.3070020000
   20      H       0.3121430000    -2.5880420000     0.6904020000
   21      H       1.6108430000     1.9713580000     2.3423020000
 ----------------------------------------------------------------

   11   -1389.2166965283      6.04e-07  Convergence criterion met
 Total energy in the final basis set =    -1389.2166965283
        RIMP2         total energy =     -1391.7319611660 a.u.

                    Orbital Energies (a.u.)
 --------------------------------------------------------------

 Alpha MOs
 -- Occupied --
-92.0046 -91.9932 -26.3329 -20.6121 -20.5504 -11.4103 -11.3743 -11.2978
-11.2958 -11.2920 -11.2916 -11.2885 -11.2752 -11.2210  -9.0043  -8.9972
 -6.6849  -6.6841  -6.6838  -6.6785  -6.6779  -6.6765  -1.6458  -1.4719
 -1.3673  -1.2302  -1.1511  -1.0658  -1.0312  -1.0025  -0.9700  -0.9054
 -0.8666  -0.7976  -0.7852  -0.7705  -0.7277  -0.7143  -0.6957  -0.6785
 -0.6750  -0.6699  -0.6085  -0.6060  -0.5996  -0.5894  -0.5704  -0.5653
 -0.5411  -0.5262  -0.5081  -0.4851  -0.4774  -0.4615  -0.4610  -0.4466
 -0.3939  -0.3428  -0.2833

          Ground-State Mulliken Net Atomic Charges

     Atom                 Charge (a.u.)
  ----------------------------------------
      1 C                    -0.007543
      2 S                     0.086341
      3 C                    -0.220460
      4 C                    -0.078144
      5 C                    -0.014851
      6 C                     0.369316
      7 C                    -0.154000
      8 S                     0.038623
      9 C                     0.457043
     10 O                    -0.448906
     11 O                    -0.297655
     12 F                    -0.210298
     13 C                    -0.054632
     14 H                     0.116578
     15 H                     0.084578
     16 H                     0.084320
     17 C                    -0.375208
     18 H                     0.126448
     19 H                     0.141867
     20 H                     0.143661
     21 H                     0.212923
  ----------------------------------------
  Sum of atomic charges =     0.000000

                    Cartesian Multipole Moments
 -----------------------------------------------------------------
    Charge (ESU x 10^10)
                -0.0000
    Dipole Moment (Debye)
         X       2.6461      Y       1.2679      Z       3.8103
       Tot       4.8091
    Quadrupole Moments (Debye-Ang)
        XX     -92.5400     XY       4.6723     YY     -87.2299
        XZ      -6.7117     YZ     -10.5002     ZZ     -93.7214

 Total job time:  59.28s(wall), 1944.08s(cpu)
        *  Thank you very much for using Q-Chem.  Have a nice day.  *
