 Q-Chem 5.4, Q-Chem, Inc., Pleasanton, CA (2021)
 Q-Chem 5.4.0 for Intel X86 EM64T Linux

User input:
--------------------------------------------------------------
$molecule
0 1
C	-0.306599	-0.782911	1.021287
S	0.003101	0.061489	2.531987
C	0.540901	1.542189	1.748887
C	0.004001	0.070589	-0.043413
C	0.477601	1.376089	0.342987
C	-0.017099	0.007589	-1.464813
C	0.415301	1.196189	-2.085613
S	0.838901	2.369589	-0.944413
C	0.506801	1.433689	-3.538713
O	0.190301	0.555489	-4.329013
O	0.948701	2.638389	-3.983113
F	-0.394499	-1.040711	-2.225013
C	1.080901	2.971989	-5.313713
H	1.459401	4.010189	-5.349013
H	0.110501	2.910889	-5.854313
H	1.792201	2.298089	-5.840613
C	-0.306599	-2.218111	1.021287
H	0.394001	-2.227111	1.843087
H	-0.946699	-2.902011	1.558887
H	0.411501	-2.742511	0.408287
H	0.855601	2.406689	2.342787
$end

$rem
JOBTYPE		SP
EXCHANGE	HF
CORRELATION	pRIMP2
BASIS		cc-pvtz
METHOD		rimp2
AUX_BASIS	rimp2-cc-pvtz
SOLVENT_METHOD	PCM
PURECART	11111
SYMMETRY	false
MEM_TOTAL	110000
SCF_CONVERGENCE = 6
THRESH=10
GUI = 2
$end

$solvent
dielectric 4.90
$end
--------------------------------------------------------------

             Standard Nuclear Orientation (Angstroms)
    I     Atom           X                Y                Z
 ----------------------------------------------------------------
    1      C      -0.3065990000    -0.7829110000     1.0212870000
    2      S       0.0031010000     0.0614890000     2.5319870000
    3      C       0.5409010000     1.5421890000     1.7488870000
    4      C       0.0040010000     0.0705890000    -0.0434130000
    5      C       0.4776010000     1.3760890000     0.3429870000
    6      C      -0.0170990000     0.0075890000    -1.4648130000
    7      C       0.4153010000     1.1961890000    -2.0856130000
    8      S       0.8389010000     2.3695890000    -0.9444130000
    9      C       0.5068010000     1.4336890000    -3.5387130000
   10      O       0.1903010000     0.5554890000    -4.3290130000
   11      O       0.9487010000     2.6383890000    -3.9831130000
   12      F      -0.3944990000    -1.0407110000    -2.2250130000
   13      C       1.0809010000     2.9719890000    -5.3137130000
   14      H       1.4594010000     4.0101890000    -5.3490130000
   15      H       0.1105010000     2.9108890000    -5.8543130000
   16      H       1.7922010000     2.2980890000    -5.8406130000
   17      C      -0.3065990000    -2.2181110000     1.0212870000
   18      H       0.3940010000    -2.2271110000     1.8430870000
   19      H      -0.9466990000    -2.9020110000     1.5588870000
   20      H       0.4115010000    -2.7425110000     0.4082870000
   21      H       0.8556010000     2.4066890000     2.3427870000
 ----------------------------------------------------------------

   11   -1389.2456887683      4.70e-07  Convergence criterion met
 Total energy in the final basis set =    -1389.2456887683
        RIMP2         total energy =     -1391.7517809699 a.u.

                    Orbital Energies (a.u.)
 --------------------------------------------------------------

 Alpha MOs
 -- Occupied --
-92.0048 -91.9892 -26.3333 -20.6103 -20.5471 -11.4075 -11.3758 -11.3105
-11.2911 -11.2910 -11.2876 -11.2826 -11.2703 -11.2295  -9.0041  -8.9934
 -6.6849  -6.6843  -6.6838  -6.6747  -6.6740  -6.6727  -1.6462  -1.4698
 -1.3648  -1.2273  -1.1480  -1.0659  -1.0292  -1.0049  -0.9683  -0.9091
 -0.8640  -0.7966  -0.7843  -0.7676  -0.7264  -0.7142  -0.6956  -0.6770
 -0.6763  -0.6678  -0.6094  -0.6040  -0.5989  -0.5871  -0.5748  -0.5644
 -0.5428  -0.5249  -0.5091  -0.4871  -0.4792  -0.4606  -0.4586  -0.4551
 -0.3942  -0.3458  -0.2774

          Ground-State Mulliken Net Atomic Charges

     Atom                 Charge (a.u.)
  ----------------------------------------
      1 C                     0.053796
      2 S                     0.079542
      3 C                    -0.255253
      4 C                    -0.110068
      5 C                    -0.012148
      6 C                     0.385619
      7 C                    -0.166780
      8 S                     0.027522
      9 C                     0.458934
     10 O                    -0.454745
     11 O                    -0.298434
     12 F                    -0.211634
     13 C                    -0.054785
     14 H                     0.116143
     15 H                     0.084036
     16 H                     0.083747
     17 C                    -0.376874
     18 H                     0.135029
     19 H                     0.157271
     20 H                     0.148184
     21 H                     0.210895
  ----------------------------------------
  Sum of atomic charges =     0.000000

                    Cartesian Multipole Moments
 -----------------------------------------------------------------
    Charge (ESU x 10^10)
                -0.0000
    Dipole Moment (Debye)
         X       1.4091      Y       0.7561      Z       4.0222
       Tot       4.3284
    Quadrupole Moments (Debye-Ang)
        XX     -95.4154     XY       2.2020     YY     -83.4782
        XZ      -3.5912     YZ     -12.8413     ZZ     -95.2281

 Total job time:  64.86s(wall), 2457.89s(cpu)
        *  Thank you very much for using Q-Chem.  Have a nice day.  *
