 Q-Chem 5.4, Q-Chem, Inc., Pleasanton, CA (2021)
 Q-Chem 5.4.0 for Intel X86 EM64T Linux

User input:
--------------------------------------------------------------
$molecule
0 1
C	-0.315805	-0.784071	1.023176
S	-0.006105	0.060329	2.533876
C	0.531695	1.541029	1.750776
C	-0.005205	0.069429	-0.041524
C	0.468395	1.374929	0.344876
C	-0.026305	0.006429	-1.462924
C	0.406095	1.195029	-2.083724
S	0.829695	2.368429	-0.942524
C	0.497595	1.432529	-3.536824
O	0.181095	0.554329	-4.327124
O	0.939495	2.637229	-3.981224
F	-0.403705	-1.041871	-2.223124
C	1.071695	2.970829	-5.311824
H	1.450195	4.009029	-5.347124
H	0.101295	2.909729	-5.852424
H	1.782995	2.296929	-5.838724
C	-0.066605	-2.197471	1.023176
H	0.998495	-2.018771	1.014676
H	0.052495	-2.870871	1.859076
H	0.016595	-2.715271	0.079076
H	0.846395	2.405529	2.344676
$end

$rem
JOBTYPE		SP
EXCHANGE	HF
CORRELATION	pRIMP2
BASIS		cc-pvtz
METHOD		rimp2
AUX_BASIS	rimp2-cc-pvtz
SOLVENT_METHOD	PCM
PURECART	11111
SYMMETRY	false
MEM_TOTAL	110000
SCF_CONVERGENCE = 6
THRESH=10
GUI = 2
$end

$solvent
dielectric 4.90
$end
--------------------------------------------------------------

             Standard Nuclear Orientation (Angstroms)
    I     Atom           X                Y                Z
 ----------------------------------------------------------------
    1      C      -0.3158050000    -0.7840710000     1.0231760000
    2      S      -0.0061050000     0.0603290000     2.5338760000
    3      C       0.5316950000     1.5410290000     1.7507760000
    4      C      -0.0052050000     0.0694290000    -0.0415240000
    5      C       0.4683950000     1.3749290000     0.3448760000
    6      C      -0.0263050000     0.0064290000    -1.4629240000
    7      C       0.4060950000     1.1950290000    -2.0837240000
    8      S       0.8296950000     2.3684290000    -0.9425240000
    9      C       0.4975950000     1.4325290000    -3.5368240000
   10      O       0.1810950000     0.5543290000    -4.3271240000
   11      O       0.9394950000     2.6372290000    -3.9812240000
   12      F      -0.4037050000    -1.0418710000    -2.2231240000
   13      C       1.0716950000     2.9708290000    -5.3118240000
   14      H       1.4501950000     4.0090290000    -5.3471240000
   15      H       0.1012950000     2.9097290000    -5.8524240000
   16      H       1.7829950000     2.2969290000    -5.8387240000
   17      C      -0.0666050000    -2.1974710000     1.0231760000
   18      H       0.9984950000    -2.0187710000     1.0146760000
   19      H       0.0524950000    -2.8708710000     1.8590760000
   20      H       0.0165950000    -2.7152710000     0.0790760000
   21      H       0.8463950000     2.4055290000     2.3446760000
 ----------------------------------------------------------------

   11   -1389.2417965526      4.71e-07  Convergence criterion met
 Total energy in the final basis set =    -1389.2417965526
        RIMP2         total energy =     -1391.7485770047 a.u.

                    Orbital Energies (a.u.)
 --------------------------------------------------------------

 Alpha MOs
 -- Occupied --
-92.0051 -91.9892 -26.3344 -20.6095 -20.5456 -11.4064 -11.3766 -11.3167
-11.2925 -11.2884 -11.2873 -11.2789 -11.2678 -11.2356  -9.0041  -8.9934
 -6.6850  -6.6843  -6.6839  -6.6747  -6.6740  -6.6727  -1.6473  -1.4690
 -1.3639  -1.2281  -1.1498  -1.0681  -1.0273  -1.0049  -0.9680  -0.9092
 -0.8631  -0.7961  -0.7848  -0.7669  -0.7264  -0.7151  -0.6962  -0.6772
 -0.6765  -0.6677  -0.6096  -0.6033  -0.6009  -0.5868  -0.5827  -0.5597
 -0.5293  -0.5265  -0.5190  -0.4954  -0.4789  -0.4609  -0.4580  -0.4566
 -0.3891  -0.3471  -0.2722

          Ground-State Mulliken Net Atomic Charges

     Atom                 Charge (a.u.)
  ----------------------------------------
      1 C                     0.057074
      2 S                     0.085970
      3 C                    -0.268993
      4 C                    -0.116201
      5 C                    -0.006997
      6 C                     0.370695
      7 C                    -0.167269
      8 S                     0.030384
      9 C                     0.457808
     10 O                    -0.457608
     11 O                    -0.299093
     12 F                    -0.211276
     13 C                    -0.054706
     14 H                     0.115965
     15 H                     0.083795
     16 H                     0.083402
     17 C                    -0.374913
     18 H                     0.152987
     19 H                     0.166507
     20 H                     0.142887
     21 H                     0.209583
  ----------------------------------------
  Sum of atomic charges =     0.000000

                    Cartesian Multipole Moments
 -----------------------------------------------------------------
    Charge (ESU x 10^10)
                -0.0000
    Dipole Moment (Debye)
         X       1.8810      Y       0.4922      Z       3.6709
       Tot       4.1541
    Quadrupole Moments (Debye-Ang)
        XX     -95.7099     XY       0.8899     YY     -83.8187
        XZ      -2.6001     YZ     -11.6976     ZZ     -96.6485

 Total job time:  55.22s(wall), 1946.61s(cpu)
        *  Thank you very much for using Q-Chem.  Have a nice day.  *
