 Q-Chem 5.4, Q-Chem, Inc., Pleasanton, CA (2021)
 Q-Chem 5.4.0 for Intel X86 EM64T Linux

User input:
--------------------------------------------------------------
$molecule
0 1
C	-0.573333	-0.628442	1.023963
S	0.006567	0.059158	2.534663
C	1.018267	1.266558	1.751563
C	0.010467	0.067358	-0.040737
C	0.901967	1.132158	0.345663
C	-0.030933	0.015358	-1.462137
C	0.781967	0.984358	-2.082937
S	1.581267	1.942158	-0.941737
C	0.949067	1.176358	-3.536037
O	0.351367	0.459358	-4.326337
O	1.776367	2.157258	-3.980437
F	-0.744133	-0.840542	-2.222337
C	2.014767	2.425458	-5.311037
H	2.725467	3.271558	-5.346337
H	1.081967	2.699958	-5.851637
H	2.452667	1.548958	-5.837937
C	-0.573333	-2.063642	1.023963
H	0.438567	-2.072642	0.646663
H	-0.287133	-2.747542	1.809263
H	-0.903733	-2.588042	0.139563
H	1.609767	1.971358	2.345463
$end

$rem
JOBTYPE		SP
EXCHANGE	HF
CORRELATION	pRIMP2
BASIS		cc-pvtz
METHOD		rimp2
AUX_BASIS	rimp2-cc-pvtz
SOLVENT_METHOD	PCM
PURECART	11111
SYMMETRY	false
MEM_TOTAL	110000
SCF_CONVERGENCE = 6
THRESH=10
GUI = 2
$end

$solvent
dielectric 4.90
$end
--------------------------------------------------------------

             Standard Nuclear Orientation (Angstroms)
    I     Atom           X                Y                Z
 ----------------------------------------------------------------
    1      C      -0.5733330000    -0.6284420000     1.0239630000
    2      S       0.0065670000     0.0591580000     2.5346630000
    3      C       1.0182670000     1.2665580000     1.7515630000
    4      C       0.0104670000     0.0673580000    -0.0407370000
    5      C       0.9019670000     1.1321580000     0.3456630000
    6      C      -0.0309330000     0.0153580000    -1.4621370000
    7      C       0.7819670000     0.9843580000    -2.0829370000
    8      S       1.5812670000     1.9421580000    -0.9417370000
    9      C       0.9490670000     1.1763580000    -3.5360370000
   10      O       0.3513670000     0.4593580000    -4.3263370000
   11      O       1.7763670000     2.1572580000    -3.9804370000
   12      F      -0.7441330000    -0.8405420000    -2.2223370000
   13      C       2.0147670000     2.4254580000    -5.3110370000
   14      H       2.7254670000     3.2715580000    -5.3463370000
   15      H       1.0819670000     2.6999580000    -5.8516370000
   16      H       2.4526670000     1.5489580000    -5.8379370000
   17      C      -0.5733330000    -2.0636420000     1.0239630000
   18      H       0.4385670000    -2.0726420000     0.6466630000
   19      H      -0.2871330000    -2.7475420000     1.8092630000
   20      H      -0.9037330000    -2.5880420000     0.1395630000
   21      H       1.6097670000     1.9713580000     2.3454630000
 ----------------------------------------------------------------

   11   -1389.2239266536      5.52e-07  Convergence criterion met
 Total energy in the final basis set =    -1389.2239266536
        RIMP2         total energy =     -1391.7378324999 a.u.

                    Orbital Energies (a.u.)
 --------------------------------------------------------------

 Alpha MOs
 -- Occupied --
-92.0078 -91.9921 -26.3342 -20.6104 -20.5472 -11.4078 -11.3757 -11.3075
-11.2938 -11.2916 -11.2878 -11.2852 -11.2690 -11.2306  -9.0066  -8.9961
 -6.6873  -6.6867  -6.6863  -6.6774  -6.6767  -6.6754  -1.6472  -1.4701
 -1.3651  -1.2300  -1.1514  -1.0689  -1.0273  -1.0037  -0.9689  -0.9078
 -0.8640  -0.7959  -0.7855  -0.7679  -0.7268  -0.7153  -0.6964  -0.6774
 -0.6771  -0.6689  -0.6088  -0.6042  -0.6004  -0.5893  -0.5842  -0.5609
 -0.5299  -0.5245  -0.5109  -0.4949  -0.4800  -0.4615  -0.4588  -0.4576
 -0.3856  -0.3465  -0.2744

          Ground-State Mulliken Net Atomic Charges

     Atom                 Charge (a.u.)
  ----------------------------------------
      1 C                    -0.001141
      2 S                     0.100998
      3 C                    -0.254924
      4 C                    -0.079495
      5 C                    -0.008290
      6 C                     0.366103
      7 C                    -0.164111
      8 S                     0.039082
      9 C                     0.457918
     10 O                    -0.455172
     11 O                    -0.298843
     12 F                    -0.211347
     13 C                    -0.054649
     14 H                     0.116174
     15 H                     0.084045
     16 H                     0.083681
     17 C                    -0.377926
     18 H                     0.143959
     19 H                     0.166601
     20 H                     0.136946
     21 H                     0.210391
  ----------------------------------------
  Sum of atomic charges =     0.000000

                    Cartesian Multipole Moments
 -----------------------------------------------------------------
    Charge (ESU x 10^10)
                -0.0000
    Dipole Moment (Debye)
         X       2.5191      Y       0.4704      Z       3.3889
       Tot       4.2488
    Quadrupole Moments (Debye-Ang)
        XX     -93.5808     XY       3.8401     YY     -86.6077
        XZ      -5.7975     YZ      -9.1723     ZZ     -96.2375

 Total job time:  56.40s(wall), 2028.26s(cpu)
        *  Thank you very much for using Q-Chem.  Have a nice day.  *
