 Q-Chem 5.4, Q-Chem, Inc., Pleasanton, CA (2021)
 Q-Chem 5.4.0 for Intel X86 EM64T Linux

User input:
--------------------------------------------------------------
$molecule
0 1
C	-0.582124	-0.629602	1.023176
S	-0.002224	0.057998	2.533876
C	1.009476	1.265398	1.750776
C	0.001676	0.066198	-0.041524
C	0.893176	1.130998	0.344876
C	-0.039724	0.014198	-1.462924
C	0.773176	0.983198	-2.083724
S	1.572476	1.940998	-0.942524
C	0.940276	1.175198	-3.536824
O	0.342576	0.458198	-4.327124
O	1.767576	2.156098	-3.981224
F	-0.752924	-0.841702	-2.223124
C	2.005976	2.424298	-5.311824
H	2.716676	3.270398	-5.347124
H	1.073176	2.698798	-5.852424
H	2.443876	1.547798	-5.838724
C	-0.332924	-2.043002	1.023176
H	0.732176	-1.864302	1.014676
H	-0.213824	-2.716402	1.859076
H	-0.249724	-2.560802	0.079076
H	1.600976	1.970198	2.344676
$end

$rem
JOBTYPE		SP
EXCHANGE	HF
CORRELATION	pRIMP2
BASIS		cc-pvtz
METHOD		rimp2
AUX_BASIS	rimp2-cc-pvtz
SOLVENT_METHOD	PCM
PURECART	11111
SYMMETRY	false
MEM_TOTAL	110000
SCF_CONVERGENCE = 6
THRESH=10
GUI = 2
$end

$solvent
dielectric 4.90
$end
--------------------------------------------------------------

             Standard Nuclear Orientation (Angstroms)
    I     Atom           X                Y                Z
 ----------------------------------------------------------------
    1      C      -0.5821240000    -0.6296020000     1.0231760000
    2      S      -0.0022240000     0.0579980000     2.5338760000
    3      C       1.0094760000     1.2653980000     1.7507760000
    4      C       0.0016760000     0.0661980000    -0.0415240000
    5      C       0.8931760000     1.1309980000     0.3448760000
    6      C      -0.0397240000     0.0141980000    -1.4629240000
    7      C       0.7731760000     0.9831980000    -2.0837240000
    8      S       1.5724760000     1.9409980000    -0.9425240000
    9      C       0.9402760000     1.1751980000    -3.5368240000
   10      O       0.3425760000     0.4581980000    -4.3271240000
   11      O       1.7675760000     2.1560980000    -3.9812240000
   12      F      -0.7529240000    -0.8417020000    -2.2231240000
   13      C       2.0059760000     2.4242980000    -5.3118240000
   14      H       2.7166760000     3.2703980000    -5.3471240000
   15      H       1.0731760000     2.6987980000    -5.8524240000
   16      H       2.4438760000     1.5477980000    -5.8387240000
   17      C      -0.3329240000    -2.0430020000     1.0231760000
   18      H       0.7321760000    -1.8643020000     1.0146760000
   19      H      -0.2138240000    -2.7164020000     1.8590760000
   20      H      -0.2497240000    -2.5608020000     0.0790760000
   21      H       1.6009760000     1.9701980000     2.3446760000
 ----------------------------------------------------------------

   11   -1389.2075634142      6.15e-07  Convergence criterion met
 Total energy in the final basis set =    -1389.2075634142
        RIMP2         total energy =     -1391.7257824509 a.u.

                    Orbital Energies (a.u.)
 --------------------------------------------------------------

 Alpha MOs
 -- Occupied --
-92.0046 -91.9941 -26.3340 -20.6114 -20.5490 -11.4093 -11.3758 -11.2991
-11.2956 -11.2951 -11.2945 -11.2883 -11.2731 -11.2298  -9.0041  -8.9981
 -6.6848  -6.6841  -6.6838  -6.6793  -6.6787  -6.6773  -1.6470  -1.4712
 -1.3664  -1.2329  -1.1549  -1.0698  -1.0290  -1.0025  -0.9700  -0.9058
 -0.8654  -0.7971  -0.7863  -0.7702  -0.7280  -0.7153  -0.6965  -0.6781
 -0.6769  -0.6703  -0.6089  -0.6065  -0.6038  -0.5907  -0.5762  -0.5609
 -0.5285  -0.5251  -0.5188  -0.4964  -0.4816  -0.4613  -0.4600  -0.4503
 -0.3854  -0.3472  -0.2753

          Ground-State Mulliken Net Atomic Charges

     Atom                 Charge (a.u.)
  ----------------------------------------
      1 C                    -0.025840
      2 S                     0.097208
      3 C                    -0.229899
      4 C                    -0.069555
      5 C                    -0.015895
      6 C                     0.366009
      7 C                    -0.156676
      8 S                     0.043772
      9 C                     0.457576
     10 O                    -0.452008
     11 O                    -0.298465
     12 F                    -0.210574
     13 C                    -0.054617
     14 H                     0.116394
     15 H                     0.084396
     16 H                     0.083999
     17 C                    -0.369211
     18 H                     0.128200
     19 H                     0.159395
     20 H                     0.133426
     21 H                     0.212364
  ----------------------------------------
  Sum of atomic charges =     0.000000

                    Cartesian Multipole Moments
 -----------------------------------------------------------------
    Charge (ESU x 10^10)
                -0.0000
    Dipole Moment (Debye)
         X       3.1429      Y       1.0910      Z       3.3792
       Tot       4.7420
    Quadrupole Moments (Debye-Ang)
        XX     -93.5689     XY       3.5451     YY     -87.1876
        XZ      -5.5693     YZ      -9.1996     ZZ     -95.1893

 Total job time:  60.83s(wall), 2100.52s(cpu)
        *  Thank you very much for using Q-Chem.  Have a nice day.  *
