 Q-Chem 5.4, Q-Chem, Inc., Pleasanton, CA (2021)
 Q-Chem 5.4.0 for Intel X86 EM64T Linux

User input:
--------------------------------------------------------------
$molecule
0 1
C	-0.158065	-0.823218	1.022765
S	0.000335	0.062182	2.533465
C	0.272835	1.613782	1.750365
C	-0.000365	0.071182	-0.041935
C	0.239335	1.439182	0.344465
C	-0.010265	0.005582	-1.463335
C	0.209235	1.251182	-2.084135
S	0.422535	2.480282	-0.942935
C	0.258035	1.500982	-3.537235
O	0.098835	0.581182	-4.327535
O	0.484035	2.764082	-3.981635
F	-0.199865	-1.092318	-2.223535
C	0.556335	3.115582	-5.312235
H	0.748735	4.203682	-5.347535
H	-0.388765	2.886882	-5.852835
H	1.373835	2.575482	-5.839135
C	-0.158065	-2.258418	1.022765
H	0.906935	-2.267418	1.201965
H	-0.302865	-2.942318	1.845965
H	-0.001965	-2.782818	0.091565
H	0.432635	2.519782	2.344265
$end

$rem
JOBTYPE		SP
EXCHANGE	HF
CORRELATION	pRIMP2
BASIS		cc-pvtz
METHOD		rimp2
AUX_BASIS	rimp2-cc-pvtz
SOLVENT_METHOD	PCM
PURECART	11111
SYMMETRY	false
MEM_TOTAL	110000
SCF_CONVERGENCE = 6
THRESH=10
GUI = 2
$end

$solvent
dielectric 4.90
$end
--------------------------------------------------------------

             Standard Nuclear Orientation (Angstroms)
    I     Atom           X                Y                Z
 ----------------------------------------------------------------
    1      C      -0.1580650000    -0.8232180000     1.0227650000
    2      S       0.0003350000     0.0621820000     2.5334650000
    3      C       0.2728350000     1.6137820000     1.7503650000
    4      C      -0.0003650000     0.0711820000    -0.0419350000
    5      C       0.2393350000     1.4391820000     0.3444650000
    6      C      -0.0102650000     0.0055820000    -1.4633350000
    7      C       0.2092350000     1.2511820000    -2.0841350000
    8      S       0.4225350000     2.4802820000    -0.9429350000
    9      C       0.2580350000     1.5009820000    -3.5372350000
   10      O       0.0988350000     0.5811820000    -4.3275350000
   11      O       0.4840350000     2.7640820000    -3.9816350000
   12      F      -0.1998650000    -1.0923180000    -2.2235350000
   13      C       0.5563350000     3.1155820000    -5.3122350000
   14      H       0.7487350000     4.2036820000    -5.3475350000
   15      H      -0.3887650000     2.8868820000    -5.8528350000
   16      H       1.3738350000     2.5754820000    -5.8391350000
   17      C      -0.1580650000    -2.2584180000     1.0227650000
   18      H       0.9069350000    -2.2674180000     1.2019650000
   19      H      -0.3028650000    -2.9423180000     1.8459650000
   20      H      -0.0019650000    -2.7828180000     0.0915650000
   21      H       0.4326350000     2.5197820000     2.3442650000
 ----------------------------------------------------------------

   11   -1389.2565990316      4.13e-07  Convergence criterion met
 Total energy in the final basis set =    -1389.2565990316
        RIMP2         total energy =     -1391.7581036794 a.u.

                    Orbital Energies (a.u.)
 --------------------------------------------------------------

 Alpha MOs
 -- Occupied --
-92.0051 -91.9873 -26.3343 -20.6089 -20.5445 -11.4054 -11.3769 -11.3221
-11.2912 -11.2869 -11.2861 -11.2739 -11.2667 -11.2373  -9.0041  -8.9916
 -6.6850  -6.6843  -6.6838  -6.6729  -6.6722  -6.6708  -1.6473  -1.4683
 -1.3630  -1.2262  -1.1474  -1.0676  -1.0272  -1.0063  -0.9673  -0.9110
 -0.8623  -0.7959  -0.7842  -0.7658  -0.7259  -0.7149  -0.6963  -0.6771
 -0.6759  -0.6668  -0.6105  -0.6025  -0.5979  -0.5861  -0.5850  -0.5590
 -0.5309  -0.5279  -0.5188  -0.4943  -0.4779  -0.4620  -0.4583  -0.4560
 -0.3909  -0.3470  -0.2717

          Ground-State Mulliken Net Atomic Charges

     Atom                 Charge (a.u.)
  ----------------------------------------
      1 C                     0.055623
      2 S                     0.078950
      3 C                    -0.278241
      4 C                    -0.106517
      5 C                    -0.012873
      6 C                     0.392017
      7 C                    -0.170152
      8 S                     0.022033
      9 C                     0.460222
     10 O                    -0.459684
     11 O                    -0.299176
     12 F                    -0.213489
     13 C                    -0.054941
     14 H                     0.115870
     15 H                     0.083518
     16 H                     0.083348
     17 C                    -0.379915
     18 H                     0.154384
     19 H                     0.169707
     20 H                     0.149778
     21 H                     0.209538
  ----------------------------------------
  Sum of atomic charges =     0.000000

                    Cartesian Multipole Moments
 -----------------------------------------------------------------
    Charge (ESU x 10^10)
                -0.0000
    Dipole Moment (Debye)
         X       1.1278      Y       0.0211      Z       3.8918
       Tot       4.0520
    Quadrupole Moments (Debye-Ang)
        XX     -96.5571     XY      -0.0400     YY     -81.9470
        XZ      -1.2371     YZ     -12.9093     ZZ     -96.8296

 Total job time:  60.77s(wall), 1933.55s(cpu)
        *  Thank you very much for using Q-Chem.  Have a nice day.  *
