 Q-Chem 5.4, Q-Chem, Inc., Pleasanton, CA (2021)
 Q-Chem 5.4.0 for Intel X86 EM64T Linux

User input:
--------------------------------------------------------------
$molecule
0 1
C	-0.376024	-0.753180	1.025267
S	0.006076	0.061020	2.535967
C	0.670876	1.489220	1.752867
C	0.007776	0.069920	-0.039433
C	0.593376	1.329320	0.346967
C	-0.018824	0.009120	-1.460833
C	0.515676	1.155520	-2.081633
S	1.039876	2.287520	-0.940433
C	0.627476	1.384120	-3.534733
O	0.235576	0.536820	-4.325033
O	1.172676	2.545720	-3.979133
F	-0.486124	-1.002280	-2.221033
C	1.333476	2.866520	-5.309733
H	1.800976	3.867720	-5.345033
H	0.361376	2.890220	-5.850333
H	1.983376	2.133220	-5.836633
C	-0.376024	-2.188380	1.025267
H	-0.384524	-2.197380	-0.054633
H	0.459876	-2.872280	1.024867
H	-1.320124	-2.712780	1.033267
H	1.059776	2.323020	2.346767
$end

$rem
JOBTYPE		SP
EXCHANGE	HF
CORRELATION	pRIMP2
BASIS		cc-pvtz
METHOD		rimp2
AUX_BASIS	rimp2-cc-pvtz
SOLVENT_METHOD	PCM
PURECART	11111
SYMMETRY	false
MEM_TOTAL	110000
SCF_CONVERGENCE = 6
THRESH=10
GUI = 2
$end

$solvent
dielectric 4.90
$end
--------------------------------------------------------------

             Standard Nuclear Orientation (Angstroms)
    I     Atom           X                Y                Z
 ----------------------------------------------------------------
    1      C      -0.3760240000    -0.7531800000     1.0252670000
    2      S       0.0060760000     0.0610200000     2.5359670000
    3      C       0.6708760000     1.4892200000     1.7528670000
    4      C       0.0077760000     0.0699200000    -0.0394330000
    5      C       0.5933760000     1.3293200000     0.3469670000
    6      C      -0.0188240000     0.0091200000    -1.4608330000
    7      C       0.5156760000     1.1555200000    -2.0816330000
    8      S       1.0398760000     2.2875200000    -0.9404330000
    9      C       0.6274760000     1.3841200000    -3.5347330000
   10      O       0.2355760000     0.5368200000    -4.3250330000
   11      O       1.1726760000     2.5457200000    -3.9791330000
   12      F      -0.4861240000    -1.0022800000    -2.2210330000
   13      C       1.3334760000     2.8665200000    -5.3097330000
   14      H       1.8009760000     3.8677200000    -5.3450330000
   15      H       0.3613760000     2.8902200000    -5.8503330000
   16      H       1.9833760000     2.1332200000    -5.8366330000
   17      C      -0.3760240000    -2.1883800000     1.0252670000
   18      H      -0.3845240000    -2.1973800000    -0.0546330000
   19      H       0.4598760000    -2.8722800000     1.0248670000
   20      H      -1.3201240000    -2.7127800000     1.0332670000
   21      H       1.0597760000     2.3230200000     2.3467670000
 ----------------------------------------------------------------

   11   -1389.2414327350      5.53e-07  Convergence criterion met
 Total energy in the final basis set =    -1389.2414327350
        RIMP2         total energy =     -1391.7529017027 a.u.

                    Orbital Energies (a.u.)
 --------------------------------------------------------------

 Alpha MOs
 -- Occupied --
-92.0034 -91.9927 -26.3356 -20.6117 -20.5496 -11.4098 -11.3762 -11.3004
-11.2958 -11.2921 -11.2893 -11.2884 -11.2759 -11.2244  -9.0025  -8.9967
 -6.6832  -6.6825  -6.6822  -6.6780  -6.6773  -6.6760  -1.6488  -1.4715
 -1.3668  -1.2293  -1.1461  -1.0681  -1.0275  -1.0051  -0.9692  -0.9106
 -0.8645  -0.7961  -0.7871  -0.7682  -0.7272  -0.7169  -0.6972  -0.6783
 -0.6779  -0.6703  -0.6068  -0.6055  -0.5989  -0.5897  -0.5801  -0.5666
 -0.5423  -0.5255  -0.5059  -0.4822  -0.4705  -0.4624  -0.4609  -0.4494
 -0.3969  -0.3446  -0.2846

          Ground-State Mulliken Net Atomic Charges

     Atom                 Charge (a.u.)
  ----------------------------------------
      1 C                     0.008261
      2 S                     0.088173
      3 C                    -0.237778
      4 C                    -0.090096
      5 C                    -0.011452
      6 C                     0.356462
      7 C                    -0.140630
      8 S                     0.037754
      9 C                     0.456589
     10 O                    -0.451504
     11 O                    -0.297838
     12 F                    -0.212311
     13 C                    -0.054762
     14 H                     0.116613
     15 H                     0.084308
     16 H                     0.084165
     17 C                    -0.351212
     18 H                     0.112709
     19 H                     0.158166
     20 H                     0.133529
     21 H                     0.210855
  ----------------------------------------
  Sum of atomic charges =     0.000000

                    Cartesian Multipole Moments
 -----------------------------------------------------------------
    Charge (ESU x 10^10)
                -0.0000
    Dipole Moment (Debye)
         X       1.3887      Y       1.3452      Z       2.6561
       Tot       3.2853
    Quadrupole Moments (Debye-Ang)
        XX     -94.1869     XY       3.9069     YY     -84.2162
        XZ      -4.2011     YZ      -9.3783     ZZ     -97.0929

 Total job time:  52.44s(wall), 1897.37s(cpu)
        *  Thank you very much for using Q-Chem.  Have a nice day.  *
