 Q-Chem 5.4, Q-Chem, Inc., Pleasanton, CA (2021)
 Q-Chem 5.4.0 for Intel X86 EM64T Linux

User input:
--------------------------------------------------------------
$molecule
0 1
C	-0.157870	-0.823218	1.021968
S	0.000530	0.062182	2.532668
C	0.273030	1.613782	1.749568
C	-0.000170	0.071182	-0.042732
C	0.239530	1.439182	0.343668
C	-0.010070	0.005582	-1.464132
C	0.209430	1.251182	-2.084932
S	0.422730	2.480282	-0.943732
C	0.258230	1.500982	-3.538032
O	0.099030	0.581182	-4.328332
O	0.484230	2.764082	-3.982432
F	-0.199670	-1.092318	-2.224332
C	0.556530	3.115582	-5.313032
H	0.748930	4.203682	-5.348332
H	-0.388570	2.886882	-5.853632
H	1.374030	2.575482	-5.839932
C	-0.157870	-2.258418	1.021968
H	0.781630	-2.267418	1.554568
H	-0.575470	-2.942318	1.746068
H	0.307230	-2.782818	0.200368
H	0.432830	2.519782	2.343468
$end

$rem
JOBTYPE		SP
EXCHANGE	HF
CORRELATION	pRIMP2
BASIS		cc-pvtz
METHOD		rimp2
AUX_BASIS	rimp2-cc-pvtz
SOLVENT_METHOD	PCM
PURECART	11111
SYMMETRY	false
MEM_TOTAL	110000
SCF_CONVERGENCE = 6
THRESH=10
GUI = 2
$end

$solvent
dielectric 4.90
$end
--------------------------------------------------------------

             Standard Nuclear Orientation (Angstroms)
    I     Atom           X                Y                Z
 ----------------------------------------------------------------
    1      C      -0.1578700000    -0.8232180000     1.0219680000
    2      S       0.0005300000     0.0621820000     2.5326680000
    3      C       0.2730300000     1.6137820000     1.7495680000
    4      C      -0.0001700000     0.0711820000    -0.0427320000
    5      C       0.2395300000     1.4391820000     0.3436680000
    6      C      -0.0100700000     0.0055820000    -1.4641320000
    7      C       0.2094300000     1.2511820000    -2.0849320000
    8      S       0.4227300000     2.4802820000    -0.9437320000
    9      C       0.2582300000     1.5009820000    -3.5380320000
   10      O       0.0990300000     0.5811820000    -4.3283320000
   11      O       0.4842300000     2.7640820000    -3.9824320000
   12      F      -0.1996700000    -1.0923180000    -2.2243320000
   13      C       0.5565300000     3.1155820000    -5.3130320000
   14      H       0.7489300000     4.2036820000    -5.3483320000
   15      H      -0.3885700000     2.8868820000    -5.8536320000
   16      H       1.3740300000     2.5754820000    -5.8399320000
   17      C      -0.1578700000    -2.2584180000     1.0219680000
   18      H       0.7816300000    -2.2674180000     1.5545680000
   19      H      -0.5754700000    -2.9423180000     1.7460680000
   20      H       0.3072300000    -2.7828180000     0.2003680000
   21      H       0.4328300000     2.5197820000     2.3434680000
 ----------------------------------------------------------------

   11   -1389.2546856973      4.27e-07  Convergence criterion met
 Total energy in the final basis set =    -1389.2546856973
        RIMP2         total energy =     -1391.7571876510 a.u.

                    Orbital Energies (a.u.)
 --------------------------------------------------------------

 Alpha MOs
 -- Occupied --
-92.0048 -91.9877 -26.3338 -20.6094 -20.5454 -11.4061 -11.3765 -11.3184
-11.2909 -11.2878 -11.2871 -11.2770 -11.2680 -11.2344  -9.0039  -8.9920
 -6.6847  -6.6841  -6.6836  -6.6733  -6.6726  -6.6712  -1.6467  -1.4688
 -1.3636  -1.2264  -1.1473  -1.0667  -1.0280  -1.0059  -0.9676  -0.9106
 -0.8628  -0.7961  -0.7841  -0.7664  -0.7260  -0.7144  -0.6959  -0.6768
 -0.6763  -0.6671  -0.6102  -0.6030  -0.5984  -0.5857  -0.5820  -0.5603
 -0.5378  -0.5253  -0.5141  -0.4917  -0.4783  -0.4613  -0.4583  -0.4563
 -0.3925  -0.3466  -0.2737

          Ground-State Mulliken Net Atomic Charges

     Atom                 Charge (a.u.)
  ----------------------------------------
      1 C                     0.053783
      2 S                     0.076412
      3 C                    -0.269515
      4 C                    -0.106186
      5 C                    -0.014464
      6 C                     0.395811
      7 C                    -0.169034
      8 S                     0.022914
      9 C                     0.460059
     10 O                    -0.458021
     11 O                    -0.298866
     12 F                    -0.213150
     13 C                    -0.054934
     14 H                     0.115966
     15 H                     0.083679
     16 H                     0.083523
     17 C                    -0.376778
     18 H                     0.144876
     19 H                     0.165441
     20 H                     0.148264
     21 H                     0.210221
  ----------------------------------------
  Sum of atomic charges =     0.000000

                    Cartesian Multipole Moments
 -----------------------------------------------------------------
    Charge (ESU x 10^10)
                -0.0000
    Dipole Moment (Debye)
         X       1.0606      Y       0.3017      Z       4.0251
       Tot       4.1735
    Quadrupole Moments (Debye-Ang)
        XX     -96.3639     XY       0.2240     YY     -82.1517
        XZ      -1.5284     YZ     -13.2903     ZZ     -96.1105

 Total job time:  55.15s(wall), 2003.59s(cpu)
        *  Thank you very much for using Q-Chem.  Have a nice day.  *
