 Q-Chem 5.4, Q-Chem, Inc., Pleasanton, CA (2021)
 Q-Chem 5.4.0 for Intel X86 EM64T Linux

User input:
--------------------------------------------------------------
$molecule
0 1
C	-0.443103	-0.717327	1.024554
S	0.008497	0.060473	2.535254
C	0.795297	1.425273	1.752154
C	0.010997	0.069273	-0.040146
C	0.704097	1.272673	0.346254
C	-0.020803	0.010873	-1.461546
C	0.611497	1.106373	-2.082346
S	1.232397	2.188373	-0.941146
C	0.742797	1.324373	-3.535446
O	0.278597	0.514473	-4.325746
O	1.387197	2.434073	-3.979846
F	-0.574403	-0.955927	-2.221746
C	1.575397	2.739673	-5.310446
H	2.128397	3.696273	-5.345746
H	0.609097	2.847873	-5.851046
H	2.158797	1.952473	-5.837346
C	-0.443103	-2.152527	1.024554
H	-1.143703	-2.161527	0.202754
H	0.196997	-2.836427	0.486954
H	-1.161203	-2.676927	1.637554
H	1.255297	2.221973	2.346054
$end

$rem
JOBTYPE		SP
EXCHANGE	HF
CORRELATION	pRIMP2
BASIS		cc-pvtz
METHOD		rimp2
AUX_BASIS	rimp2-cc-pvtz
SOLVENT_METHOD	PCM
PURECART	11111
SYMMETRY	false
MEM_TOTAL	110000
SCF_CONVERGENCE = 6
THRESH=10
GUI = 2
$end

$solvent
dielectric 4.90
$end
--------------------------------------------------------------

             Standard Nuclear Orientation (Angstroms)
    I     Atom           X                Y                Z
 ----------------------------------------------------------------
    1      C      -0.4431030000    -0.7173270000     1.0245540000
    2      S       0.0084970000     0.0604730000     2.5352540000
    3      C       0.7952970000     1.4252730000     1.7521540000
    4      C       0.0109970000     0.0692730000    -0.0401460000
    5      C       0.7040970000     1.2726730000     0.3462540000
    6      C      -0.0208030000     0.0108730000    -1.4615460000
    7      C       0.6114970000     1.1063730000    -2.0823460000
    8      S       1.2323970000     2.1883730000    -0.9411460000
    9      C       0.7427970000     1.3243730000    -3.5354460000
   10      O       0.2785970000     0.5144730000    -4.3257460000
   11      O       1.3871970000     2.4340730000    -3.9798460000
   12      F      -0.5744030000    -0.9559270000    -2.2217460000
   13      C       1.5753970000     2.7396730000    -5.3104460000
   14      H       2.1283970000     3.6962730000    -5.3457460000
   15      H       0.6090970000     2.8478730000    -5.8510460000
   16      H       2.1587970000     1.9524730000    -5.8373460000
   17      C      -0.4431030000    -2.1525270000     1.0245540000
   18      H      -1.1437030000    -2.1615270000     0.2027540000
   19      H       0.1969970000    -2.8364270000     0.4869540000
   20      H      -1.1612030000    -2.6769270000     1.6375540000
   21      H       1.2552970000     2.2219730000     2.3460540000
 ----------------------------------------------------------------

   11   -1389.2366604590      5.55e-07  Convergence criterion met
 Total energy in the final basis set =    -1389.2366604590
        RIMP2         total energy =     -1391.7487485439 a.u.

                    Orbital Energies (a.u.)
 --------------------------------------------------------------

 Alpha MOs
 -- Occupied --
-92.0034 -91.9923 -26.3345 -20.6112 -20.5488 -11.4091 -11.3759 -11.3007
-11.2943 -11.2925 -11.2882 -11.2881 -11.2744 -11.2254  -9.0026  -8.9964
 -6.6833  -6.6826  -6.6822  -6.6776  -6.6770  -6.6756  -1.6477  -1.4709
 -1.3662  -1.2288  -1.1463  -1.0673  -1.0274  -1.0050  -0.9689  -0.9106
 -0.8642  -0.7958  -0.7861  -0.7677  -0.7267  -0.7158  -0.6966  -0.6779
 -0.6777  -0.6695  -0.6072  -0.6052  -0.5974  -0.5895  -0.5749  -0.5650
 -0.5426  -0.5247  -0.5078  -0.4843  -0.4806  -0.4612  -0.4599  -0.4486
 -0.3916  -0.3452  -0.2801

          Ground-State Mulliken Net Atomic Charges

     Atom                 Charge (a.u.)
  ----------------------------------------
      1 C                     0.006569
      2 S                     0.090933
      3 C                    -0.238196
      4 C                    -0.091248
      5 C                    -0.016193
      6 C                     0.368828
      7 C                    -0.154599
      8 S                     0.036157
      9 C                     0.457376
     10 O                    -0.452713
     11 O                    -0.298182
     12 F                    -0.212213
     13 C                    -0.054822
     14 H                     0.116489
     15 H                     0.084159
     16 H                     0.084110
     17 C                    -0.370300
     18 H                     0.125858
     19 H                     0.163872
     20 H                     0.143731
     21 H                     0.210385
  ----------------------------------------
  Sum of atomic charges =     0.000000

                    Cartesian Multipole Moments
 -----------------------------------------------------------------
    Charge (ESU x 10^10)
                -0.0000
    Dipole Moment (Debye)
         X       1.1626      Y       1.0806      Z       2.8698
       Tot       3.2795
    Quadrupole Moments (Debye-Ang)
        XX     -93.4553     XY       5.5664     YY     -84.9119
        XZ      -5.8125     YZ      -9.2827     ZZ     -96.8507

 Total job time:  54.56s(wall), 1931.28s(cpu)
        *  Thank you very much for using Q-Chem.  Have a nice day.  *
