 Q-Chem 5.4, Q-Chem, Inc., Pleasanton, CA (2021)
 Q-Chem 5.4.0 for Intel X86 EM64T Linux

User input:
--------------------------------------------------------------
$molecule
0 1
C	-0.003915	-0.836989	1.023963
S	-0.001715	0.062411	2.534663
C	-0.002715	1.637711	1.751563
C	-0.003915	0.071211	-0.040737
C	-0.005415	1.460011	0.345663
C	-0.002315	0.004811	-1.462137
C	-0.002415	1.269711	-2.082937
S	-0.005715	2.517211	-0.941737
C	0.002285	1.524111	-3.536037
O	0.005285	0.590611	-4.326337
O	0.005485	2.807311	-3.980437
F	0.001585	-1.109289	-2.222337
C	0.015685	3.166011	-5.311037
H	0.016285	4.271011	-5.346337
H	-0.875315	2.776711	-5.851637
H	0.914585	2.776111	-5.837937
C	-0.003915	-2.272189	1.023963
H	1.007985	-2.281189	0.646663
H	0.282285	-2.956089	1.809263
H	-0.334315	-2.796589	0.139563
H	-0.002715	2.557811	2.345463
$end

$rem
JOBTYPE		SP
EXCHANGE	HF
CORRELATION	pRIMP2
BASIS		cc-pvtz
METHOD		rimp2
AUX_BASIS	rimp2-cc-pvtz
SOLVENT_METHOD	PCM
PURECART	11111
SYMMETRY	false
MEM_TOTAL	110000
SCF_CONVERGENCE = 6
THRESH=10
GUI = 2
$end

$solvent
dielectric 4.90
$end
--------------------------------------------------------------

             Standard Nuclear Orientation (Angstroms)
    I     Atom           X                Y                Z
 ----------------------------------------------------------------
    1      C      -0.0039150000    -0.8369890000     1.0239630000
    2      S      -0.0017150000     0.0624110000     2.5346630000
    3      C      -0.0027150000     1.6377110000     1.7515630000
    4      C      -0.0039150000     0.0712110000    -0.0407370000
    5      C      -0.0054150000     1.4600110000     0.3456630000
    6      C      -0.0023150000     0.0048110000    -1.4621370000
    7      C      -0.0024150000     1.2697110000    -2.0829370000
    8      S      -0.0057150000     2.5172110000    -0.9417370000
    9      C       0.0022850000     1.5241110000    -3.5360370000
   10      O       0.0052850000     0.5906110000    -4.3263370000
   11      O       0.0054850000     2.8073110000    -3.9804370000
   12      F       0.0015850000    -1.1092890000    -2.2223370000
   13      C       0.0156850000     3.1660110000    -5.3110370000
   14      H       0.0162850000     4.2710110000    -5.3463370000
   15      H      -0.8753150000     2.7767110000    -5.8516370000
   16      H       0.9145850000     2.7761110000    -5.8379370000
   17      C      -0.0039150000    -2.2721890000     1.0239630000
   18      H       1.0079850000    -2.2811890000     0.6466630000
   19      H       0.2822850000    -2.9560890000     1.8092630000
   20      H      -0.3343150000    -2.7965890000     0.1395630000
   21      H      -0.0027150000     2.5578110000     2.3454630000
 ----------------------------------------------------------------

   11   -1389.2570025548      4.25e-07  Convergence criterion met
 Total energy in the final basis set =    -1389.2570025548
        RIMP2         total energy =     -1391.7595008889 a.u.

                    Orbital Energies (a.u.)
 --------------------------------------------------------------

 Alpha MOs
 -- Occupied --
-92.0063 -91.9879 -26.3349 -20.6090 -20.5446 -11.4056 -11.3769 -11.3216
-11.2917 -11.2870 -11.2863 -11.2731 -11.2669 -11.2361  -9.0050  -8.9922
 -6.6858  -6.6852  -6.6847  -6.6735  -6.6728  -6.6714  -1.6478  -1.4684
 -1.3631  -1.2261  -1.1464  -1.0681  -1.0264  -1.0068  -0.9673  -0.9117
 -0.8622  -0.7956  -0.7845  -0.7653  -0.7258  -0.7154  -0.6969  -0.6776
 -0.6761  -0.6670  -0.6106  -0.6025  -0.5929  -0.5918  -0.5848  -0.5607
 -0.5371  -0.5230  -0.5124  -0.4942  -0.4779  -0.4628  -0.4586  -0.4561
 -0.3902  -0.3466  -0.2725

          Ground-State Mulliken Net Atomic Charges

     Atom                 Charge (a.u.)
  ----------------------------------------
      1 C                     0.056393
      2 S                     0.083218
      3 C                    -0.282288
      4 C                    -0.104058
      5 C                    -0.006107
      6 C                     0.394634
      7 C                    -0.170853
      8 S                     0.022295
      9 C                     0.460587
     10 O                    -0.460095
     11 O                    -0.299198
     12 F                    -0.214657
     13 C                    -0.055028
     14 H                     0.115924
     15 H                     0.083532
     16 H                     0.083351
     17 C                    -0.386023
     18 H                     0.147114
     19 H                     0.171050
     20 H                     0.151439
     21 H                     0.208770
  ----------------------------------------
  Sum of atomic charges =     0.000000

                    Cartesian Multipole Moments
 -----------------------------------------------------------------
    Charge (ESU x 10^10)
                -0.0000
    Dipole Moment (Debye)
         X       0.7172      Y       0.0968      Z       3.5331
       Tot       3.6065
    Quadrupole Moments (Debye-Ang)
        XX     -96.5355     XY      -1.7460     YY     -81.6534
        XZ       0.9111     YZ     -12.1769     ZZ     -97.5677

 Total job time:  58.25s(wall), 2178.50s(cpu)
        *  Thank you very much for using Q-Chem.  Have a nice day.  *
