 Q-Chem 5.4, Q-Chem, Inc., Pleasanton, CA (2021)
 Q-Chem 5.4.0 for Intel X86 EM64T Linux

User input:
--------------------------------------------------------------
$molecule
0 1
C	-0.455716	-0.718487	1.023176
S	-0.004116	0.059313	2.533876
C	0.782684	1.424113	1.750776
C	-0.001616	0.068113	-0.041524
C	0.691484	1.271513	0.344876
C	-0.033416	0.009713	-1.462924
C	0.598884	1.105213	-2.083724
S	1.219784	2.187213	-0.942524
C	0.730184	1.323213	-3.536824
O	0.265984	0.513313	-4.327124
O	1.374584	2.432913	-3.981224
F	-0.587016	-0.957087	-2.223124
C	1.562784	2.738513	-5.311824
H	2.115784	3.695113	-5.347124
H	0.596484	2.846713	-5.852424
H	2.146184	1.951313	-5.838724
C	-0.206516	-2.131887	1.023176
H	0.858584	-1.953187	1.014676
H	-0.087416	-2.805287	1.859076
H	-0.123316	-2.649687	0.079076
H	1.242684	2.220813	2.344676
$end

$rem
JOBTYPE		SP
EXCHANGE	HF
CORRELATION	pRIMP2
BASIS		cc-pvtz
METHOD		rimp2
AUX_BASIS	rimp2-cc-pvtz
SOLVENT_METHOD	PCM
PURECART	11111
SYMMETRY	false
MEM_TOTAL	110000
SCF_CONVERGENCE = 6
THRESH=10
GUI = 2
$end

$solvent
dielectric 4.90
$end
--------------------------------------------------------------

             Standard Nuclear Orientation (Angstroms)
    I     Atom           X                Y                Z
 ----------------------------------------------------------------
    1      C      -0.4557160000    -0.7184870000     1.0231760000
    2      S      -0.0041160000     0.0593130000     2.5338760000
    3      C       0.7826840000     1.4241130000     1.7507760000
    4      C      -0.0016160000     0.0681130000    -0.0415240000
    5      C       0.6914840000     1.2715130000     0.3448760000
    6      C      -0.0334160000     0.0097130000    -1.4629240000
    7      C       0.5988840000     1.1052130000    -2.0837240000
    8      S       1.2197840000     2.1872130000    -0.9425240000
    9      C       0.7301840000     1.3232130000    -3.5368240000
   10      O       0.2659840000     0.5133130000    -4.3271240000
   11      O       1.3745840000     2.4329130000    -3.9812240000
   12      F      -0.5870160000    -0.9570870000    -2.2231240000
   13      C       1.5627840000     2.7385130000    -5.3118240000
   14      H       2.1157840000     3.6951130000    -5.3471240000
   15      H       0.5964840000     2.8467130000    -5.8524240000
   16      H       2.1461840000     1.9513130000    -5.8387240000
   17      C      -0.2065160000    -2.1318870000     1.0231760000
   18      H       0.8585840000    -1.9531870000     1.0146760000
   19      H      -0.0874160000    -2.8052870000     1.8590760000
   20      H      -0.1233160000    -2.6496870000     0.0790760000
   21      H       1.2426840000     2.2208130000     2.3446760000
 ----------------------------------------------------------------

   11   -1389.2271252729      5.33e-07  Convergence criterion met
 Total energy in the final basis set =    -1389.2271252729
        RIMP2         total energy =     -1391.7389502291 a.u.

                    Orbital Energies (a.u.)
 --------------------------------------------------------------

 Alpha MOs
 -- Occupied --
-92.0047 -91.9911 -26.3342 -20.6103 -20.5470 -11.4076 -11.3763 -11.3097
-11.2935 -11.2911 -11.2877 -11.2854 -11.2698 -11.2331  -9.0040  -8.9952
 -6.6848  -6.6841  -6.6837  -6.6765  -6.6758  -6.6745  -1.6472  -1.4699
 -1.3649  -1.2300  -1.1519  -1.0686  -1.0279  -1.0037  -0.9688  -0.9077
 -0.8641  -0.7964  -0.7854  -0.7682  -0.7270  -0.7152  -0.6961  -0.6772
 -0.6769  -0.6687  -0.6090  -0.6045  -0.6024  -0.5885  -0.5798  -0.5602
 -0.5283  -0.5264  -0.5188  -0.4958  -0.4801  -0.4607  -0.4584  -0.4547
 -0.3877  -0.3472  -0.2732

          Ground-State Mulliken Net Atomic Charges

     Atom                 Charge (a.u.)
  ----------------------------------------
      1 C                     0.027419
      2 S                     0.089710
      3 C                    -0.253571
      4 C                    -0.100465
      5 C                    -0.008414
      6 C                     0.366715
      7 C                    -0.163234
      8 S                     0.035902
      9 C                     0.457586
     10 O                    -0.455343
     11 O                    -0.298880
     12 F                    -0.210639
     13 C                    -0.054795
     14 H                     0.116198
     15 H                     0.083996
     16 H                     0.083733
     17 C                    -0.373106
     18 H                     0.144628
     19 H                     0.163481
     20 H                     0.138480
     21 H                     0.210599
  ----------------------------------------
  Sum of atomic charges =     0.000000

                    Cartesian Multipole Moments
 -----------------------------------------------------------------
    Charge (ESU x 10^10)
                -0.0000
    Dipole Moment (Debye)
         X       2.4131      Y       0.7655      Z       3.5493
       Tot       4.3597
    Quadrupole Moments (Debye-Ang)
        XX     -94.8209     XY       2.3694     YY     -85.3296
        XZ      -4.2311     YZ     -10.6229     ZZ     -96.0859

 Total job time:  96.10s(wall), 1963.80s(cpu)
        *  Thank you very much for using Q-Chem.  Have a nice day.  *
