 Q-Chem 5.4, Q-Chem, Inc., Pleasanton, CA (2021)
 Q-Chem 5.4.0 for Intel X86 EM64T Linux

User input:
--------------------------------------------------------------
$molecule
0 1
C	-0.766350	-0.392188	1.023483
S	0.013650	0.055612	2.534183
C	1.377450	0.844212	1.751083
C	0.020150	0.061912	-0.041217
C	1.222150	0.757612	0.345183
C	-0.036450	0.027312	-1.462617
C	1.058850	0.659812	-2.083417
S	2.137550	1.286512	-0.942217
C	1.281550	0.783012	-3.536517
O	0.474650	0.313712	-4.326817
O	2.394450	1.421812	-3.980917
F	-0.999350	-0.533088	-2.222817
C	2.710150	1.592412	-5.311517
H	3.667350	2.144312	-5.346817
H	1.927450	2.169312	-5.852117
H	2.821850	0.618912	-5.838417
C	-0.766350	-1.827388	1.023483
H	-1.784050	-1.836388	0.662083
H	-0.480850	-2.511288	0.237883
H	-1.081750	-2.351788	1.913383
H	2.174250	1.304112	2.344983
$end

$rem
JOBTYPE		SP
EXCHANGE	HF
CORRELATION	pRIMP2
BASIS		cc-pvtz
METHOD		rimp2
AUX_BASIS	rimp2-cc-pvtz
SOLVENT_METHOD	PCM
PURECART	11111
SYMMETRY	false
MEM_TOTAL	110000
SCF_CONVERGENCE = 6
THRESH=10
GUI = 2
$end

$solvent
dielectric 4.90
$end
--------------------------------------------------------------

             Standard Nuclear Orientation (Angstroms)
    I     Atom           X                Y                Z
 ----------------------------------------------------------------
    1      C      -0.7663500000    -0.3921880000     1.0234830000
    2      S       0.0136500000     0.0556120000     2.5341830000
    3      C       1.3774500000     0.8442120000     1.7510830000
    4      C       0.0201500000     0.0619120000    -0.0412170000
    5      C       1.2221500000     0.7576120000     0.3451830000
    6      C      -0.0364500000     0.0273120000    -1.4626170000
    7      C       1.0588500000     0.6598120000    -2.0834170000
    8      S       2.1375500000     1.2865120000    -0.9422170000
    9      C       1.2815500000     0.7830120000    -3.5365170000
   10      O       0.4746500000     0.3137120000    -4.3268170000
   11      O       2.3944500000     1.4218120000    -3.9809170000
   12      F      -0.9993500000    -0.5330880000    -2.2228170000
   13      C       2.7101500000     1.5924120000    -5.3115170000
   14      H       3.6673500000     2.1443120000    -5.3468170000
   15      H       1.9274500000     2.1693120000    -5.8521170000
   16      H       2.8218500000     0.6189120000    -5.8384170000
   17      C      -0.7663500000    -1.8273880000     1.0234830000
   18      H      -1.7840500000    -1.8363880000     0.6620830000
   19      H      -0.4808500000    -2.5112880000     0.2378830000
   20      H      -1.0817500000    -2.3517880000     1.9133830000
   21      H       2.1742500000     1.3041120000     2.3449830000
 ----------------------------------------------------------------

   11   -1389.1728909951      9.43e-07  Convergence criterion met
 Total energy in the final basis set =    -1389.1728909951
        RIMP2         total energy =     -1391.6989157284 a.u.

                    Orbital Energies (a.u.)
 --------------------------------------------------------------

 Alpha MOs
 -- Occupied --
-92.0013 -92.0000 -26.3331 -20.6139 -20.5538 -11.4132 -11.3733 -11.3116
-11.3048 -11.2942 -11.2895 -11.2830 -11.2646 -11.2125  -9.0036  -9.0011
 -6.6848  -6.6842  -6.6829  -6.6818  -6.6807  -6.6806  -1.6463  -1.4740
 -1.3699  -1.2342  -1.1521  -1.0687  -1.0303  -1.0009  -0.9713  -0.9056
 -0.8674  -0.7971  -0.7875  -0.7723  -0.7290  -0.7154  -0.6969  -0.6801
 -0.6751  -0.6727  -0.6088  -0.6075  -0.5985  -0.5929  -0.5658  -0.5599
 -0.5369  -0.5220  -0.5149  -0.4935  -0.4836  -0.4633  -0.4629  -0.4334
 -0.3745  -0.3431  -0.2799

          Ground-State Mulliken Net Atomic Charges

     Atom                 Charge (a.u.)
  ----------------------------------------
      1 C                    -0.117637
      2 S                     0.109112
      3 C                    -0.173430
      4 C                    -0.028965
      5 C                    -0.030967
      6 C                     0.355596
      7 C                    -0.134804
      8 S                     0.059003
      9 C                     0.456380
     10 O                    -0.443753
     11 O                    -0.297008
     12 F                    -0.211309
     13 C                    -0.054753
     14 H                     0.117089
     15 H                     0.085184
     16 H                     0.084839
     17 C                    -0.404942
     18 H                     0.131882
     19 H                     0.150252
     20 H                     0.134333
     21 H                     0.213899
  ----------------------------------------
  Sum of atomic charges =     0.000000

                    Cartesian Multipole Moments
 -----------------------------------------------------------------
    Charge (ESU x 10^10)
                -0.0000
    Dipole Moment (Debye)
         X       3.7468      Y       1.0396      Z       2.6982
       Tot       4.7328
    Quadrupole Moments (Debye-Ang)
        XX     -88.6045     XY       6.2907     YY     -91.2057
        XZ      -8.8271     YZ      -5.6440     ZZ     -93.6274

 Total job time:  54.36s(wall), 1980.30s(cpu)
        *  Thank you very much for using Q-Chem.  Have a nice day.  *
