 Q-Chem 5.4, Q-Chem, Inc., Pleasanton, CA (2021)
 Q-Chem 5.4.0 for Intel X86 EM64T Linux

User input:
--------------------------------------------------------------
$molecule
0 1
C	-0.229467	-0.806326	1.024554
S	0.005433	0.061874	2.535254
C	0.412133	1.583774	1.752154
C	0.005533	0.070974	-0.040146
C	0.363533	1.412774	0.346254
C	-0.009967	0.006374	-1.461546
C	0.317233	1.228174	-2.082346
S	0.636833	2.434074	-0.941146
C	0.387633	1.472774	-3.535446
O	0.148833	0.570274	-4.325746
O	0.722833	2.711374	-3.979846
F	-0.294567	-1.070726	-2.221746
C	0.825533	3.055274	-5.310446
H	1.112033	4.122374	-5.345746
H	-0.135867	2.909774	-5.851046
H	1.592833	2.445874	-5.837346
C	-0.229467	-2.241526	1.024554
H	-0.930067	-2.250526	0.202754
H	0.410633	-2.925426	0.486954
H	-0.947567	-2.765926	1.637554
H	0.650333	2.472474	2.346054
$end

$rem
JOBTYPE		SP
EXCHANGE	HF
CORRELATION	pRIMP2
BASIS		cc-pvtz
METHOD		rimp2
AUX_BASIS	rimp2-cc-pvtz
SOLVENT_METHOD	PCM
PURECART	11111
SYMMETRY	false
MEM_TOTAL	110000
SCF_CONVERGENCE = 6
THRESH=10
GUI = 2
$end

$solvent
dielectric 4.90
$end
--------------------------------------------------------------

             Standard Nuclear Orientation (Angstroms)
    I     Atom           X                Y                Z
 ----------------------------------------------------------------
    1      C      -0.2294670000    -0.8063260000     1.0245540000
    2      S       0.0054330000     0.0618740000     2.5352540000
    3      C       0.4121330000     1.5837740000     1.7521540000
    4      C       0.0055330000     0.0709740000    -0.0401460000
    5      C       0.3635330000     1.4127740000     0.3462540000
    6      C      -0.0099670000     0.0063740000    -1.4615460000
    7      C       0.3172330000     1.2281740000    -2.0823460000
    8      S       0.6368330000     2.4340740000    -0.9411460000
    9      C       0.3876330000     1.4727740000    -3.5354460000
   10      O       0.1488330000     0.5702740000    -4.3257460000
   11      O       0.7228330000     2.7113740000    -3.9798460000
   12      F      -0.2945670000    -1.0707260000    -2.2217460000
   13      C       0.8255330000     3.0552740000    -5.3104460000
   14      H       1.1120330000     4.1223740000    -5.3457460000
   15      H      -0.1358670000     2.9097740000    -5.8510460000
   16      H       1.5928330000     2.4458740000    -5.8373460000
   17      C      -0.2294670000    -2.2415260000     1.0245540000
   18      H      -0.9300670000    -2.2505260000     0.2027540000
   19      H       0.4106330000    -2.9254260000     0.4869540000
   20      H      -0.9475670000    -2.7659260000     1.6375540000
   21      H       0.6503330000     2.4724740000     2.3460540000
 ----------------------------------------------------------------

   11   -1389.2507074541      4.90e-07  Convergence criterion met
 Total energy in the final basis set =    -1389.2507074541
        RIMP2         total energy =     -1391.7579646708 a.u.

                    Orbital Energies (a.u.)
 --------------------------------------------------------------

 Alpha MOs
 -- Occupied --
-92.0049 -91.9903 -26.3348 -20.6104 -20.5472 -11.4078 -11.3764 -11.3102
-11.2919 -11.2912 -11.2877 -11.2816 -11.2716 -11.2293  -9.0037  -8.9944
 -6.6845  -6.6838  -6.6834  -6.6757  -6.6751  -6.6737  -1.6480  -1.4700
 -1.3650  -1.2274  -1.1455  -1.0674  -1.0269  -1.0062  -0.9683  -0.9115
 -0.8634  -0.7957  -0.7856  -0.7666  -0.7262  -0.7158  -0.6971  -0.6784
 -0.6772  -0.6685  -0.6088  -0.6042  -0.5958  -0.5877  -0.5788  -0.5660
 -0.5434  -0.5242  -0.5065  -0.4846  -0.4794  -0.4611  -0.4594  -0.4546
 -0.3928  -0.3456  -0.2785

          Ground-State Mulliken Net Atomic Charges

     Atom                 Charge (a.u.)
  ----------------------------------------
      1 C                     0.038779
      2 S                     0.085590
      3 C                    -0.257845
      4 C                    -0.104181
      5 C                    -0.011238
      6 C                     0.381549
      7 C                    -0.160167
      8 S                     0.029475
      9 C                     0.458695
     10 O                    -0.455614
     11 O                    -0.298421
     12 F                    -0.213688
     13 C                    -0.054884
     14 H                     0.116277
     15 H                     0.083907
     16 H                     0.083812
     17 C                    -0.368157
     18 H                     0.127576
     19 H                     0.160938
     20 H                     0.147809
     21 H                     0.209789
  ----------------------------------------
  Sum of atomic charges =     0.000000

                    Cartesian Multipole Moments
 -----------------------------------------------------------------
    Charge (ESU x 10^10)
                -0.0000
    Dipole Moment (Debye)
         X       0.2429      Y       0.8370      Z       3.0163
       Tot       3.1397
    Quadrupole Moments (Debye-Ang)
        XX     -95.3218     XY       3.7024     YY     -82.7435
        XZ      -3.4931     YZ     -10.5689     ZZ     -97.4326

 Total job time:  53.34s(wall), 1883.56s(cpu)
        *  Thank you very much for using Q-Chem.  Have a nice day.  *
