 Q-Chem 5.4, Q-Chem, Inc., Pleasanton, CA (2021)
 Q-Chem 5.4.0 for Intel X86 EM64T Linux

User input:
--------------------------------------------------------------
$molecule
0 1
C	-0.307055	-0.782911	1.021968
S	0.002645	0.061489	2.532668
C	0.540445	1.542189	1.749568
C	0.003545	0.070589	-0.042732
C	0.477145	1.376089	0.343668
C	-0.017555	0.007589	-1.464132
C	0.414845	1.196189	-2.084932
S	0.838445	2.369589	-0.943732
C	0.506345	1.433689	-3.538032
O	0.189845	0.555489	-4.328332
O	0.948245	2.638389	-3.982432
F	-0.394955	-1.040711	-2.224332
C	1.080445	2.971989	-5.313032
H	1.458945	4.010189	-5.348332
H	0.110045	2.910889	-5.853632
H	1.791745	2.298089	-5.839932
C	-0.307055	-2.218111	1.021968
H	0.632445	-2.227111	1.554568
H	-0.724655	-2.902011	1.746068
H	0.158045	-2.742511	0.200368
H	0.855145	2.406689	2.343468
$end

$rem
JOBTYPE		SP
EXCHANGE	HF
CORRELATION	pRIMP2
BASIS		cc-pvtz
METHOD		rimp2
AUX_BASIS	rimp2-cc-pvtz
SOLVENT_METHOD	PCM
PURECART	11111
SYMMETRY	false
MEM_TOTAL	110000
SCF_CONVERGENCE = 6
THRESH=10
GUI = 2
$end

$solvent
dielectric 4.90
$end
--------------------------------------------------------------

             Standard Nuclear Orientation (Angstroms)
    I     Atom           X                Y                Z
 ----------------------------------------------------------------
    1      C      -0.3070550000    -0.7829110000     1.0219680000
    2      S       0.0026450000     0.0614890000     2.5326680000
    3      C       0.5404450000     1.5421890000     1.7495680000
    4      C       0.0035450000     0.0705890000    -0.0427320000
    5      C       0.4771450000     1.3760890000     0.3436680000
    6      C      -0.0175550000     0.0075890000    -1.4641320000
    7      C       0.4148450000     1.1961890000    -2.0849320000
    8      S       0.8384450000     2.3695890000    -0.9437320000
    9      C       0.5063450000     1.4336890000    -3.5380320000
   10      O       0.1898450000     0.5554890000    -4.3283320000
   11      O       0.9482450000     2.6383890000    -3.9824320000
   12      F      -0.3949550000    -1.0407110000    -2.2243320000
   13      C       1.0804450000     2.9719890000    -5.3130320000
   14      H       1.4589450000     4.0101890000    -5.3483320000
   15      H       0.1100450000     2.9108890000    -5.8536320000
   16      H       1.7917450000     2.2980890000    -5.8399320000
   17      C      -0.3070550000    -2.2181110000     1.0219680000
   18      H       0.6324450000    -2.2271110000     1.5545680000
   19      H      -0.7246550000    -2.9020110000     1.7460680000
   20      H       0.1580450000    -2.7425110000     0.2003680000
   21      H       0.8551450000     2.4066890000     2.3434680000
 ----------------------------------------------------------------

   11   -1389.2489301875      4.43e-07  Convergence criterion met
 Total energy in the final basis set =    -1389.2489301875
        RIMP2         total energy =     -1391.7530612764 a.u.

                    Orbital Energies (a.u.)
 --------------------------------------------------------------

 Alpha MOs
 -- Occupied --
-92.0037 -91.9882 -26.3338 -20.6097 -20.5459 -11.4066 -11.3765 -11.3163
-11.2911 -11.2889 -11.2873 -11.2790 -11.2690 -11.2336  -9.0030  -8.9925
 -6.6838  -6.6832  -6.6827  -6.6738  -6.6731  -6.6717  -1.6467  -1.4692
 -1.3640  -1.2271  -1.1482  -1.0668  -1.0283  -1.0053  -0.9678  -0.9097
 -0.8632  -0.7963  -0.7843  -0.7669  -0.7262  -0.7145  -0.6958  -0.6768
 -0.6765  -0.6674  -0.6100  -0.6033  -0.5996  -0.5863  -0.5789  -0.5608
 -0.5389  -0.5255  -0.5144  -0.4917  -0.4786  -0.4606  -0.4580  -0.4559
 -0.3925  -0.3465  -0.2738

          Ground-State Mulliken Net Atomic Charges

     Atom                 Charge (a.u.)
  ----------------------------------------
      1 C                     0.065996
      2 S                     0.076951
      3 C                    -0.265078
      4 C                    -0.123187
      5 C                    -0.011354
      6 C                     0.383692
      7 C                    -0.167215
      8 S                     0.025468
      9 C                     0.459030
     10 O                    -0.456872
     11 O                    -0.298792
     12 F                    -0.211640
     13 C                    -0.054791
     14 H                     0.116018
     15 H                     0.083845
     16 H                     0.083524
     17 C                    -0.374883
     18 H                     0.147537
     19 H                     0.163634
     20 H                     0.148048
     21 H                     0.210072
  ----------------------------------------
  Sum of atomic charges =     0.000000

                    Cartesian Multipole Moments
 -----------------------------------------------------------------
    Charge (ESU x 10^10)
                -0.0000
    Dipole Moment (Debye)
         X       1.4825      Y       0.3433      Z       3.9510
       Tot       4.2339
    Quadrupole Moments (Debye-Ang)
        XX     -95.7794     XY       1.7984     YY     -83.1666
        XZ      -3.3405     YZ     -12.7118     ZZ     -95.9692

 Total job time:  55.23s(wall), 1966.40s(cpu)
        *  Thank you very much for using Q-Chem.  Have a nice day.  *
