 Q-Chem 5.4, Q-Chem, Inc., Pleasanton, CA (2021)
 Q-Chem 5.4.0 for Intel X86 EM64T Linux

User input:
--------------------------------------------------------------
$molecule
0 1
C	-0.078792	-0.833466	1.025267
S	0.001808	0.062334	2.535967
C	0.138008	1.631734	1.752867
C	0.000308	0.071334	-0.039433
C	0.119908	1.454934	0.346967
C	-0.003792	0.005034	-1.460833
C	0.106308	1.265034	-2.081633
S	0.211708	2.508134	-0.940433
C	0.133108	1.518134	-3.534733
O	0.054708	0.587934	-4.325033
O	0.248208	2.796134	-3.979133
F	-0.096992	-1.105166	-2.221033
C	0.289608	3.152634	-5.309733
H	0.386508	4.253334	-5.345033
H	-0.631892	2.842434	-5.850333
H	1.151108	2.685834	-5.836633
C	-0.078792	-2.268666	1.025267
H	-0.087292	-2.277666	-0.054633
H	0.757108	-2.952566	1.024867
H	-1.022892	-2.793066	1.033267
H	0.218308	2.548234	2.346767
$end

$rem
JOBTYPE		SP
EXCHANGE	HF
CORRELATION	pRIMP2
BASIS		cc-pvtz
METHOD		rimp2
AUX_BASIS	rimp2-cc-pvtz
SOLVENT_METHOD	PCM
PURECART	11111
SYMMETRY	false
MEM_TOTAL	110000
SCF_CONVERGENCE = 6
THRESH=10
GUI = 2
$end

$solvent
dielectric 4.90
$end
--------------------------------------------------------------

             Standard Nuclear Orientation (Angstroms)
    I     Atom           X                Y                Z
 ----------------------------------------------------------------
    1      C      -0.0787920000    -0.8334660000     1.0252670000
    2      S       0.0018080000     0.0623340000     2.5359670000
    3      C       0.1380080000     1.6317340000     1.7528670000
    4      C       0.0003080000     0.0713340000    -0.0394330000
    5      C       0.1199080000     1.4549340000     0.3469670000
    6      C      -0.0037920000     0.0050340000    -1.4608330000
    7      C       0.1063080000     1.2650340000    -2.0816330000
    8      S       0.2117080000     2.5081340000    -0.9404330000
    9      C       0.1331080000     1.5181340000    -3.5347330000
   10      O       0.0547080000     0.5879340000    -4.3250330000
   11      O       0.2482080000     2.7961340000    -3.9791330000
   12      F      -0.0969920000    -1.1051660000    -2.2210330000
   13      C       0.2896080000     3.1526340000    -5.3097330000
   14      H       0.3865080000     4.2533340000    -5.3450330000
   15      H      -0.6318920000     2.8424340000    -5.8503330000
   16      H       1.1511080000     2.6858340000    -5.8366330000
   17      C      -0.0787920000    -2.2686660000     1.0252670000
   18      H      -0.0872920000    -2.2776660000    -0.0546330000
   19      H       0.7571080000    -2.9525660000     1.0248670000
   20      H      -1.0228920000    -2.7930660000     1.0332670000
   21      H       0.2183080000     2.5482340000     2.3467670000
 ----------------------------------------------------------------

   11   -1389.2539703868      5.03e-07  Convergence criterion met
 Total energy in the final basis set =    -1389.2539703868
        RIMP2         total energy =     -1391.7613817712 a.u.

                    Orbital Energies (a.u.)
 --------------------------------------------------------------

 Alpha MOs
 -- Occupied --
-92.0037 -91.9910 -26.3358 -20.6111 -20.5484 -11.4088 -11.3768 -11.3082
-11.2934 -11.2916 -11.2881 -11.2842 -11.2743 -11.2274  -9.0026  -8.9951
 -6.6834  -6.6827  -6.6824  -6.6764  -6.6758  -6.6744  -1.6492  -1.4708
 -1.3660  -1.2282  -1.1451  -1.0679  -1.0271  -1.0063  -0.9688  -0.9117
 -0.8639  -0.7961  -0.7868  -0.7673  -0.7269  -0.7169  -0.6975  -0.6785
 -0.6778  -0.6696  -0.6086  -0.6049  -0.5981  -0.5883  -0.5784  -0.5702
 -0.5447  -0.5249  -0.5047  -0.4814  -0.4710  -0.4634  -0.4606  -0.4525
 -0.3980  -0.3452  -0.2830

          Ground-State Mulliken Net Atomic Charges

     Atom                 Charge (a.u.)
  ----------------------------------------
      1 C                     0.044231
      2 S                     0.081244
      3 C                    -0.250559
      4 C                    -0.101749
      5 C                    -0.011837
      6 C                     0.376769
      7 C                    -0.143870
      8 S                     0.030352
      9 C                     0.458041
     10 O                    -0.453857
     11 O                    -0.298089
     12 F                    -0.214429
     13 C                    -0.055083
     14 H                     0.116524
     15 H                     0.084153
     16 H                     0.084028
     17 C                    -0.364307
     18 H                     0.114137
     19 H                     0.153817
     20 H                     0.139926
     21 H                     0.210559
  ----------------------------------------
  Sum of atomic charges =     0.000000

                    Cartesian Multipole Moments
 -----------------------------------------------------------------
    Charge (ESU x 10^10)
                -0.0000
    Dipole Moment (Debye)
         X       0.2376      Y       1.1753      Z       2.7488
       Tot       2.9989
    Quadrupole Moments (Debye-Ang)
        XX     -95.7655     XY       0.8716     YY     -82.1622
        XZ      -0.9362     YZ     -10.5029     ZZ     -97.6291

 Total job time:  56.45s(wall), 2099.13s(cpu)
        *  Thank you very much for using Q-Chem.  Have a nice day.  *
