 Q-Chem 5.4, Q-Chem, Inc., Pleasanton, CA (2021)
 Q-Chem 5.4.0 for Intel X86 EM64T Linux

User input:
--------------------------------------------------------------
$molecule
0 1
C	-0.682422	-0.518946	1.021968
S	0.007978	0.057454	2.532668
C	1.214078	1.070954	1.749568
C	0.013278	0.064854	-0.042732
C	1.076178	0.958754	0.343668
C	-0.036522	0.020954	-1.464132
C	0.932378	0.834054	-2.084932
S	1.885878	1.638454	-0.943732
C	1.130278	0.994054	-3.538032
O	0.417078	0.391754	-4.328332
O	2.115378	1.816354	-3.982432
F	-0.887422	-0.698246	-2.224332
C	2.396678	2.039154	-5.313032
H	3.243478	2.748954	-5.348332
H	1.525678	2.471454	-5.853632
H	2.675678	1.099854	-5.839932
C	-0.682422	-1.954146	1.021968
H	0.257078	-1.963146	1.554568
H	-1.100022	-2.638046	1.746068
H	-0.217322	-2.478546	0.200368
H	1.918878	1.662254	2.343468
$end

$rem
JOBTYPE		SP
EXCHANGE	HF
CORRELATION	pRIMP2
BASIS		cc-pvtz
METHOD		rimp2
AUX_BASIS	rimp2-cc-pvtz
SOLVENT_METHOD	PCM
PURECART	11111
SYMMETRY	false
MEM_TOTAL	110000
SCF_CONVERGENCE = 6
THRESH=10
GUI = 2
$end

$solvent
dielectric 4.90
$end
--------------------------------------------------------------

             Standard Nuclear Orientation (Angstroms)
    I     Atom           X                Y                Z
 ----------------------------------------------------------------
    1      C      -0.6824220000    -0.5189460000     1.0219680000
    2      S       0.0079780000     0.0574540000     2.5326680000
    3      C       1.2140780000     1.0709540000     1.7495680000
    4      C       0.0132780000     0.0648540000    -0.0427320000
    5      C       1.0761780000     0.9587540000     0.3436680000
    6      C      -0.0365220000     0.0209540000    -1.4641320000
    7      C       0.9323780000     0.8340540000    -2.0849320000
    8      S       1.8858780000     1.6384540000    -0.9437320000
    9      C       1.1302780000     0.9940540000    -3.5380320000
   10      O       0.4170780000     0.3917540000    -4.3283320000
   11      O       2.1153780000     1.8163540000    -3.9824320000
   12      F      -0.8874220000    -0.6982460000    -2.2243320000
   13      C       2.3966780000     2.0391540000    -5.3130320000
   14      H       3.2434780000     2.7489540000    -5.3483320000
   15      H       1.5256780000     2.4714540000    -5.8536320000
   16      H       2.6756780000     1.0998540000    -5.8399320000
   17      C      -0.6824220000    -1.9541460000     1.0219680000
   18      H       0.2570780000    -1.9631460000     1.5545680000
   19      H      -1.1000220000    -2.6380460000     1.7460680000
   20      H      -0.2173220000    -2.4785460000     0.2003680000
   21      H       1.9188780000     1.6622540000     2.3434680000
 ----------------------------------------------------------------

   11   -1389.2015728708      6.56e-07  Convergence criterion met
 Total energy in the final basis set =    -1389.2015728708
        RIMP2         total energy =     -1391.7193720092 a.u.

                    Orbital Energies (a.u.)
 --------------------------------------------------------------

 Alpha MOs
 -- Occupied --
-91.9991 -91.9940 -26.3338 -20.6124 -20.5508 -11.4108 -11.3759 -11.2989
-11.2985 -11.2940 -11.2934 -11.2887 -11.2775 -11.2246  -8.9995  -8.9980
 -6.6802  -6.6794  -6.6793  -6.6791  -6.6786  -6.6773  -1.6467  -1.4722
 -1.3677  -1.2331  -1.1551  -1.0687  -1.0310  -1.0019  -0.9705  -0.9043
 -0.8667  -0.7981  -0.7864  -0.7714  -0.7286  -0.7152  -0.6964  -0.6788
 -0.6761  -0.6709  -0.6095  -0.6067  -0.6037  -0.5910  -0.5677  -0.5616
 -0.5386  -0.5277  -0.5171  -0.4924  -0.4814  -0.4619  -0.4611  -0.4419
 -0.3900  -0.3452  -0.2766

          Ground-State Mulliken Net Atomic Charges

     Atom                 Charge (a.u.)
  ----------------------------------------
      1 C                    -0.004487
      2 S                     0.079525
      3 C                    -0.213163
      4 C                    -0.084176
      5 C                    -0.021500
      6 C                     0.363114
      7 C                    -0.149416
      8 S                     0.040439
      9 C                     0.457392
     10 O                    -0.448730
     11 O                    -0.297712
     12 F                    -0.209565
     13 C                    -0.054586
     14 H                     0.116690
     15 H                     0.084641
     16 H                     0.084375
     17 C                    -0.376103
     18 H                     0.132621
     19 H                     0.150200
     20 H                     0.137399
     21 H                     0.213041
  ----------------------------------------
  Sum of atomic charges =     0.000000

                    Cartesian Multipole Moments
 -----------------------------------------------------------------
    Charge (ESU x 10^10)
                -0.0000
    Dipole Moment (Debye)
         X       3.4627      Y       0.7244      Z       3.3815
       Tot       4.8938
    Quadrupole Moments (Debye-Ang)
        XX     -91.8566     XY       4.4261     YY     -88.8923
        XZ      -7.4390     YZ      -8.7910     ZZ     -94.3346

 Total job time:  77.12s(wall), 2026.15s(cpu)
        *  Thank you very much for using Q-Chem.  Have a nice day.  *
