 Q-Chem 5.4, Q-Chem, Inc., Pleasanton, CA (2021)
 Q-Chem 5.4.0 for Intel X86 EM64T Linux

User input:
--------------------------------------------------------------
$molecule
0 1
C	-0.378397	-0.753180	1.023963
S	0.003703	0.061020	2.534663
C	0.668503	1.489220	1.751563
C	0.005403	0.069920	-0.040737
C	0.591003	1.329320	0.345663
C	-0.021197	0.009120	-1.462137
C	0.513303	1.155520	-2.082937
S	1.037503	2.287520	-0.941737
C	0.625103	1.384120	-3.536037
O	0.233203	0.536820	-4.326337
O	1.170303	2.545720	-3.980437
F	-0.488497	-1.002280	-2.222337
C	1.331103	2.866520	-5.311037
H	1.798603	3.867720	-5.346337
H	0.359003	2.890220	-5.851637
H	1.981003	2.133220	-5.837937
C	-0.378397	-2.188380	1.023963
H	0.633503	-2.197380	0.646663
H	-0.092197	-2.872280	1.809263
H	-0.708797	-2.712780	0.139563
H	1.057403	2.323020	2.345463
$end

$rem
JOBTYPE		SP
EXCHANGE	HF
CORRELATION	pRIMP2
BASIS		cc-pvtz
METHOD		rimp2
AUX_BASIS	rimp2-cc-pvtz
SOLVENT_METHOD	PCM
PURECART	11111
SYMMETRY	false
MEM_TOTAL	110000
SCF_CONVERGENCE = 6
THRESH=10
GUI = 2
$end

$solvent
dielectric 4.90
$end
--------------------------------------------------------------

             Standard Nuclear Orientation (Angstroms)
    I     Atom           X                Y                Z
 ----------------------------------------------------------------
    1      C      -0.3783970000    -0.7531800000     1.0239630000
    2      S       0.0037030000     0.0610200000     2.5346630000
    3      C       0.6685030000     1.4892200000     1.7515630000
    4      C       0.0054030000     0.0699200000    -0.0407370000
    5      C       0.5910030000     1.3293200000     0.3456630000
    6      C      -0.0211970000     0.0091200000    -1.4621370000
    7      C       0.5133030000     1.1555200000    -2.0829370000
    8      S       1.0375030000     2.2875200000    -0.9417370000
    9      C       0.6251030000     1.3841200000    -3.5360370000
   10      O       0.2332030000     0.5368200000    -4.3263370000
   11      O       1.1703030000     2.5457200000    -3.9804370000
   12      F      -0.4884970000    -1.0022800000    -2.2223370000
   13      C       1.3311030000     2.8665200000    -5.3110370000
   14      H       1.7986030000     3.8677200000    -5.3463370000
   15      H       0.3590030000     2.8902200000    -5.8516370000
   16      H       1.9810030000     2.1332200000    -5.8379370000
   17      C      -0.3783970000    -2.1883800000     1.0239630000
   18      H       0.6335030000    -2.1973800000     0.6466630000
   19      H      -0.0921970000    -2.8722800000     1.8092630000
   20      H      -0.7087970000    -2.7127800000     0.1395630000
   21      H       1.0574030000     2.3230200000     2.3454630000
 ----------------------------------------------------------------

   11   -1389.2453325942      4.64e-07  Convergence criterion met
 Total energy in the final basis set =    -1389.2453325942
        RIMP2         total energy =     -1391.7518379304 a.u.

                    Orbital Energies (a.u.)
 --------------------------------------------------------------

 Alpha MOs
 -- Occupied --
-92.0072 -91.9893 -26.3346 -20.6094 -20.5454 -11.4063 -11.3764 -11.3175
-11.2925 -11.2879 -11.2873 -11.2768 -11.2669 -11.2347  -9.0059  -8.9935
 -6.6867  -6.6860  -6.6856  -6.6748  -6.6741  -6.6728  -1.6475  -1.4689
 -1.3637  -1.2275  -1.1485  -1.0682  -1.0266  -1.0055  -0.9678  -0.9099
 -0.8628  -0.7956  -0.7848  -0.7662  -0.7260  -0.7153  -0.6966  -0.6775
 -0.6764  -0.6676  -0.6098  -0.6030  -0.5976  -0.5892  -0.5853  -0.5607
 -0.5332  -0.5236  -0.5117  -0.4947  -0.4786  -0.4631  -0.4589  -0.4568
 -0.3885  -0.3467  -0.2730

          Ground-State Mulliken Net Atomic Charges

     Atom                 Charge (a.u.)
  ----------------------------------------
      1 C                     0.043519
      2 S                     0.091740
      3 C                    -0.274614
      4 C                    -0.099542
      5 C                    -0.006847
      6 C                     0.373730
      7 C                    -0.169908
      8 S                     0.030522
      9 C                     0.458080
     10 O                    -0.458284
     11 O                    -0.299120
     12 F                    -0.212160
     13 C                    -0.054776
     14 H                     0.115976
     15 H                     0.083670
     16 H                     0.083423
     17 C                    -0.381229
     18 H                     0.151285
     19 H                     0.170315
     20 H                     0.145046
     21 H                     0.209172
  ----------------------------------------
  Sum of atomic charges =     0.000000

                    Cartesian Multipole Moments
 -----------------------------------------------------------------
    Charge (ESU x 10^10)
                -0.0000
    Dipole Moment (Debye)
         X       1.6778      Y       0.2151      Z       3.4931
       Tot       3.8811
    Quadrupole Moments (Debye-Ang)
        XX     -95.4523     XY       2.3017     YY     -83.7841
        XZ      -3.6107     YZ     -10.9859     ZZ     -97.1439

 Total job time:  53.36s(wall), 1924.30s(cpu)
        *  Thank you very much for using Q-Chem.  Have a nice day.  *
