 Q-Chem 5.4, Q-Chem, Inc., Pleasanton, CA (2021)
 Q-Chem 5.4.0 for Intel X86 EM64T Linux

User input:
--------------------------------------------------------------
$molecule
0 1
C	-0.155965	-0.823218	1.020573
S	0.002435	0.062182	2.531273
C	0.274935	1.613782	1.748173
C	0.001735	0.071182	-0.044127
C	0.241435	1.439182	0.342273
C	-0.008165	0.005582	-1.465527
C	0.211335	1.251182	-2.086327
S	0.424635	2.480282	-0.945127
C	0.260135	1.500982	-3.539427
O	0.100935	0.581182	-4.329727
O	0.486135	2.764082	-3.983827
F	-0.197765	-1.092318	-2.225727
C	0.558435	3.115582	-5.314427
H	0.750835	4.203682	-5.349727
H	-0.386665	2.886882	-5.855027
H	1.375935	2.575482	-5.841327
C	-0.155965	-2.258418	1.020573
H	-0.147465	-2.267418	2.100473
H	-0.991865	-2.942318	1.020973
H	0.788135	-2.782818	1.012573
H	0.434735	2.519782	2.342073
$end

$rem
JOBTYPE		SP
EXCHANGE	HF
CORRELATION	pRIMP2
BASIS		cc-pvtz
METHOD		rimp2
AUX_BASIS	rimp2-cc-pvtz
SOLVENT_METHOD	PCM
PURECART	11111
SYMMETRY	false
MEM_TOTAL	110000
SCF_CONVERGENCE = 6
THRESH=10
GUI = 2
$end

$solvent
dielectric 4.90
$end
--------------------------------------------------------------

             Standard Nuclear Orientation (Angstroms)
    I     Atom           X                Y                Z
 ----------------------------------------------------------------
    1      C      -0.1559650000    -0.8232180000     1.0205730000
    2      S       0.0024350000     0.0621820000     2.5312730000
    3      C       0.2749350000     1.6137820000     1.7481730000
    4      C       0.0017350000     0.0711820000    -0.0441270000
    5      C       0.2414350000     1.4391820000     0.3422730000
    6      C      -0.0081650000     0.0055820000    -1.4655270000
    7      C       0.2113350000     1.2511820000    -2.0863270000
    8      S       0.4246350000     2.4802820000    -0.9451270000
    9      C       0.2601350000     1.5009820000    -3.5394270000
   10      O       0.1009350000     0.5811820000    -4.3297270000
   11      O       0.4861350000     2.7640820000    -3.9838270000
   12      F      -0.1977650000    -1.0923180000    -2.2257270000
   13      C       0.5584350000     3.1155820000    -5.3144270000
   14      H       0.7508350000     4.2036820000    -5.3497270000
   15      H      -0.3866650000     2.8868820000    -5.8550270000
   16      H       1.3759350000     2.5754820000    -5.8413270000
   17      C      -0.1559650000    -2.2584180000     1.0205730000
   18      H      -0.1474650000    -2.2674180000     2.1004730000
   19      H      -0.9918650000    -2.9423180000     1.0209730000
   20      H       0.7881350000    -2.7828180000     1.0125730000
   21      H       0.4347350000     2.5197820000     2.3420730000
 ----------------------------------------------------------------

   11   -1389.2505126021      4.91e-07  Convergence criterion met
 Total energy in the final basis set =    -1389.2505126021
        RIMP2         total energy =     -1391.7573219519 a.u.

                    Orbital Energies (a.u.)
 --------------------------------------------------------------

 Alpha MOs
 -- Occupied --
-92.0100 -91.9901 -26.3329 -20.6104 -20.5475 -11.4078 -11.3749 -11.3062
-11.2919 -11.2915 -11.2876 -11.2846 -11.2691 -11.2281  -9.0086  -8.9943
 -6.6893  -6.6887  -6.6883  -6.6756  -6.6749  -6.6735  -1.6458  -1.4700
 -1.3651  -1.2269  -1.1469  -1.0650  -1.0299  -1.0052  -0.9685  -0.9098
 -0.8645  -0.7967  -0.7841  -0.7679  -0.7263  -0.7139  -0.6955  -0.6771
 -0.6761  -0.6680  -0.6090  -0.6043  -0.5972  -0.5874  -0.5729  -0.5702
 -0.5442  -0.5248  -0.5048  -0.4811  -0.4722  -0.4642  -0.4600  -0.4580
 -0.3960  -0.3462  -0.2827

          Ground-State Mulliken Net Atomic Charges

     Atom                 Charge (a.u.)
  ----------------------------------------
      1 C                     0.043718
      2 S                     0.084846
      3 C                    -0.255667
      4 C                    -0.092985
      5 C                    -0.008346
      6 C                     0.384901
      7 C                    -0.162057
      8 S                     0.030380
      9 C                     0.458355
     10 O                    -0.454083
     11 O                    -0.298330
     12 F                    -0.213302
     13 C                    -0.054935
     14 H                     0.116195
     15 H                     0.083999
     16 H                     0.083940
     17 C                    -0.363763
     18 H                     0.111109
     19 H                     0.155083
     20 H                     0.138490
     21 H                     0.212454
  ----------------------------------------
  Sum of atomic charges =     0.000000

                    Cartesian Multipole Moments
 -----------------------------------------------------------------
    Charge (ESU x 10^10)
                -0.0000
    Dipole Moment (Debye)
         X       0.5367      Y       1.2019      Z       4.1498
       Tot       4.3535
    Quadrupole Moments (Debye-Ang)
        XX     -95.5796     XY       1.8340     YY     -82.6625
        XZ      -1.9153     YZ     -13.2584     ZZ     -94.8722

 Total job time:  55.09s(wall), 1980.71s(cpu)
        *  Thank you very much for using Q-Chem.  Have a nice day.  *
