 Q-Chem 5.4, Q-Chem, Inc., Pleasanton, CA (2021)
 Q-Chem 5.4.0 for Intel X86 EM64T Linux

User input:
--------------------------------------------------------------
$molecule
0 1
C	-0.003501	-0.836989	1.021287
S	-0.001301	0.062411	2.531987
C	-0.002301	1.637711	1.748887
C	-0.003501	0.071211	-0.043413
C	-0.005001	1.460011	0.342987
C	-0.001901	0.004811	-1.464813
C	-0.002001	1.269711	-2.085613
S	-0.005301	2.517211	-0.944413
C	0.002699	1.524111	-3.538713
O	0.005699	0.590611	-4.329013
O	0.005899	2.807311	-3.983113
F	0.001999	-1.109289	-2.225013
C	0.016099	3.166011	-5.313713
H	0.016699	4.271011	-5.349013
H	-0.874901	2.776711	-5.854313
H	0.914999	2.776111	-5.840613
C	-0.003501	-2.272189	1.021287
H	0.697099	-2.281189	1.843087
H	-0.643601	-2.956089	1.558887
H	0.714599	-2.796589	0.408287
H	-0.002301	2.557811	2.342787
$end

$rem
JOBTYPE		SP
EXCHANGE	HF
CORRELATION	pRIMP2
BASIS		cc-pvtz
METHOD		rimp2
AUX_BASIS	rimp2-cc-pvtz
SOLVENT_METHOD	PCM
PURECART	11111
SYMMETRY	false
MEM_TOTAL	110000
SCF_CONVERGENCE = 6
THRESH=10
GUI = 2
$end

$solvent
dielectric 4.90
$end
--------------------------------------------------------------

             Standard Nuclear Orientation (Angstroms)
    I     Atom           X                Y                Z
 ----------------------------------------------------------------
    1      C      -0.0035010000    -0.8369890000     1.0212870000
    2      S      -0.0013010000     0.0624110000     2.5319870000
    3      C      -0.0023010000     1.6377110000     1.7488870000
    4      C      -0.0035010000     0.0712110000    -0.0434130000
    5      C      -0.0050010000     1.4600110000     0.3429870000
    6      C      -0.0019010000     0.0048110000    -1.4648130000
    7      C      -0.0020010000     1.2697110000    -2.0856130000
    8      S      -0.0053010000     2.5172110000    -0.9444130000
    9      C       0.0026990000     1.5241110000    -3.5387130000
   10      O       0.0056990000     0.5906110000    -4.3290130000
   11      O       0.0058990000     2.8073110000    -3.9831130000
   12      F       0.0019990000    -1.1092890000    -2.2250130000
   13      C       0.0160990000     3.1660110000    -5.3137130000
   14      H       0.0166990000     4.2710110000    -5.3490130000
   15      H      -0.8749010000     2.7767110000    -5.8543130000
   16      H       0.9149990000     2.7761110000    -5.8406130000
   17      C      -0.0035010000    -2.2721890000     1.0212870000
   18      H       0.6970990000    -2.2811890000     1.8430870000
   19      H      -0.6436010000    -2.9560890000     1.5588870000
   20      H       0.7145990000    -2.7965890000     0.4082870000
   21      H      -0.0023010000     2.5578110000     2.3427870000
 ----------------------------------------------------------------

   11   -1389.2540103246      4.54e-07  Convergence criterion met
 Total energy in the final basis set =    -1389.2540103246
        RIMP2         total energy =     -1391.7582183632 a.u.

                    Orbital Energies (a.u.)
 --------------------------------------------------------------

 Alpha MOs
 -- Occupied --
-92.0071 -91.9886 -26.3333 -20.6099 -20.5463 -11.4069 -11.3758 -11.3131
-11.2911 -11.2896 -11.2873 -11.2804 -11.2686 -11.2310  -9.0059  -8.9929
 -6.6867  -6.6862  -6.6856  -6.6742  -6.6735  -6.6721  -1.6462  -1.4694
 -1.3643  -1.2264  -1.1466  -1.0657  -1.0288  -1.0058  -0.9679  -0.9106
 -0.8635  -0.7963  -0.7840  -0.7669  -0.7260  -0.7141  -0.6956  -0.6766
 -0.6763  -0.6674  -0.6094  -0.6035  -0.5973  -0.5865  -0.5811  -0.5626
 -0.5408  -0.5247  -0.5080  -0.4858  -0.4792  -0.4619  -0.4590  -0.4570
 -0.3938  -0.3464  -0.2776

          Ground-State Mulliken Net Atomic Charges

     Atom                 Charge (a.u.)
  ----------------------------------------
      1 C                     0.037230
      2 S                     0.079747
      3 C                    -0.261591
      4 C                    -0.083173
      5 C                    -0.014708
      6 C                     0.396224
      7 C                    -0.166722
      8 S                     0.024576
      9 C                     0.459880
     10 O                    -0.456443
     11 O                    -0.298615
     12 F                    -0.213691
     13 C                    -0.055011
     14 H                     0.116084
     15 H                     0.083868
     16 H                     0.083699
     17 C                    -0.373408
     18 H                     0.126679
     19 H                     0.157026
     20 H                     0.147228
     21 H                     0.211121
  ----------------------------------------
  Sum of atomic charges =     0.000000

                    Cartesian Multipole Moments
 -----------------------------------------------------------------
    Charge (ESU x 10^10)
                -0.0000
    Dipole Moment (Debye)
         X       0.4745      Y       0.7448      Z       4.1174
       Tot       4.2110
    Quadrupole Moments (Debye-Ang)
        XX     -96.1884     XY      -1.0413     YY     -82.0668
        XZ       0.1101     YZ     -13.5484     ZZ     -95.4713

 Total job time:  54.31s(wall), 1975.02s(cpu)
        *  Thank you very much for using Q-Chem.  Have a nice day.  *
