 Q-Chem 5.4, Q-Chem, Inc., Pleasanton, CA (2021)
 Q-Chem 5.4.0 for Intel X86 EM64T Linux

User input:
--------------------------------------------------------------
$molecule
0 1
C	-0.378439	-0.753180	1.021968
S	0.003661	0.061020	2.532668
C	0.668461	1.489220	1.749568
C	0.005361	0.069920	-0.042732
C	0.590961	1.329320	0.343668
C	-0.021239	0.009120	-1.464132
C	0.513261	1.155520	-2.084932
S	1.037461	2.287520	-0.943732
C	0.625061	1.384120	-3.538032
O	0.233161	0.536820	-4.328332
O	1.170261	2.545720	-3.982432
F	-0.488539	-1.002280	-2.224332
C	1.331061	2.866520	-5.313032
H	1.798561	3.867720	-5.348332
H	0.358961	2.890220	-5.853632
H	1.980961	2.133220	-5.839932
C	-0.378439	-2.188380	1.021968
H	0.561061	-2.197380	1.554568
H	-0.796039	-2.872280	1.746068
H	0.086661	-2.712780	0.200368
H	1.057361	2.323020	2.343468
$end

$rem
JOBTYPE		SP
EXCHANGE	HF
CORRELATION	pRIMP2
BASIS		cc-pvtz
METHOD		rimp2
AUX_BASIS	rimp2-cc-pvtz
SOLVENT_METHOD	PCM
PURECART	11111
SYMMETRY	false
MEM_TOTAL	110000
SCF_CONVERGENCE = 6
THRESH=10
GUI = 2
$end

$solvent
dielectric 4.90
$end
--------------------------------------------------------------

             Standard Nuclear Orientation (Angstroms)
    I     Atom           X                Y                Z
 ----------------------------------------------------------------
    1      C      -0.3784390000    -0.7531800000     1.0219680000
    2      S       0.0036610000     0.0610200000     2.5326680000
    3      C       0.6684610000     1.4892200000     1.7495680000
    4      C       0.0053610000     0.0699200000    -0.0427320000
    5      C       0.5909610000     1.3293200000     0.3436680000
    6      C      -0.0212390000     0.0091200000    -1.4641320000
    7      C       0.5132610000     1.1555200000    -2.0849320000
    8      S       1.0374610000     2.2875200000    -0.9437320000
    9      C       0.6250610000     1.3841200000    -3.5380320000
   10      O       0.2331610000     0.5368200000    -4.3283320000
   11      O       1.1702610000     2.5457200000    -3.9824320000
   12      F      -0.4885390000    -1.0022800000    -2.2243320000
   13      C       1.3310610000     2.8665200000    -5.3130320000
   14      H       1.7985610000     3.8677200000    -5.3483320000
   15      H       0.3589610000     2.8902200000    -5.8536320000
   16      H       1.9809610000     2.1332200000    -5.8399320000
   17      C      -0.3784390000    -2.1883800000     1.0219680000
   18      H       0.5610610000    -2.1973800000     1.5545680000
   19      H      -0.7960390000    -2.8722800000     1.7460680000
   20      H       0.0866610000    -2.7127800000     0.2003680000
   21      H       1.0573610000     2.3230200000     2.3434680000
 ----------------------------------------------------------------

   11   -1389.2442491632      4.60e-07  Convergence criterion met
 Total energy in the final basis set =    -1389.2442491632
        RIMP2         total energy =     -1391.7497794890 a.u.

                    Orbital Energies (a.u.)
 --------------------------------------------------------------

 Alpha MOs
 -- Occupied --
-92.0030 -91.9887 -26.3338 -20.6099 -20.5464 -11.4070 -11.3765 -11.3144
-11.2913 -11.2898 -11.2874 -11.2807 -11.2698 -11.2327  -9.0024  -8.9929
 -6.6833  -6.6826  -6.6821  -6.6742  -6.6736  -6.6722  -1.6467  -1.4694
 -1.3643  -1.2276  -1.1489  -1.0668  -1.0285  -1.0048  -0.9681  -0.9091
 -0.8635  -0.7964  -0.7845  -0.7673  -0.7264  -0.7146  -0.6958  -0.6768
 -0.6766  -0.6677  -0.6098  -0.6036  -0.6002  -0.5868  -0.5772  -0.5609
 -0.5392  -0.5257  -0.5146  -0.4917  -0.4788  -0.4604  -0.4580  -0.4549
 -0.3924  -0.3464  -0.2739

          Ground-State Mulliken Net Atomic Charges

     Atom                 Charge (a.u.)
  ----------------------------------------
      1 C                     0.067036
      2 S                     0.076640
      3 C                    -0.260745
      4 C                    -0.127121
      5 C                    -0.010305
      6 C                     0.378275
      7 C                    -0.165525
      8 S                     0.027153
      9 C                     0.458623
     10 O                    -0.456131
     11 O                    -0.298698
     12 F                    -0.210977
     13 C                    -0.054760
     14 H                     0.116115
     15 H                     0.083863
     16 H                     0.083637
     17 C                    -0.374740
     18 H                     0.147923
     19 H                     0.162156
     20 H                     0.147435
     21 H                     0.210145
  ----------------------------------------
  Sum of atomic charges =     0.000000

                    Cartesian Multipole Moments
 -----------------------------------------------------------------
    Charge (ESU x 10^10)
                -0.0000
    Dipole Moment (Debye)
         X       1.7210      Y       0.3875      Z       3.8959
       Tot       4.2767
    Quadrupole Moments (Debye-Ang)
        XX     -95.3178     XY       2.4851     YY     -83.8884
        XZ      -4.1956     YZ     -12.2720     ZZ     -95.8382

 Total job time:  53.48s(wall), 1912.89s(cpu)
        *  Thank you very much for using Q-Chem.  Have a nice day.  *
