 Q-Chem 5.4, Q-Chem, Inc., Pleasanton, CA (2021)
 Q-Chem 5.4.0 for Intel X86 EM64T Linux

User input:
--------------------------------------------------------------
$molecule
0 1
C	-0.158002	-0.823218	1.022358
S	0.000398	0.062182	2.533058
C	0.272898	1.613782	1.749958
C	-0.000302	0.071182	-0.042342
C	0.239398	1.439182	0.344058
C	-0.010202	0.005582	-1.463742
C	0.209298	1.251182	-2.084542
S	0.422598	2.480282	-0.943342
C	0.258098	1.500982	-3.537642
O	0.098898	0.581182	-4.327942
O	0.484098	2.764082	-3.982042
F	-0.199802	-1.092318	-2.223942
C	0.556398	3.115582	-5.312642
H	0.748798	4.203682	-5.347942
H	-0.388702	2.886882	-5.853242
H	1.373898	2.575482	-5.839542
C	-0.158002	-2.258418	1.022358
H	0.859698	-2.267418	1.383758
H	-0.443502	-2.942318	1.807958
H	0.157398	-2.782818	0.132458
H	0.432698	2.519782	2.343858
$end

$rem
JOBTYPE		SP
EXCHANGE	HF
CORRELATION	pRIMP2
BASIS		cc-pvtz
METHOD		rimp2
AUX_BASIS	rimp2-cc-pvtz
SOLVENT_METHOD	PCM
PURECART	11111
SYMMETRY	false
MEM_TOTAL	110000
SCF_CONVERGENCE = 6
THRESH=10
GUI = 2
$end

$solvent
dielectric 4.90
$end
--------------------------------------------------------------

             Standard Nuclear Orientation (Angstroms)
    I     Atom           X                Y                Z
 ----------------------------------------------------------------
    1      C      -0.1580020000    -0.8232180000     1.0223580000
    2      S       0.0003980000     0.0621820000     2.5330580000
    3      C       0.2728980000     1.6137820000     1.7499580000
    4      C      -0.0003020000     0.0711820000    -0.0423420000
    5      C       0.2393980000     1.4391820000     0.3440580000
    6      C      -0.0102020000     0.0055820000    -1.4637420000
    7      C       0.2092980000     1.2511820000    -2.0845420000
    8      S       0.4225980000     2.4802820000    -0.9433420000
    9      C       0.2580980000     1.5009820000    -3.5376420000
   10      O       0.0988980000     0.5811820000    -4.3279420000
   11      O       0.4840980000     2.7640820000    -3.9820420000
   12      F      -0.1998020000    -1.0923180000    -2.2239420000
   13      C       0.5563980000     3.1155820000    -5.3126420000
   14      H       0.7487980000     4.2036820000    -5.3479420000
   15      H      -0.3887020000     2.8868820000    -5.8532420000
   16      H       1.3738980000     2.5754820000    -5.8395420000
   17      C      -0.1580020000    -2.2584180000     1.0223580000
   18      H       0.8596980000    -2.2674180000     1.3837580000
   19      H      -0.4435020000    -2.9423180000     1.8079580000
   20      H       0.1573980000    -2.7828180000     0.1324580000
   21      H       0.4326980000     2.5197820000     2.3438580000
 ----------------------------------------------------------------

   11   -1389.2558323669      4.18e-07  Convergence criterion met
 Total energy in the final basis set =    -1389.2558323669
        RIMP2         total energy =     -1391.7576618319 a.u.

                    Orbital Energies (a.u.)
 --------------------------------------------------------------

 Alpha MOs
 -- Occupied --
-92.0048 -91.9874 -26.3341 -20.6091 -20.5449 -11.4057 -11.3767 -11.3206
-11.2910 -11.2870 -11.2868 -11.2753 -11.2673 -11.2361  -9.0038  -8.9917
 -6.6847  -6.6841  -6.6835  -6.6730  -6.6723  -6.6709  -1.6470  -1.4685
 -1.3633  -1.2263  -1.1473  -1.0672  -1.0276  -1.0061  -0.9674  -0.9108
 -0.8625  -0.7960  -0.7841  -0.7660  -0.7260  -0.7146  -0.6961  -0.6770
 -0.6761  -0.6669  -0.6104  -0.6027  -0.5983  -0.5853  -0.5841  -0.5594
 -0.5345  -0.5264  -0.5169  -0.4933  -0.4780  -0.4616  -0.4583  -0.4561
 -0.3916  -0.3468  -0.2724

          Ground-State Mulliken Net Atomic Charges

     Atom                 Charge (a.u.)
  ----------------------------------------
      1 C                     0.055001
      2 S                     0.076749
      3 C                    -0.274050
      4 C                    -0.107141
      5 C                    -0.013972
      6 C                     0.394180
      7 C                    -0.169390
      8 S                     0.022220
      9 C                     0.460157
     10 O                    -0.458967
     11 O                    -0.299038
     12 F                    -0.213306
     13 C                    -0.054940
     14 H                     0.115911
     15 H                     0.083589
     16 H                     0.083425
     17 C                    -0.377997
     18 H                     0.150675
     19 H                     0.167983
     20 H                     0.149031
     21 H                     0.209878
  ----------------------------------------
  Sum of atomic charges =     0.000000

                    Cartesian Multipole Moments
 -----------------------------------------------------------------
    Charge (ESU x 10^10)
                -0.0000
    Dipole Moment (Debye)
         X       1.1039      Y       0.1338      Z       3.9687
       Tot       4.1215
    Quadrupole Moments (Debye-Ang)
        XX     -96.4821     XY       0.0656     YY     -82.0273
        XZ      -1.3795     YZ     -13.1332     ZZ     -96.4815

 Total job time:  55.14s(wall), 1951.82s(cpu)
        *  Thank you very much for using Q-Chem.  Have a nice day.  *
