 Q-Chem 5.4, Q-Chem, Inc., Pleasanton, CA (2021)
 Q-Chem 5.4.0 for Intel X86 EM64T Linux

User input:
--------------------------------------------------------------
$molecule
0 1
C	-0.302735	-0.782911	1.023873
S	0.006965	0.061489	2.534573
C	0.544765	1.542189	1.751473
C	0.007865	0.070589	-0.040827
C	0.481465	1.376089	0.345573
C	-0.013235	0.007589	-1.462227
C	0.419165	1.196189	-2.083027
S	0.842765	2.369589	-0.941827
C	0.510665	1.433689	-3.536127
O	0.194165	0.555489	-4.326427
O	0.952565	2.638389	-3.980527
F	-0.390635	-1.040711	-2.222427
C	1.084765	2.971989	-5.311127
H	1.463265	4.010189	-5.346427
H	0.114365	2.910889	-5.851727
H	1.796065	2.298089	-5.838027
C	-0.302735	-2.218111	1.023873
H	-1.242235	-2.227111	0.491273
H	0.114865	-2.902011	0.299773
H	-0.767835	-2.742511	1.845473
H	0.859465	2.406689	2.345373
$end

$rem
JOBTYPE		SP
EXCHANGE	HF
CORRELATION	pRIMP2
BASIS		cc-pvtz
METHOD		rimp2
AUX_BASIS	rimp2-cc-pvtz
SOLVENT_METHOD	PCM
PURECART	11111
SYMMETRY	false
MEM_TOTAL	110000
SCF_CONVERGENCE = 6
THRESH=10
GUI = 2
$end

$solvent
dielectric 4.90
$end
--------------------------------------------------------------

             Standard Nuclear Orientation (Angstroms)
    I     Atom           X                Y                Z
 ----------------------------------------------------------------
    1      C      -0.3027350000    -0.7829110000     1.0238730000
    2      S       0.0069650000     0.0614890000     2.5345730000
    3      C       0.5447650000     1.5421890000     1.7514730000
    4      C       0.0078650000     0.0705890000    -0.0408270000
    5      C       0.4814650000     1.3760890000     0.3455730000
    6      C      -0.0132350000     0.0075890000    -1.4622270000
    7      C       0.4191650000     1.1961890000    -2.0830270000
    8      S       0.8427650000     2.3695890000    -0.9418270000
    9      C       0.5106650000     1.4336890000    -3.5361270000
   10      O       0.1941650000     0.5554890000    -4.3264270000
   11      O       0.9525650000     2.6383890000    -3.9805270000
   12      F      -0.3906350000    -1.0407110000    -2.2224270000
   13      C       1.0847650000     2.9719890000    -5.3111270000
   14      H       1.4632650000     4.0101890000    -5.3464270000
   15      H       0.1143650000     2.9108890000    -5.8517270000
   16      H       1.7960650000     2.2980890000    -5.8380270000
   17      C      -0.3027350000    -2.2181110000     1.0238730000
   18      H      -1.2422350000    -2.2271110000     0.4912730000
   19      H       0.1148650000    -2.9020110000     0.2997730000
   20      H      -0.7678350000    -2.7425110000     1.8454730000
   21      H       0.8594650000     2.4066890000     2.3453730000
 ----------------------------------------------------------------

   11   -1389.2464430894      4.80e-07  Convergence criterion met
 Total energy in the final basis set =    -1389.2464430894
        RIMP2         total energy =     -1391.7535242780 a.u.

                    Orbital Energies (a.u.)
 --------------------------------------------------------------

 Alpha MOs
 -- Occupied --
-92.0056 -91.9895 -26.3345 -20.6098 -20.5462 -11.4069 -11.3762 -11.3124
-11.2919 -11.2893 -11.2874 -11.2793 -11.2695 -11.2308  -9.0044  -8.9937
 -6.6852  -6.6845  -6.6841  -6.6750  -6.6743  -6.6729  -1.6475  -1.4693
 -1.3643  -1.2269  -1.1460  -1.0671  -1.0269  -1.0061  -0.9678  -0.9114
 -0.8630  -0.7956  -0.7849  -0.7662  -0.7259  -0.7153  -0.6966  -0.6780
 -0.6767  -0.6678  -0.6086  -0.6035  -0.5946  -0.5870  -0.5810  -0.5617
 -0.5411  -0.5234  -0.5105  -0.4917  -0.4794  -0.4605  -0.4581  -0.4551
 -0.3897  -0.3460  -0.2748

          Ground-State Mulliken Net Atomic Charges

     Atom                 Charge (a.u.)
  ----------------------------------------
      1 C                     0.040334
      2 S                     0.090823
      3 C                    -0.265086
      4 C                    -0.107537
      5 C                    -0.008400
      6 C                     0.376205
      7 C                    -0.164338
      8 S                     0.028850
      9 C                     0.458158
     10 O                    -0.456954
     11 O                    -0.298782
     12 F                    -0.212756
     13 C                    -0.054796
     14 H                     0.116084
     15 H                     0.083744
     16 H                     0.083610
     17 C                    -0.373499
     18 H                     0.139786
     19 H                     0.169728
     20 H                     0.145760
     21 H                     0.209067
  ----------------------------------------
  Sum of atomic charges =     0.000000

                    Cartesian Multipole Moments
 -----------------------------------------------------------------
    Charge (ESU x 10^10)
                -0.0000
    Dipole Moment (Debye)
         X       0.2297      Y       0.5321      Z       3.2930
       Tot       3.3436
    Quadrupole Moments (Debye-Ang)
        XX     -94.9741     XY       4.8308     YY     -83.2188
        XZ      -4.5350     YZ     -10.7642     ZZ     -97.1907

 Total job time:  54.25s(wall), 1947.10s(cpu)
        *  Thank you very much for using Q-Chem.  Have a nice day.  *
