 Q-Chem 5.4, Q-Chem, Inc., Pleasanton, CA (2021)
 Q-Chem 5.4.0 for Intel X86 EM64T Linux

User input:
--------------------------------------------------------------
$molecule
0 1
C	-0.233332	-0.806326	1.021968
S	0.001568	0.061874	2.532668
C	0.408268	1.583774	1.749568
C	0.001668	0.070974	-0.042732
C	0.359668	1.412774	0.343668
C	-0.013832	0.006374	-1.464132
C	0.313368	1.228174	-2.084932
S	0.632968	2.434074	-0.943732
C	0.383768	1.472774	-3.538032
O	0.144968	0.570274	-4.328332
O	0.718968	2.711374	-3.982432
F	-0.298432	-1.070726	-2.224332
C	0.821668	3.055274	-5.313032
H	1.108168	4.122374	-5.348332
H	-0.139732	2.909774	-5.853632
H	1.588968	2.445874	-5.839932
C	-0.233332	-2.241526	1.021968
H	0.706168	-2.250526	1.554568
H	-0.650932	-2.925426	1.746068
H	0.231768	-2.765926	0.200368
H	0.646468	2.472474	2.343468
$end

$rem
JOBTYPE		SP
EXCHANGE	HF
CORRELATION	pRIMP2
BASIS		cc-pvtz
METHOD		rimp2
AUX_BASIS	rimp2-cc-pvtz
SOLVENT_METHOD	PCM
PURECART	11111
SYMMETRY	false
MEM_TOTAL	110000
SCF_CONVERGENCE = 6
THRESH=10
GUI = 2
$end

$solvent
dielectric 4.90
$end
--------------------------------------------------------------

             Standard Nuclear Orientation (Angstroms)
    I     Atom           X                Y                Z
 ----------------------------------------------------------------
    1      C      -0.2333320000    -0.8063260000     1.0219680000
    2      S       0.0015680000     0.0618740000     2.5326680000
    3      C       0.4082680000     1.5837740000     1.7495680000
    4      C       0.0016680000     0.0709740000    -0.0427320000
    5      C       0.3596680000     1.4127740000     0.3436680000
    6      C      -0.0138320000     0.0063740000    -1.4641320000
    7      C       0.3133680000     1.2281740000    -2.0849320000
    8      S       0.6329680000     2.4340740000    -0.9437320000
    9      C       0.3837680000     1.4727740000    -3.5380320000
   10      O       0.1449680000     0.5702740000    -4.3283320000
   11      O       0.7189680000     2.7113740000    -3.9824320000
   12      F      -0.2984320000    -1.0707260000    -2.2243320000
   13      C       0.8216680000     3.0552740000    -5.3130320000
   14      H       1.1081680000     4.1223740000    -5.3483320000
   15      H      -0.1397320000     2.9097740000    -5.8536320000
   16      H       1.5889680000     2.4458740000    -5.8399320000
   17      C      -0.2333320000    -2.2415260000     1.0219680000
   18      H       0.7061680000    -2.2505260000     1.5545680000
   19      H      -0.6509320000    -2.9254260000     1.7460680000
   20      H       0.2317680000    -2.7659260000     0.2003680000
   21      H       0.6464680000     2.4724740000     2.3434680000
 ----------------------------------------------------------------

   11   -1389.2524022905      4.32e-07  Convergence criterion met
 Total energy in the final basis set =    -1389.2524022905
        RIMP2         total energy =     -1391.7555282228 a.u.

                    Orbital Energies (a.u.)
 --------------------------------------------------------------

 Alpha MOs
 -- Occupied --
-92.0042 -91.9879 -26.3338 -20.6095 -20.5456 -11.4063 -11.3765 -11.3176
-11.2910 -11.2882 -11.2872 -11.2777 -11.2684 -11.2341  -9.0034  -8.9921
 -6.6843  -6.6837  -6.6831  -6.6735  -6.6728  -6.6714  -1.6467  -1.4689
 -1.3637  -1.2267  -1.1477  -1.0668  -1.0281  -1.0056  -0.9677  -0.9102
 -0.8630  -0.7962  -0.7842  -0.7666  -0.7261  -0.7145  -0.6959  -0.6768
 -0.6763  -0.6672  -0.6101  -0.6031  -0.5990  -0.5860  -0.5805  -0.5605
 -0.5384  -0.5254  -0.5143  -0.4917  -0.4784  -0.4609  -0.4581  -0.4562
 -0.3925  -0.3466  -0.2737

          Ground-State Mulliken Net Atomic Charges

     Atom                 Charge (a.u.)
  ----------------------------------------
      1 C                     0.061138
      2 S                     0.076934
      3 C                    -0.267933
      4 C                    -0.115766
      5 C                    -0.012896
      6 C                     0.389733
      7 C                    -0.168432
      8 S                     0.024026
      9 C                     0.459590
     10 O                    -0.457598
     11 O                    -0.298832
     12 F                    -0.212317
     13 C                    -0.054885
     14 H                     0.116028
     15 H                     0.083760
     16 H                     0.083504
     17 C                    -0.375597
     18 H                     0.146451
     19 H                     0.164759
     20 H                     0.148259
     21 H                     0.210073
  ----------------------------------------
  Sum of atomic charges =     0.000000

                    Cartesian Multipole Moments
 -----------------------------------------------------------------
    Charge (ESU x 10^10)
                -0.0000
    Dipole Moment (Debye)
         X       1.2646      Y       0.3143      Z       3.9944
       Tot       4.2015
    Quadrupole Moments (Debye-Ang)
        XX     -96.1312     XY       1.0399     YY     -82.5809
        XZ      -2.4497     YZ     -13.0534     ZZ     -96.0611

 Total job time:  65.25s(wall), 1910.09s(cpu)
        *  Thank you very much for using Q-Chem.  Have a nice day.  *
