 Q-Chem 5.4, Q-Chem, Inc., Pleasanton, CA (2021)
 Q-Chem 5.4.0 for Intel X86 EM64T Linux

User input:
--------------------------------------------------------------
$molecule
0 1
C	-0.573375	-0.628442	1.021968
S	0.006525	0.059158	2.532668
C	1.018225	1.266558	1.749568
C	0.010425	0.067358	-0.042732
C	0.901925	1.132158	0.343668
C	-0.030975	0.015358	-1.464132
C	0.781925	0.984358	-2.084932
S	1.581225	1.942158	-0.943732
C	0.949025	1.176358	-3.538032
O	0.351325	0.459358	-4.328332
O	1.776325	2.157258	-3.982432
F	-0.744175	-0.840542	-2.224332
C	2.014725	2.425458	-5.313032
H	2.725425	3.271558	-5.348332
H	1.081925	2.699958	-5.853632
H	2.452625	1.548958	-5.839932
C	-0.573375	-2.063642	1.021968
H	0.366125	-2.072642	1.554568
H	-0.990975	-2.747542	1.746068
H	-0.108275	-2.588042	0.200368
H	1.609725	1.971358	2.343468
$end

$rem
JOBTYPE		SP
EXCHANGE	HF
CORRELATION	pRIMP2
BASIS		cc-pvtz
METHOD		rimp2
AUX_BASIS	rimp2-cc-pvtz
SOLVENT_METHOD	PCM
PURECART	11111
SYMMETRY	false
MEM_TOTAL	110000
SCF_CONVERGENCE = 6
THRESH=10
GUI = 2
$end

$solvent
dielectric 4.90
$end
--------------------------------------------------------------

             Standard Nuclear Orientation (Angstroms)
    I     Atom           X                Y                Z
 ----------------------------------------------------------------
    1      C      -0.5733750000    -0.6284420000     1.0219680000
    2      S       0.0065250000     0.0591580000     2.5326680000
    3      C       1.0182250000     1.2665580000     1.7495680000
    4      C       0.0104250000     0.0673580000    -0.0427320000
    5      C       0.9019250000     1.1321580000     0.3436680000
    6      C      -0.0309750000     0.0153580000    -1.4641320000
    7      C       0.7819250000     0.9843580000    -2.0849320000
    8      S       1.5812250000     1.9421580000    -0.9437320000
    9      C       0.9490250000     1.1763580000    -3.5380320000
   10      O       0.3513250000     0.4593580000    -4.3283320000
   11      O       1.7763250000     2.1572580000    -3.9824320000
   12      F      -0.7441750000    -0.8405420000    -2.2243320000
   13      C       2.0147250000     2.4254580000    -5.3130320000
   14      H       2.7254250000     3.2715580000    -5.3483320000
   15      H       1.0819250000     2.6999580000    -5.8536320000
   16      H       2.4526250000     1.5489580000    -5.8399320000
   17      C      -0.5733750000    -2.0636420000     1.0219680000
   18      H       0.3661250000    -2.0726420000     1.5545680000
   19      H      -0.9909750000    -2.7475420000     1.7460680000
   20      H      -0.1082750000    -2.5880420000     0.2003680000
   21      H       1.6097250000     1.9713580000     2.3434680000
 ----------------------------------------------------------------

   11   -1389.2226753726      5.53e-07  Convergence criterion met
 Total energy in the final basis set =    -1389.2226753726
        RIMP2         total energy =     -1391.7346462337 a.u.

                    Orbital Energies (a.u.)
 --------------------------------------------------------------

 Alpha MOs
 -- Occupied --
-92.0007 -91.9911 -26.3338 -20.6112 -20.5486 -11.4089 -11.3762 -11.3047
-11.2940 -11.2923 -11.2893 -11.2881 -11.2735 -11.2286  -9.0007  -8.9953
 -6.6814  -6.6807  -6.6803  -6.6766  -6.6759  -6.6746  -1.6468  -1.4708
 -1.3660  -1.2303  -1.1520  -1.0675  -1.0296  -1.0032  -0.9692  -0.9066
 -0.8651  -0.7972  -0.7854  -0.7692  -0.7274  -0.7149  -0.6959  -0.6778
 -0.6764  -0.6692  -0.6093  -0.6052  -0.6021  -0.5890  -0.5716  -0.5615
 -0.5393  -0.5267  -0.5157  -0.4919  -0.4801  -0.4610  -0.4594  -0.4485
 -0.3915  -0.3459  -0.2750

          Ground-State Mulliken Net Atomic Charges

     Atom                 Charge (a.u.)
  ----------------------------------------
      1 C                     0.040057
      2 S                     0.076880
      3 C                    -0.237582
      4 C                    -0.112673
      5 C                    -0.013716
      6 C                     0.366787
      7 C                    -0.157676
      8 S                     0.033676
      9 C                     0.457795
     10 O                    -0.452476
     11 O                    -0.298253
     12 F                    -0.209784
     13 C                    -0.054616
     14 H                     0.116383
     15 H                     0.084290
     16 H                     0.083952
     17 C                    -0.376080
     18 H                     0.143074
     19 H                     0.155944
     20 H                     0.142842
     21 H                     0.211177
  ----------------------------------------
  Sum of atomic charges =     0.000000

                    Cartesian Multipole Moments
 -----------------------------------------------------------------
    Charge (ESU x 10^10)
                -0.0000
    Dipole Moment (Debye)
         X       2.6229      Y       0.5859      Z       3.6428
       Tot       4.5270
    Quadrupole Moments (Debye-Ang)
        XX     -93.4230     XY       3.9665     YY     -86.6998
        XZ      -6.3812     YZ     -10.4025     ZZ     -95.1320

 Total job time:  55.80s(wall), 1910.46s(cpu)
        *  Thank you very much for using Q-Chem.  Have a nice day.  *
