 Q-Chem 5.4, Q-Chem, Inc., Pleasanton, CA (2021)
 Q-Chem 5.4.0 for Intel X86 EM64T Linux

User input:
--------------------------------------------------------------
$molecule
0 1
C	-0.003430	-0.836989	1.024624
S	-0.001230	0.062411	2.535324
C	-0.002230	1.637711	1.752224
C	-0.003430	0.071211	-0.040076
C	-0.004930	1.460011	0.346324
C	-0.001830	0.004811	-1.461476
C	-0.001930	1.269711	-2.082276
S	-0.005230	2.517211	-0.941076
C	0.002770	1.524111	-3.535376
O	0.005770	0.590611	-4.325676
O	0.005970	2.807311	-3.979776
F	0.002070	-1.109289	-2.221676
C	0.016170	3.166011	-5.310376
H	0.016770	4.271011	-5.345676
H	-0.874830	2.776711	-5.850976
H	0.915070	2.776111	-5.837276
C	-0.003430	-2.272189	1.024624
H	0.818370	-2.281189	0.324024
H	0.534170	-2.956089	1.664724
H	-0.616430	-2.796589	0.306524
H	-0.002230	2.557811	2.346124
$end

$rem
JOBTYPE		SP
EXCHANGE	HF
CORRELATION	pRIMP2
BASIS		cc-pvtz
METHOD		rimp2
AUX_BASIS	rimp2-cc-pvtz
SOLVENT_METHOD	PCM
PURECART	11111
SYMMETRY	false
MEM_TOTAL	110000
SCF_CONVERGENCE = 6
THRESH=10
GUI = 2
$end

$solvent
dielectric 4.90
$end
--------------------------------------------------------------

             Standard Nuclear Orientation (Angstroms)
    I     Atom           X                Y                Z
 ----------------------------------------------------------------
    1      C      -0.0034300000    -0.8369890000     1.0246240000
    2      S      -0.0012300000     0.0624110000     2.5353240000
    3      C      -0.0022300000     1.6377110000     1.7522240000
    4      C      -0.0034300000     0.0712110000    -0.0400760000
    5      C      -0.0049300000     1.4600110000     0.3463240000
    6      C      -0.0018300000     0.0048110000    -1.4614760000
    7      C      -0.0019300000     1.2697110000    -2.0822760000
    8      S      -0.0052300000     2.5172110000    -0.9410760000
    9      C       0.0027700000     1.5241110000    -3.5353760000
   10      O       0.0057700000     0.5906110000    -4.3256760000
   11      O       0.0059700000     2.8073110000    -3.9797760000
   12      F       0.0020700000    -1.1092890000    -2.2216760000
   13      C       0.0161700000     3.1660110000    -5.3103760000
   14      H       0.0167700000     4.2710110000    -5.3456760000
   15      H      -0.8748300000     2.7767110000    -5.8509760000
   16      H       0.9150700000     2.7761110000    -5.8372760000
   17      C      -0.0034300000    -2.2721890000     1.0246240000
   18      H       0.8183700000    -2.2811890000     0.3240240000
   19      H       0.5341700000    -2.9560890000     1.6647240000
   20      H      -0.6164300000    -2.7965890000     0.3065240000
   21      H      -0.0022300000     2.5578110000     2.3461240000
 ----------------------------------------------------------------

   11   -1389.2558727053      4.50e-07  Convergence criterion met
 Total energy in the final basis set =    -1389.2558727053
        RIMP2         total energy =     -1391.7603227798 a.u.

                    Orbital Energies (a.u.)
 --------------------------------------------------------------

 Alpha MOs
 -- Occupied --
-92.0060 -91.9890 -26.3350 -20.6097 -20.5458 -11.4066 -11.3767 -11.3175
-11.2918 -11.2885 -11.2873 -11.2761 -11.2689 -11.2332  -9.0046  -8.9932
 -6.6854  -6.6848  -6.6844  -6.6745  -6.6738  -6.6725  -1.6480  -1.4692
 -1.3640  -1.2267  -1.1458  -1.0680  -1.0264  -1.0067  -0.9677  -0.9117
 -0.8627  -0.7955  -0.7851  -0.7657  -0.7260  -0.7157  -0.6972  -0.6779
 -0.6766  -0.6677  -0.6104  -0.6033  -0.5951  -0.5880  -0.5853  -0.5637
 -0.5409  -0.5236  -0.5062  -0.4888  -0.4779  -0.4632  -0.4592  -0.4565
 -0.3917  -0.3461  -0.2756

          Ground-State Mulliken Net Atomic Charges

     Atom                 Charge (a.u.)
  ----------------------------------------
      1 C                     0.056647
      2 S                     0.082218
      3 C                    -0.273755
      4 C                    -0.102836
      5 C                    -0.008051
      6 C                     0.391215
      7 C                    -0.165419
      8 S                     0.025337
      9 C                     0.459443
     10 O                    -0.458289
     11 O                    -0.298865
     12 F                    -0.214587
     13 C                    -0.055009
     14 H                     0.116082
     15 H                     0.083711
     16 H                     0.083557
     17 C                    -0.382290
     18 H                     0.135013
     19 H                     0.169045
     20 H                     0.147734
     21 H                     0.209100
  ----------------------------------------
  Sum of atomic charges =     0.000000

                    Cartesian Multipole Moments
 -----------------------------------------------------------------
    Charge (ESU x 10^10)
                -0.0000
    Dipole Moment (Debye)
         X       0.5519      Y       0.4348      Z       3.2203
       Tot       3.2961
    Quadrupole Moments (Debye-Ang)
        XX     -96.3026     XY      -1.4204     YY     -81.8175
        XZ       0.8579     YZ     -11.5285     ZZ     -97.7300

 Total job time:  56.37s(wall), 2102.41s(cpu)
        *  Thank you very much for using Q-Chem.  Have a nice day.  *
