 Q-Chem 5.4, Q-Chem, Inc., Pleasanton, CA (2021)
 Q-Chem 5.4.0 for Intel X86 EM64T Linux

User input:
--------------------------------------------------------------
$molecule
0 1
C	-0.304739	-0.782911	1.020565
S	0.004961	0.061489	2.531265
C	0.542761	1.542189	1.748165
C	0.005861	0.070589	-0.044135
C	0.479461	1.376089	0.342265
C	-0.015239	0.007589	-1.465535
C	0.417161	1.196189	-2.086335
S	0.840761	2.369589	-0.945135
C	0.508661	1.433689	-3.539435
O	0.192161	0.555489	-4.329735
O	0.950561	2.638389	-3.983835
F	-0.392639	-1.040711	-2.225735
C	1.082761	2.971989	-5.314435
H	1.461261	4.010189	-5.349735
H	0.112361	2.910889	-5.855035
H	1.794061	2.298089	-5.841335
C	-0.304739	-2.218111	1.020565
H	-0.483939	-2.227111	2.085565
H	-1.127939	-2.902011	0.875765
H	0.626461	-2.742511	1.176665
H	0.857461	2.406689	2.342065
$end

$rem
JOBTYPE		SP
EXCHANGE	HF
CORRELATION	pRIMP2
BASIS		cc-pvtz
METHOD		rimp2
AUX_BASIS	rimp2-cc-pvtz
SOLVENT_METHOD	PCM
PURECART	11111
SYMMETRY	false
MEM_TOTAL	110000
SCF_CONVERGENCE = 6
THRESH=10
GUI = 2
$end

$solvent
dielectric 4.90
$end
--------------------------------------------------------------

             Standard Nuclear Orientation (Angstroms)
    I     Atom           X                Y                Z
 ----------------------------------------------------------------
    1      C      -0.3047390000    -0.7829110000     1.0205650000
    2      S       0.0049610000     0.0614890000     2.5312650000
    3      C       0.5427610000     1.5421890000     1.7481650000
    4      C       0.0058610000     0.0705890000    -0.0441350000
    5      C       0.4794610000     1.3760890000     0.3422650000
    6      C      -0.0152390000     0.0075890000    -1.4655350000
    7      C       0.4171610000     1.1961890000    -2.0863350000
    8      S       0.8407610000     2.3695890000    -0.9451350000
    9      C       0.5086610000     1.4336890000    -3.5394350000
   10      O       0.1921610000     0.5554890000    -4.3297350000
   11      O       0.9505610000     2.6383890000    -3.9838350000
   12      F      -0.3926390000    -1.0407110000    -2.2257350000
   13      C       1.0827610000     2.9719890000    -5.3144350000
   14      H       1.4612610000     4.0101890000    -5.3497350000
   15      H       0.1123610000     2.9108890000    -5.8550350000
   16      H       1.7940610000     2.2980890000    -5.8413350000
   17      C      -0.3047390000    -2.2181110000     1.0205650000
   18      H      -0.4839390000    -2.2271110000     2.0855650000
   19      H      -1.1279390000    -2.9020110000     0.8757650000
   20      H       0.6264610000    -2.7425110000     1.1766650000
   21      H       0.8574610000     2.4066890000     2.3420650000
 ----------------------------------------------------------------

   11   -1389.2450144414      5.15e-07  Convergence criterion met
 Total energy in the final basis set =    -1389.2450144414
        RIMP2         total energy =     -1391.7536167343 a.u.

                    Orbital Energies (a.u.)
 --------------------------------------------------------------

 Alpha MOs
 -- Occupied --
-92.0098 -91.9907 -26.3328 -20.6106 -20.5479 -11.4082 -11.3746 -11.3031
-11.2928 -11.2917 -11.2877 -11.2868 -11.2697 -11.2271  -9.0085  -8.9948
 -6.6892  -6.6886  -6.6881  -6.6761  -6.6755  -6.6741  -1.6457  -1.4703
 -1.3654  -1.2273  -1.1474  -1.0649  -1.0300  -1.0048  -0.9687  -0.9092
 -0.8648  -0.7968  -0.7842  -0.7682  -0.7264  -0.7138  -0.6953  -0.6773
 -0.6757  -0.6683  -0.6092  -0.6045  -0.5967  -0.5877  -0.5757  -0.5669
 -0.5427  -0.5250  -0.5051  -0.4815  -0.4707  -0.4644  -0.4601  -0.4583
 -0.3950  -0.3460  -0.2831

          Ground-State Mulliken Net Atomic Charges

     Atom                 Charge (a.u.)
  ----------------------------------------
      1 C                     0.028800
      2 S                     0.087490
      3 C                    -0.249169
      4 C                    -0.090580
      5 C                    -0.006728
      6 C                     0.369737
      7 C                    -0.158075
      8 S                     0.032793
      9 C                     0.457020
     10 O                    -0.453084
     11 O                    -0.298257
     12 F                    -0.211887
     13 C                    -0.054823
     14 H                     0.116231
     15 H                     0.084129
     16 H                     0.083943
     17 C                    -0.356141
     18 H                     0.109786
     19 H                     0.156594
     20 H                     0.139744
     21 H                     0.212476
  ----------------------------------------
  Sum of atomic charges =     0.000000

                    Cartesian Multipole Moments
 -----------------------------------------------------------------
    Charge (ESU x 10^10)
                -0.0000
    Dipole Moment (Debye)
         X       0.9712      Y       1.2409      Z       4.0889
       Tot       4.3821
    Quadrupole Moments (Debye-Ang)
        XX     -94.7626     XY       3.6493     YY     -83.6388
        XZ      -3.7037     YZ     -12.5774     ZZ     -94.7068

 Total job time:  54.23s(wall), 1950.23s(cpu)
        *  Thank you very much for using Q-Chem.  Have a nice day.  *
