 Q-Chem 5.4, Q-Chem, Inc., Pleasanton, CA (2021)
 Q-Chem 5.4.0 for Intel X86 EM64T Linux

User input:
--------------------------------------------------------------
$molecule
0 1
C	-0.767248	-0.392188	1.024825
S	0.012752	0.055612	2.535525
C	1.376552	0.844212	1.752425
C	0.019252	0.061912	-0.039875
C	1.221252	0.757612	0.346525
C	-0.037348	0.027312	-1.461275
C	1.057952	0.659812	-2.082075
S	2.136652	1.286512	-0.940875
C	1.280652	0.783012	-3.535175
O	0.473752	0.313712	-4.325475
O	2.393552	1.421812	-3.979575
F	-1.000248	-0.533088	-2.221475
C	2.709252	1.592412	-5.310175
H	3.666452	2.144312	-5.345475
H	1.926552	2.169312	-5.850775
H	2.820952	0.618912	-5.837075
C	-0.767248	-1.827388	1.024825
H	-1.314548	-1.836388	0.093825
H	-0.043548	-2.511288	0.606625
H	-1.580848	-2.351788	1.503825
H	2.173352	1.304112	2.346325
$end

$rem
JOBTYPE		SP
EXCHANGE	HF
CORRELATION	pRIMP2
BASIS		cc-pvtz
METHOD		rimp2
AUX_BASIS	rimp2-cc-pvtz
SOLVENT_METHOD	PCM
PURECART	11111
SYMMETRY	false
MEM_TOTAL	110000
SCF_CONVERGENCE = 6
THRESH=10
GUI = 2
$end

$solvent
dielectric 4.90
$end
--------------------------------------------------------------

             Standard Nuclear Orientation (Angstroms)
    I     Atom           X                Y                Z
 ----------------------------------------------------------------
    1      C      -0.7672480000    -0.3921880000     1.0248250000
    2      S       0.0127520000     0.0556120000     2.5355250000
    3      C       1.3765520000     0.8442120000     1.7524250000
    4      C       0.0192520000     0.0619120000    -0.0398750000
    5      C       1.2212520000     0.7576120000     0.3465250000
    6      C      -0.0373480000     0.0273120000    -1.4612750000
    7      C       1.0579520000     0.6598120000    -2.0820750000
    8      S       2.1366520000     1.2865120000    -0.9408750000
    9      C       1.2806520000     0.7830120000    -3.5351750000
   10      O       0.4737520000     0.3137120000    -4.3254750000
   11      O       2.3935520000     1.4218120000    -3.9795750000
   12      F      -1.0002480000    -0.5330880000    -2.2214750000
   13      C       2.7092520000     1.5924120000    -5.3101750000
   14      H       3.6664520000     2.1443120000    -5.3454750000
   15      H       1.9265520000     2.1693120000    -5.8507750000
   16      H       2.8209520000     0.6189120000    -5.8370750000
   17      C      -0.7672480000    -1.8273880000     1.0248250000
   18      H      -1.3145480000    -1.8363880000     0.0938250000
   19      H      -0.0435480000    -2.5112880000     0.6066250000
   20      H      -1.5808480000    -2.3517880000     1.5038250000
   21      H       2.1733520000     1.3041120000     2.3463250000
 ----------------------------------------------------------------

   11   -1389.1847083854      8.58e-07  Convergence criterion met
 Total energy in the final basis set =    -1389.1847083854
        RIMP2         total energy =     -1391.7089030143 a.u.

                    Orbital Energies (a.u.)
 --------------------------------------------------------------

 Alpha MOs
 -- Occupied --
-92.0020 -92.0011 -26.3339 -20.6148 -20.5552 -11.4145 -11.3743 -11.3162
-11.3074 -11.2955 -11.2900 -11.2855 -11.2615 -11.2144  -9.0056  -9.0009
 -6.6868  -6.6862  -6.6849  -6.6815  -6.6805  -6.6804  -1.6472  -1.4749
 -1.3710  -1.2360  -1.1530  -1.0713  -1.0306  -1.0011  -0.9721  -0.9061
 -0.8678  -0.7972  -0.7889  -0.7728  -0.7298  -0.7162  -0.6983  -0.6809
 -0.6763  -0.6741  -0.6099  -0.6064  -0.6039  -0.5919  -0.5701  -0.5630
 -0.5364  -0.5261  -0.5127  -0.4860  -0.4782  -0.4645  -0.4635  -0.4261
 -0.3857  -0.3427  -0.2915

          Ground-State Mulliken Net Atomic Charges

     Atom                 Charge (a.u.)
  ----------------------------------------
      1 C                    -0.134334
      2 S                     0.105962
      3 C                    -0.161864
      4 C                    -0.022291
      5 C                    -0.036354
      6 C                     0.366544
      7 C                    -0.130801
      8 S                     0.063058
      9 C                     0.456923
     10 O                    -0.441692
     11 O                    -0.296730
     12 F                    -0.211588
     13 C                    -0.054729
     14 H                     0.117282
     15 H                     0.085457
     16 H                     0.085087
     17 C                    -0.381370
     18 H                     0.105009
     19 H                     0.141161
     20 H                     0.129890
     21 H                     0.215381
  ----------------------------------------
  Sum of atomic charges =     0.000000

                    Cartesian Multipole Moments
 -----------------------------------------------------------------
    Charge (ESU x 10^10)
                -0.0000
    Dipole Moment (Debye)
         X       4.3062      Y       1.3394      Z       2.2495
       Tot       5.0396
    Quadrupole Moments (Debye-Ang)
        XX     -88.3740     XY       5.8386     YY     -91.2362
        XZ      -8.3074     YZ      -4.9175     ZZ     -94.2579

 Total job time:  84.30s(wall), 2125.94s(cpu)
        *  Thank you very much for using Q-Chem.  Have a nice day.  *
