 Q-Chem 5.4, Q-Chem, Inc., Pleasanton, CA (2021)
 Q-Chem 5.4.0 for Intel X86 EM64T Linux

User input:
--------------------------------------------------------------
$molecule
0 1
C	-0.153362	-0.823218	1.022665
S	0.005038	0.062182	2.533365
C	0.277538	1.613782	1.750265
C	0.004338	0.071182	-0.042035
C	0.244038	1.439182	0.344365
C	-0.005562	0.005582	-1.463435
C	0.213938	1.251182	-2.084235
S	0.427238	2.480282	-0.943035
C	0.262738	1.500982	-3.537335
O	0.103538	0.581182	-4.327635
O	0.488738	2.764082	-3.981735
F	-0.195162	-1.092318	-2.223635
C	0.561038	3.115582	-5.312335
H	0.753438	4.203682	-5.347635
H	-0.384062	2.886882	-5.852935
H	1.378538	2.575482	-5.839235
C	-0.153362	-2.258418	1.022665
H	-1.233262	-2.267418	1.031165
H	-0.153762	-2.942318	0.186765
H	-0.145362	-2.782818	1.966765
H	0.437338	2.519782	2.344165
$end

$rem
JOBTYPE		SP
EXCHANGE	HF
CORRELATION	pRIMP2
BASIS		cc-pvtz
METHOD		rimp2
AUX_BASIS	rimp2-cc-pvtz
SOLVENT_METHOD	PCM
PURECART	11111
SYMMETRY	false
MEM_TOTAL	110000
SCF_CONVERGENCE = 6
THRESH=10
GUI = 2
$end

$solvent
dielectric 4.90
$end
--------------------------------------------------------------

             Standard Nuclear Orientation (Angstroms)
    I     Atom           X                Y                Z
 ----------------------------------------------------------------
    1      C      -0.1533620000    -0.8232180000     1.0226650000
    2      S       0.0050380000     0.0621820000     2.5333650000
    3      C       0.2775380000     1.6137820000     1.7502650000
    4      C       0.0043380000     0.0711820000    -0.0420350000
    5      C       0.2440380000     1.4391820000     0.3443650000
    6      C      -0.0055620000     0.0055820000    -1.4634350000
    7      C       0.2139380000     1.2511820000    -2.0842350000
    8      S       0.4272380000     2.4802820000    -0.9430350000
    9      C       0.2627380000     1.5009820000    -3.5373350000
   10      O       0.1035380000     0.5811820000    -4.3276350000
   11      O       0.4887380000     2.7640820000    -3.9817350000
   12      F      -0.1951620000    -1.0923180000    -2.2236350000
   13      C       0.5610380000     3.1155820000    -5.3123350000
   14      H       0.7534380000     4.2036820000    -5.3476350000
   15      H      -0.3840620000     2.8868820000    -5.8529350000
   16      H       1.3785380000     2.5754820000    -5.8392350000
   17      C      -0.1533620000    -2.2584180000     1.0226650000
   18      H      -1.2332620000    -2.2674180000     1.0311650000
   19      H      -0.1537620000    -2.9423180000     0.1867650000
   20      H      -0.1453620000    -2.7828180000     1.9667650000
   21      H       0.4373380000     2.5197820000     2.3441650000
 ----------------------------------------------------------------

   11   -1389.2536699185      4.25e-07  Convergence criterion met
 Total energy in the final basis set =    -1389.2536699185
        RIMP2         total energy =     -1391.7561282325 a.u.

                    Orbital Energies (a.u.)
 --------------------------------------------------------------

 Alpha MOs
 -- Occupied --
-92.0069 -91.9873 -26.3342 -20.6088 -20.5444 -11.4053 -11.3764 -11.3203
-11.2912 -11.2869 -11.2859 -11.2741 -11.2659 -11.2356  -9.0056  -8.9916
 -6.6865  -6.6858  -6.6853  -6.6729  -6.6722  -6.6709  -1.6471  -1.4682
 -1.3629  -1.2257  -1.1466  -1.0671  -1.0271  -1.0064  -0.9672  -0.9115
 -0.8622  -0.7958  -0.7840  -0.7655  -0.7256  -0.7148  -0.6965  -0.6777
 -0.6759  -0.6667  -0.6096  -0.6024  -0.5919  -0.5875  -0.5851  -0.5585
 -0.5334  -0.5258  -0.5197  -0.4949  -0.4783  -0.4614  -0.4581  -0.4560
 -0.3894  -0.3468  -0.2715

          Ground-State Mulliken Net Atomic Charges

     Atom                 Charge (a.u.)
  ----------------------------------------
      1 C                     0.045884
      2 S                     0.086210
      3 C                    -0.280570
      4 C                    -0.100510
      5 C                    -0.008260
      6 C                     0.393916
      7 C                    -0.172816
      8 S                     0.022713
      9 C                     0.459766
     10 O                    -0.459893
     11 O                    -0.299169
     12 F                    -0.213870
     13 C                    -0.054965
     14 H                     0.115839
     15 H                     0.083370
     16 H                     0.083430
     17 C                    -0.382153
     18 H                     0.149355
     19 H                     0.173369
     20 H                     0.148538
     21 H                     0.209818
  ----------------------------------------
  Sum of atomic charges =     0.000000

                    Cartesian Multipole Moments
 -----------------------------------------------------------------
    Charge (ESU x 10^10)
                -0.0000
    Dipole Moment (Debye)
         X      -0.4091      Y       0.0866      Z       3.8298
       Tot       3.8525
    Quadrupole Moments (Debye-Ang)
        XX     -96.1134     XY       3.6584     YY     -82.0384
        XZ      -2.7003     YZ     -12.3070     ZZ     -96.9251

 Total job time:  59.23s(wall), 2313.91s(cpu)
        *  Thank you very much for using Q-Chem.  Have a nice day.  *
