 Q-Chem 5.4, Q-Chem, Inc., Pleasanton, CA (2021)
 Q-Chem 5.4.0 for Intel X86 EM64T Linux

User input:
--------------------------------------------------------------
$molecule
0 1
C	-0.378572	-0.753180	1.022358
S	0.003528	0.061020	2.533058
C	0.668328	1.489220	1.749958
C	0.005228	0.069920	-0.042342
C	0.590828	1.329320	0.344058
C	-0.021372	0.009120	-1.463742
C	0.513128	1.155520	-2.084542
S	1.037328	2.287520	-0.943342
C	0.624928	1.384120	-3.537642
O	0.233028	0.536820	-4.327942
O	1.170128	2.545720	-3.982042
F	-0.488672	-1.002280	-2.223942
C	1.330928	2.866520	-5.312642
H	1.798428	3.867720	-5.347942
H	0.358828	2.890220	-5.853242
H	1.980828	2.133220	-5.839542
C	-0.378572	-2.188380	1.022358
H	0.639128	-2.197380	1.383758
H	-0.664072	-2.872280	1.807958
H	-0.063172	-2.712780	0.132458
H	1.057228	2.323020	2.343858
$end

$rem
JOBTYPE		SP
EXCHANGE	HF
CORRELATION	pRIMP2
BASIS		cc-pvtz
METHOD		rimp2
AUX_BASIS	rimp2-cc-pvtz
SOLVENT_METHOD	PCM
PURECART	11111
SYMMETRY	false
MEM_TOTAL	110000
SCF_CONVERGENCE = 6
THRESH=10
GUI = 2
$end

$solvent
dielectric 4.90
$end
--------------------------------------------------------------

             Standard Nuclear Orientation (Angstroms)
    I     Atom           X                Y                Z
 ----------------------------------------------------------------
    1      C      -0.3785720000    -0.7531800000     1.0223580000
    2      S       0.0035280000     0.0610200000     2.5330580000
    3      C       0.6683280000     1.4892200000     1.7499580000
    4      C       0.0052280000     0.0699200000    -0.0423420000
    5      C       0.5908280000     1.3293200000     0.3440580000
    6      C      -0.0213720000     0.0091200000    -1.4637420000
    7      C       0.5131280000     1.1555200000    -2.0845420000
    8      S       1.0373280000     2.2875200000    -0.9433420000
    9      C       0.6249280000     1.3841200000    -3.5376420000
   10      O       0.2330280000     0.5368200000    -4.3279420000
   11      O       1.1701280000     2.5457200000    -3.9820420000
   12      F      -0.4886720000    -1.0022800000    -2.2239420000
   13      C       1.3309280000     2.8665200000    -5.3126420000
   14      H       1.7984280000     3.8677200000    -5.3479420000
   15      H       0.3588280000     2.8902200000    -5.8532420000
   16      H       1.9808280000     2.1332200000    -5.8395420000
   17      C      -0.3785720000    -2.1883800000     1.0223580000
   18      H       0.6391280000    -2.1973800000     1.3837580000
   19      H      -0.6640720000    -2.8722800000     1.8079580000
   20      H      -0.0631720000    -2.7127800000     0.1324580000
   21      H       1.0572280000     2.3230200000     2.3438580000
 ----------------------------------------------------------------

   11   -1389.2459560892      4.51e-07  Convergence criterion met
 Total energy in the final basis set =    -1389.2459560892
        RIMP2         total energy =     -1391.7508570656 a.u.

                    Orbital Energies (a.u.)
 --------------------------------------------------------------

 Alpha MOs
 -- Occupied --
-92.0034 -91.9884 -26.3341 -20.6096 -20.5458 -11.4065 -11.3767 -11.3168
-11.2915 -11.2887 -11.2873 -11.2790 -11.2688 -11.2347  -9.0027  -8.9927
 -6.6835  -6.6829  -6.6824  -6.6740  -6.6733  -6.6719  -1.6470  -1.4691
 -1.3639  -1.2275  -1.1490  -1.0673  -1.0279  -1.0051  -0.9679  -0.9094
 -0.8632  -0.7963  -0.7845  -0.7669  -0.7263  -0.7148  -0.6960  -0.6769
 -0.6765  -0.6675  -0.6100  -0.6033  -0.6005  -0.5865  -0.5795  -0.5599
 -0.5359  -0.5264  -0.5171  -0.4933  -0.4786  -0.4605  -0.4578  -0.4558
 -0.3915  -0.3468  -0.2727

          Ground-State Mulliken Net Atomic Charges

     Atom                 Charge (a.u.)
  ----------------------------------------
      1 C                     0.071209
      2 S                     0.077701
      3 C                    -0.266250
      4 C                    -0.129067
      5 C                    -0.009315
      6 C                     0.375525
      7 C                    -0.165800
      8 S                     0.027071
      9 C                     0.458469
     10 O                    -0.457178
     11 O                    -0.298907
     12 F                    -0.211088
     13 C                    -0.054763
     14 H                     0.116045
     15 H                     0.083764
     16 H                     0.083526
     17 C                    -0.373324
     18 H                     0.151629
     19 H                     0.164416
     20 H                     0.146477
     21 H                     0.209860
  ----------------------------------------
  Sum of atomic charges =     0.000000

                    Cartesian Multipole Moments
 -----------------------------------------------------------------
    Charge (ESU x 10^10)
                -0.0000
    Dipole Moment (Debye)
         X       1.7237      Y       0.2292      Z       3.8494
       Tot       4.2239
    Quadrupole Moments (Debye-Ang)
        XX     -95.4621     XY       2.3629     YY     -83.7488
        XZ      -4.0531     YZ     -12.1036     ZZ     -96.2280

 Total job time:  88.48s(wall), 4188.38s(cpu)
        *  Thank you very much for using Q-Chem.  Have a nice day.  *
