 Q-Chem 5.4, Q-Chem, Inc., Pleasanton, CA (2021)
 Q-Chem 5.4.0 for Intel X86 EM64T Linux

User input:
--------------------------------------------------------------
$molecule
0 1
C	-0.233527	-0.806326	1.022765
S	0.001373	0.061874	2.533465
C	0.408073	1.583774	1.750365
C	0.001473	0.070974	-0.041935
C	0.359473	1.412774	0.344465
C	-0.014027	0.006374	-1.463335
C	0.313173	1.228174	-2.084135
S	0.632773	2.434074	-0.942935
C	0.383573	1.472774	-3.537235
O	0.144773	0.570274	-4.327535
O	0.718773	2.711374	-3.981635
F	-0.298627	-1.070726	-2.223535
C	0.821473	3.055274	-5.312235
H	1.107973	4.122374	-5.347535
H	-0.139927	2.909774	-5.852835
H	1.588773	2.445874	-5.839135
C	-0.233527	-2.241526	1.022765
H	0.831473	-2.250526	1.201965
H	-0.378327	-2.925426	1.845965
H	-0.077427	-2.765926	0.091565
H	0.646273	2.472474	2.344265
$end

$rem
JOBTYPE		SP
EXCHANGE	HF
CORRELATION	pRIMP2
BASIS		cc-pvtz
METHOD		rimp2
AUX_BASIS	rimp2-cc-pvtz
SOLVENT_METHOD	PCM
PURECART	11111
SYMMETRY	false
MEM_TOTAL	110000
SCF_CONVERGENCE = 6
THRESH=10
GUI = 2
$end

$solvent
dielectric 4.90
$end
--------------------------------------------------------------

             Standard Nuclear Orientation (Angstroms)
    I     Atom           X                Y                Z
 ----------------------------------------------------------------
    1      C      -0.2335270000    -0.8063260000     1.0227650000
    2      S       0.0013730000     0.0618740000     2.5334650000
    3      C       0.4080730000     1.5837740000     1.7503650000
    4      C       0.0014730000     0.0709740000    -0.0419350000
    5      C       0.3594730000     1.4127740000     0.3444650000
    6      C      -0.0140270000     0.0063740000    -1.4633350000
    7      C       0.3131730000     1.2281740000    -2.0841350000
    8      S       0.6327730000     2.4340740000    -0.9429350000
    9      C       0.3835730000     1.4727740000    -3.5372350000
   10      O       0.1447730000     0.5702740000    -4.3275350000
   11      O       0.7187730000     2.7113740000    -3.9816350000
   12      F      -0.2986270000    -1.0707260000    -2.2235350000
   13      C       0.8214730000     3.0552740000    -5.3122350000
   14      H       1.1079730000     4.1223740000    -5.3475350000
   15      H      -0.1399270000     2.9097740000    -5.8528350000
   16      H       1.5887730000     2.4458740000    -5.8391350000
   17      C      -0.2335270000    -2.2415260000     1.0227650000
   18      H       0.8314730000    -2.2505260000     1.2019650000
   19      H      -0.3783270000    -2.9254260000     1.8459650000
   20      H      -0.0774270000    -2.7659260000     0.0915650000
   21      H       0.6462730000     2.4724740000     2.3442650000
 ----------------------------------------------------------------

   11   -1389.2545902752      4.20e-07  Convergence criterion met
 Total energy in the final basis set =    -1389.2545902752
        RIMP2         total energy =     -1391.7567508361 a.u.

                    Orbital Energies (a.u.)
 --------------------------------------------------------------

 Alpha MOs
 -- Occupied --
-92.0048 -91.9875 -26.3343 -20.6090 -20.5447 -11.4056 -11.3769 -11.3214
-11.2914 -11.2870 -11.2865 -11.2747 -11.2669 -11.2371  -9.0039  -8.9918
 -6.6847  -6.6841  -6.6836  -6.6731  -6.6724  -6.6711  -1.6473  -1.4684
 -1.3631  -1.2265  -1.1478  -1.0676  -1.0272  -1.0060  -0.9674  -0.9107
 -0.8624  -0.7960  -0.7843  -0.7659  -0.7260  -0.7149  -0.6963  -0.6771
 -0.6760  -0.6669  -0.6104  -0.6026  -0.5988  -0.5854  -0.5845  -0.5592
 -0.5313  -0.5278  -0.5187  -0.4943  -0.4780  -0.4617  -0.4583  -0.4560
 -0.3908  -0.3470  -0.2717

          Ground-State Mulliken Net Atomic Charges

     Atom                 Charge (a.u.)
  ----------------------------------------
      1 C                     0.063209
      2 S                     0.079843
      3 C                    -0.276935
      4 C                    -0.114760
      5 C                    -0.011792
      6 C                     0.385211
      7 C                    -0.169292
      8 S                     0.023511
      9 C                     0.459501
     10 O                    -0.459317
     11 O                    -0.299163
     12 F                    -0.212624
     13 C                    -0.054890
     14 H                     0.115922
     15 H                     0.083594
     16 H                     0.083321
     17 C                    -0.377082
     18 H                     0.154981
     19 H                     0.168712
     20 H                     0.148625
     21 H                     0.209425
  ----------------------------------------
  Sum of atomic charges =     0.000000

                    Cartesian Multipole Moments
 -----------------------------------------------------------------
    Charge (ESU x 10^10)
                -0.0000
    Dipole Moment (Debye)
         X       1.3098      Y       0.0390      Z       3.8680
       Tot       4.0840
    Quadrupole Moments (Debye-Ang)
        XX     -96.3395     XY       0.7914     YY     -82.3716
        XZ      -2.1596     YZ     -12.6656     ZZ     -96.7859

 Total job time:  55.91s(wall), 2037.92s(cpu)
        *  Thank you very much for using Q-Chem.  Have a nice day.  *
