 Q-Chem 5.4, Q-Chem, Inc., Pleasanton, CA (2021)
 Q-Chem 5.4.0 for Intel X86 EM64T Linux

User input:
--------------------------------------------------------------
$molecule
0 1
C	-0.446441	-0.717327	1.024624
S	0.005159	0.060473	2.535324
C	0.791959	1.425273	1.752224
C	0.007659	0.069273	-0.040076
C	0.700759	1.272673	0.346324
C	-0.024141	0.010873	-1.461476
C	0.608159	1.106373	-2.082276
S	1.229059	2.188373	-0.941076
C	0.739459	1.324373	-3.535376
O	0.275259	0.514473	-4.325676
O	1.383859	2.434073	-3.979776
F	-0.577741	-0.955927	-2.221676
C	1.572059	2.739673	-5.310376
H	2.125059	3.696273	-5.345676
H	0.605759	2.847873	-5.850976
H	2.155459	1.952473	-5.837276
C	-0.446441	-2.152527	1.024624
H	0.375359	-2.161527	0.324024
H	0.091159	-2.836427	1.664724
H	-1.059441	-2.676927	0.306524
H	1.251959	2.221973	2.346124
$end

$rem
JOBTYPE		SP
EXCHANGE	HF
CORRELATION	pRIMP2
BASIS		cc-pvtz
METHOD		rimp2
AUX_BASIS	rimp2-cc-pvtz
SOLVENT_METHOD	PCM
PURECART	11111
SYMMETRY	false
MEM_TOTAL	110000
SCF_CONVERGENCE = 6
THRESH=10
GUI = 2
$end

$solvent
dielectric 4.90
$end
--------------------------------------------------------------

             Standard Nuclear Orientation (Angstroms)
    I     Atom           X                Y                Z
 ----------------------------------------------------------------
    1      C      -0.4464410000    -0.7173270000     1.0246240000
    2      S       0.0051590000     0.0604730000     2.5353240000
    3      C       0.7919590000     1.4252730000     1.7522240000
    4      C       0.0076590000     0.0692730000    -0.0400760000
    5      C       0.7007590000     1.2726730000     0.3463240000
    6      C      -0.0241410000     0.0108730000    -1.4614760000
    7      C       0.6081590000     1.1063730000    -2.0822760000
    8      S       1.2290590000     2.1883730000    -0.9410760000
    9      C       0.7394590000     1.3243730000    -3.5353760000
   10      O       0.2752590000     0.5144730000    -4.3256760000
   11      O       1.3838590000     2.4340730000    -3.9797760000
   12      F      -0.5777410000    -0.9559270000    -2.2216760000
   13      C       1.5720590000     2.7396730000    -5.3103760000
   14      H       2.1250590000     3.6962730000    -5.3456760000
   15      H       0.6057590000     2.8478730000    -5.8509760000
   16      H       2.1554590000     1.9524730000    -5.8372760000
   17      C      -0.4464410000    -2.1525270000     1.0246240000
   18      H       0.3753590000    -2.1615270000     0.3240240000
   19      H       0.0911590000    -2.8364270000     1.6647240000
   20      H      -1.0594410000    -2.6769270000     0.3065240000
   21      H       1.2519590000     2.2219730000     2.3461240000
 ----------------------------------------------------------------

   11   -1389.2357195305      5.19e-07  Convergence criterion met
 Total energy in the final basis set =    -1389.2357195305
        RIMP2         total energy =     -1391.7467476003 a.u.

                    Orbital Energies (a.u.)
 --------------------------------------------------------------

 Alpha MOs
 -- Occupied --
-92.0078 -91.9914 -26.3345 -20.6104 -20.5472 -11.4077 -11.3758 -11.3095
-11.2927 -11.2914 -11.2878 -11.2818 -11.2692 -11.2294  -9.0064  -8.9954
 -6.6871  -6.6865  -6.6862  -6.6767  -6.6760  -6.6747  -1.6476  -1.4700
 -1.3650  -1.2285  -1.1485  -1.0684  -1.0268  -1.0047  -0.9686  -0.9093
 -0.8636  -0.7954  -0.7855  -0.7670  -0.7264  -0.7156  -0.6967  -0.6777
 -0.6772  -0.6686  -0.6087  -0.6041  -0.5951  -0.5920  -0.5860  -0.5622
 -0.5350  -0.5247  -0.5061  -0.4876  -0.4772  -0.4644  -0.4598  -0.4580
 -0.3882  -0.3456  -0.2766

          Ground-State Mulliken Net Atomic Charges

     Atom                 Charge (a.u.)
  ----------------------------------------
      1 C                     0.016177
      2 S                     0.096450
      3 C                    -0.261377
      4 C                    -0.081220
      5 C                    -0.006733
      6 C                     0.359966
      7 C                    -0.162255
      8 S                     0.036386
      9 C                     0.457828
     10 O                    -0.455435
     11 O                    -0.298706
     12 F                    -0.211731
     13 C                    -0.054840
     14 H                     0.116252
     15 H                     0.083958
     16 H                     0.083776
     17 C                    -0.380253
     18 H                     0.140870
     19 H                     0.169701
     20 H                     0.141463
     21 H                     0.209723
  ----------------------------------------
  Sum of atomic charges =     0.000000

                    Cartesian Multipole Moments
 -----------------------------------------------------------------
    Charge (ESU x 10^10)
                -0.0000
    Dipole Moment (Debye)
         X       1.9255      Y       0.6390      Z       3.1705
       Tot       3.7640
    Quadrupole Moments (Debye-Ang)
        XX     -94.5341     XY       3.1445     YY     -84.8776
        XZ      -4.3373     YZ      -9.8727     ZZ     -96.9039

 Total job time:  55.49s(wall), 1962.48s(cpu)
        *  Thank you very much for using Q-Chem.  Have a nice day.  *
