 Q-Chem 5.4, Q-Chem, Inc., Pleasanton, CA (2021)
 Q-Chem 5.4.0 for Intel X86 EM64T Linux

User input:
--------------------------------------------------------------
$molecule
0 1
C	-0.766296	-0.392188	1.022665
S	0.013704	0.055612	2.533365
C	1.377504	0.844212	1.750265
C	0.020204	0.061912	-0.042035
C	1.222204	0.757612	0.344365
C	-0.036396	0.027312	-1.463435
C	1.058904	0.659812	-2.084235
S	2.137604	1.286512	-0.943035
C	1.281604	0.783012	-3.537335
O	0.474704	0.313712	-4.327635
O	2.394504	1.421812	-3.981735
F	-0.999296	-0.533088	-2.223635
C	2.710204	1.592412	-5.312335
H	3.667404	2.144312	-5.347635
H	1.927504	2.169312	-5.852935
H	2.821904	0.618912	-5.839235
C	-0.766296	-1.827388	1.022665
H	-1.846196	-1.836388	1.031165
H	-0.766696	-2.511288	0.186765
H	-0.758296	-2.351788	1.966765
H	2.174304	1.304112	2.344165
$end

$rem
JOBTYPE		SP
EXCHANGE	HF
CORRELATION	pRIMP2
BASIS		cc-pvtz
METHOD		rimp2
AUX_BASIS	rimp2-cc-pvtz
SOLVENT_METHOD	PCM
PURECART	11111
SYMMETRY	false
MEM_TOTAL	110000
SCF_CONVERGENCE = 6
THRESH=10
GUI = 2
$end

$solvent
dielectric 4.90
$end
--------------------------------------------------------------

             Standard Nuclear Orientation (Angstroms)
    I     Atom           X                Y                Z
 ----------------------------------------------------------------
    1      C      -0.7662960000    -0.3921880000     1.0226650000
    2      S       0.0137040000     0.0556120000     2.5333650000
    3      C       1.3775040000     0.8442120000     1.7502650000
    4      C       0.0202040000     0.0619120000    -0.0420350000
    5      C       1.2222040000     0.7576120000     0.3443650000
    6      C      -0.0363960000     0.0273120000    -1.4634350000
    7      C       1.0589040000     0.6598120000    -2.0842350000
    8      S       2.1376040000     1.2865120000    -0.9430350000
    9      C       1.2816040000     0.7830120000    -3.5373350000
   10      O       0.4747040000     0.3137120000    -4.3276350000
   11      O       2.3945040000     1.4218120000    -3.9817350000
   12      F      -0.9992960000    -0.5330880000    -2.2236350000
   13      C       2.7102040000     1.5924120000    -5.3123350000
   14      H       3.6674040000     2.1443120000    -5.3476350000
   15      H       1.9275040000     2.1693120000    -5.8529350000
   16      H       2.8219040000     0.6189120000    -5.8392350000
   17      C      -0.7662960000    -1.8273880000     1.0226650000
   18      H      -1.8461960000    -1.8363880000     1.0311650000
   19      H      -0.7666960000    -2.5112880000     0.1867650000
   20      H      -0.7582960000    -2.3517880000     1.9667650000
   21      H       2.1743040000     1.3041120000     2.3441650000
 ----------------------------------------------------------------

   11   -1389.1685608864      9.80e-07  Convergence criterion met
 Total energy in the final basis set =    -1389.1685608864
        RIMP2         total energy =     -1391.6949444464 a.u.

                    Orbital Energies (a.u.)
 --------------------------------------------------------------

 Alpha MOs
 -- Occupied --
-92.0026 -91.9989 -26.3328 -20.6136 -20.5534 -11.4128 -11.3727 -11.3109
-11.3040 -11.2934 -11.2893 -11.2815 -11.2654 -11.2117  -9.0026  -9.0023
 -6.6838  -6.6832  -6.6829  -6.6819  -6.6819  -6.6819  -1.6460  -1.4737
 -1.3695  -1.2335  -1.1524  -1.0678  -1.0307  -1.0007  -0.9711  -0.9050
 -0.8675  -0.7973  -0.7871  -0.7724  -0.7289  -0.7150  -0.6964  -0.6798
 -0.6741  -0.6722  -0.6084  -0.6082  -0.5959  -0.5933  -0.5694  -0.5599
 -0.5339  -0.5203  -0.5145  -0.4952  -0.4831  -0.4629  -0.4627  -0.4367
 -0.3727  -0.3432  -0.2775

          Ground-State Mulliken Net Atomic Charges

     Atom                 Charge (a.u.)
  ----------------------------------------
      1 C                    -0.132862
      2 S                     0.106445
      3 C                    -0.175747
      4 C                    -0.006991
      5 C                    -0.032924
      6 C                     0.354814
      7 C                    -0.136310
      8 S                     0.056000
      9 C                     0.456353
     10 O                    -0.444249
     11 O                    -0.297006
     12 F                    -0.211759
     13 C                    -0.054762
     14 H                     0.117012
     15 H                     0.085107
     16 H                     0.084772
     17 C                    -0.403213
     18 H                     0.134133
     19 H                     0.153865
     20 H                     0.132381
     21 H                     0.214941
  ----------------------------------------
  Sum of atomic charges =     0.000000

                    Cartesian Multipole Moments
 -----------------------------------------------------------------
    Charge (ESU x 10^10)
                -0.0000
    Dipole Moment (Debye)
         X       3.6442      Y       0.9618      Z       2.9523
       Tot       4.7876
    Quadrupole Moments (Debye-Ang)
        XX     -88.7442     XY       6.3170     YY     -91.2301
        XZ      -8.6815     YZ      -5.9717     ZZ     -93.1636

 Total job time:  88.70s(wall), 2347.39s(cpu)
        *  Thank you very much for using Q-Chem.  Have a nice day.  *
