 Q-Chem 5.4, Q-Chem, Inc., Pleasanton, CA (2021)
 Q-Chem 5.4.0 for Intel X86 EM64T Linux

User input:
--------------------------------------------------------------
$molecule
0 1
C	-0.374012	-0.753180	1.022261
S	0.008088	0.061020	2.532961
C	0.672888	1.489220	1.749861
C	0.009788	0.069920	-0.042439
C	0.595388	1.329320	0.343961
C	-0.016812	0.009120	-1.463839
C	0.517688	1.155520	-2.084639
S	1.041888	2.287520	-0.943439
C	0.629488	1.384120	-3.537739
O	0.237588	0.536820	-4.328039
O	1.174688	2.545720	-3.982139
F	-0.484112	-1.002280	-2.224039
C	1.335488	2.866520	-5.312739
H	1.802988	3.867720	-5.348039
H	0.363388	2.890220	-5.853339
H	1.985388	2.133220	-5.839639
C	-0.374012	-2.188380	1.022261
H	-1.436112	-2.197380	1.218161
H	-0.519512	-2.872280	0.199161
H	-0.202212	-2.712780	1.950661
H	1.061788	2.323020	2.343761
$end

$rem
JOBTYPE		SP
EXCHANGE	HF
CORRELATION	pRIMP2
BASIS		cc-pvtz
METHOD		rimp2
AUX_BASIS	rimp2-cc-pvtz
SOLVENT_METHOD	PCM
PURECART	11111
SYMMETRY	false
MEM_TOTAL	110000
SCF_CONVERGENCE = 6
THRESH=10
GUI = 2
$end

$solvent
dielectric 4.90
$end
--------------------------------------------------------------

             Standard Nuclear Orientation (Angstroms)
    I     Atom           X                Y                Z
 ----------------------------------------------------------------
    1      C      -0.3740120000    -0.7531800000     1.0222610000
    2      S       0.0080880000     0.0610200000     2.5329610000
    3      C       0.6728880000     1.4892200000     1.7498610000
    4      C       0.0097880000     0.0699200000    -0.0424390000
    5      C       0.5953880000     1.3293200000     0.3439610000
    6      C      -0.0168120000     0.0091200000    -1.4638390000
    7      C       0.5176880000     1.1555200000    -2.0846390000
    8      S       1.0418880000     2.2875200000    -0.9434390000
    9      C       0.6294880000     1.3841200000    -3.5377390000
   10      O       0.2375880000     0.5368200000    -4.3280390000
   11      O       1.1746880000     2.5457200000    -3.9821390000
   12      F      -0.4841120000    -1.0022800000    -2.2240390000
   13      C       1.3354880000     2.8665200000    -5.3127390000
   14      H       1.8029880000     3.8677200000    -5.3480390000
   15      H       0.3633880000     2.8902200000    -5.8533390000
   16      H       1.9853880000     2.1332200000    -5.8396390000
   17      C      -0.3740120000    -2.1883800000     1.0222610000
   18      H      -1.4361120000    -2.1973800000     1.2181610000
   19      H      -0.5195120000    -2.8722800000     0.1991610000
   20      H      -0.2022120000    -2.7127800000     1.9506610000
   21      H       1.0617880000     2.3230200000     2.3437610000
 ----------------------------------------------------------------

   11   -1389.2394129973      4.80e-07  Convergence criterion met
 Total energy in the final basis set =    -1389.2394129973
        RIMP2         total energy =     -1391.7466802447 a.u.

                    Orbital Energies (a.u.)
 --------------------------------------------------------------

 Alpha MOs
 -- Occupied --
-92.0063 -91.9885 -26.3338 -20.6094 -20.5456 -11.4063 -11.3757 -11.3126
-11.2913 -11.2884 -11.2872 -11.2795 -11.2678 -11.2307  -9.0052  -8.9928
 -6.6860  -6.6854  -6.6849  -6.6741  -6.6734  -6.6720  -1.6467  -1.4689
 -1.3638  -1.2264  -1.1470  -1.0662  -1.0276  -1.0054  -0.9676  -0.9107
 -0.8629  -0.7959  -0.7843  -0.7664  -0.7257  -0.7145  -0.6953  -0.6768
 -0.6763  -0.6673  -0.6088  -0.6031  -0.5918  -0.5866  -0.5859  -0.5583
 -0.5308  -0.5255  -0.5185  -0.4945  -0.4791  -0.4602  -0.4570  -0.4561
 -0.3877  -0.3462  -0.2723

          Ground-State Mulliken Net Atomic Charges

     Atom                 Charge (a.u.)
  ----------------------------------------
      1 C                     0.018024
      2 S                     0.087212
      3 C                    -0.263603
      4 C                    -0.081978
      5 C                    -0.011994
      6 C                     0.378209
      7 C                    -0.167358
      8 S                     0.027452
      9 C                     0.457341
     10 O                    -0.457416
     11 O                    -0.298865
     12 F                    -0.212074
     13 C                    -0.054788
     14 H                     0.115991
     15 H                     0.083601
     16 H                     0.083576
     17 C                    -0.377406
     18 H                     0.142930
     19 H                     0.169589
     20 H                     0.150857
     21 H                     0.210699
  ----------------------------------------
  Sum of atomic charges =     0.000000

                    Cartesian Multipole Moments
 -----------------------------------------------------------------
    Charge (ESU x 10^10)
                -0.0000
    Dipole Moment (Debye)
         X       0.3226      Y       0.3684      Z       3.8302
       Tot       3.8614
    Quadrupole Moments (Debye-Ang)
        XX     -94.4754     XY       5.6693     YY     -83.8984
        XZ      -5.1515     YZ     -11.4437     ZZ     -96.1662

 Total job time:  53.42s(wall), 1899.61s(cpu)
        *  Thank you very much for using Q-Chem.  Have a nice day.  *
