 Q-Chem 5.4, Q-Chem, Inc., Pleasanton, CA (2021)
 Q-Chem 5.4.0 for Intel X86 EM64T Linux

User input:
--------------------------------------------------------------
$molecule
0 1
C	-0.307162	-0.782911	1.023580
S	0.002538	0.061489	2.534280
C	0.540338	1.542189	1.751180
C	0.003438	0.070589	-0.041120
C	0.477038	1.376089	0.345280
C	-0.017662	0.007589	-1.462520
C	0.414738	1.196189	-2.083320
S	0.838338	2.369589	-0.942120
C	0.506238	1.433689	-3.536420
O	0.189738	0.555489	-4.326720
O	0.948138	2.638389	-3.980820
F	-0.395062	-1.040711	-2.222720
C	1.080338	2.971989	-5.311420
H	1.458838	4.010189	-5.346720
H	0.109938	2.910889	-5.852020
H	1.791638	2.298089	-5.838320
C	-0.307162	-2.218111	1.023580
H	0.754938	-2.227111	0.827680
H	-0.161662	-2.902011	1.846680
H	-0.478962	-2.742511	0.095180
H	0.855038	2.406689	2.345080
$end

$rem
JOBTYPE		SP
EXCHANGE	HF
CORRELATION	pRIMP2
BASIS		cc-pvtz
METHOD		rimp2
AUX_BASIS	rimp2-cc-pvtz
SOLVENT_METHOD	PCM
PURECART	11111
SYMMETRY	false
MEM_TOTAL	110000
SCF_CONVERGENCE = 6
THRESH=10
GUI = 2
$end

$solvent
dielectric 4.90
$end
--------------------------------------------------------------

             Standard Nuclear Orientation (Angstroms)
    I     Atom           X                Y                Z
 ----------------------------------------------------------------
    1      C      -0.3071620000    -0.7829110000     1.0235800000
    2      S       0.0025380000     0.0614890000     2.5342800000
    3      C       0.5403380000     1.5421890000     1.7511800000
    4      C       0.0034380000     0.0705890000    -0.0411200000
    5      C       0.4770380000     1.3760890000     0.3452800000
    6      C      -0.0176620000     0.0075890000    -1.4625200000
    7      C       0.4147380000     1.1961890000    -2.0833200000
    8      S       0.8383380000     2.3695890000    -0.9421200000
    9      C       0.5062380000     1.4336890000    -3.5364200000
   10      O       0.1897380000     0.5554890000    -4.3267200000
   11      O       0.9481380000     2.6383890000    -3.9808200000
   12      F      -0.3950620000    -1.0407110000    -2.2227200000
   13      C       1.0803380000     2.9719890000    -5.3114200000
   14      H       1.4588380000     4.0101890000    -5.3467200000
   15      H       0.1099380000     2.9108890000    -5.8520200000
   16      H       1.7916380000     2.2980890000    -5.8383200000
   17      C      -0.3071620000    -2.2181110000     1.0235800000
   18      H       0.7549380000    -2.2271110000     0.8276800000
   19      H      -0.1616620000    -2.9020110000     1.8466800000
   20      H      -0.4789620000    -2.7425110000     0.0951800000
   21      H       0.8550380000     2.4066890000     2.3450800000
 ----------------------------------------------------------------

   11   -1389.2511329299      4.37e-07  Convergence criterion met
 Total energy in the final basis set =    -1389.2511329299
        RIMP2         total energy =     -1391.7550862150 a.u.

                    Orbital Energies (a.u.)
 --------------------------------------------------------------

 Alpha MOs
 -- Occupied --
-92.0063 -91.9883 -26.3346 -20.6091 -20.5448 -11.4057 -11.3767 -11.3206
-11.2921 -11.2871 -11.2867 -11.2747 -11.2664 -11.2367  -9.0051  -8.9925
 -6.6859  -6.6853  -6.6848  -6.6738  -6.6732  -6.6718  -1.6476  -1.4685
 -1.3632  -1.2269  -1.1482  -1.0681  -1.0267  -1.0059  -0.9675  -0.9104
 -0.8625  -0.7957  -0.7845  -0.7659  -0.7260  -0.7152  -0.6966  -0.6774
 -0.6761  -0.6672  -0.6102  -0.6026  -0.5980  -0.5880  -0.5850  -0.5599
 -0.5322  -0.5238  -0.5167  -0.4953  -0.4782  -0.4627  -0.4586  -0.4563
 -0.3894  -0.3470  -0.2719

          Ground-State Mulliken Net Atomic Charges

     Atom                 Charge (a.u.)
  ----------------------------------------
      1 C                     0.057183
      2 S                     0.087328
      3 C                    -0.278948
      4 C                    -0.107967
      5 C                    -0.008651
      6 C                     0.379101
      7 C                    -0.171145
      8 S                     0.026909
      9 C                     0.458511
     10 O                    -0.459224
     11 O                    -0.299250
     12 F                    -0.212578
     13 C                    -0.054799
     14 H                     0.115864
     15 H                     0.083625
     16 H                     0.083278
     17 C                    -0.379880
     18 H                     0.154725
     19 H                     0.170056
     20 H                     0.146812
     21 H                     0.209052
  ----------------------------------------
  Sum of atomic charges =     0.000000

                    Cartesian Multipole Moments
 -----------------------------------------------------------------
    Charge (ESU x 10^10)
                -0.0000
    Dipole Moment (Debye)
         X       1.4827      Y       0.0616      Z       3.6419
       Tot       3.9326
    Quadrupole Moments (Debye-Ang)
        XX     -95.9975     XY       1.5368     YY     -82.9709
        XZ      -2.8283     YZ     -11.7353     ZZ     -97.1890

 Total job time:  55.25s(wall), 1980.88s(cpu)
        *  Thank you very much for using Q-Chem.  Have a nice day.  *
