 Q-Chem 5.4, Q-Chem, Inc., Pleasanton, CA (2021)
 Q-Chem 5.4.0 for Intel X86 EM64T Linux

User input:
--------------------------------------------------------------
$molecule
0 1
C	-0.569820	-0.628442	1.024825
S	0.010080	0.059158	2.535525
C	1.021780	1.266558	1.752425
C	0.013980	0.067358	-0.039875
C	0.905480	1.132158	0.346525
C	-0.027420	0.015358	-1.461275
C	0.785480	0.984358	-2.082075
S	1.584780	1.942158	-0.940875
C	0.952580	1.176358	-3.535175
O	0.354880	0.459358	-4.325475
O	1.779880	2.157258	-3.979575
F	-0.740620	-0.840542	-2.221475
C	2.018280	2.425458	-5.310175
H	2.728980	3.271558	-5.345475
H	1.085480	2.699958	-5.850775
H	2.456180	1.548958	-5.837075
C	-0.569820	-2.063642	1.024825
H	-1.117120	-2.072642	0.093825
H	0.153880	-2.747542	0.606625
H	-1.383420	-2.588042	1.503825
H	1.613280	1.971358	2.346325
$end

$rem
JOBTYPE		SP
EXCHANGE	HF
CORRELATION	pRIMP2
BASIS		cc-pvtz
METHOD		rimp2
AUX_BASIS	rimp2-cc-pvtz
SOLVENT_METHOD	PCM
PURECART	11111
SYMMETRY	false
MEM_TOTAL	110000
SCF_CONVERGENCE = 6
THRESH=10
GUI = 2
$end

$solvent
dielectric 4.90
$end
--------------------------------------------------------------

             Standard Nuclear Orientation (Angstroms)
    I     Atom           X                Y                Z
 ----------------------------------------------------------------
    1      C      -0.5698200000    -0.6284420000     1.0248250000
    2      S       0.0100800000     0.0591580000     2.5355250000
    3      C       1.0217800000     1.2665580000     1.7524250000
    4      C       0.0139800000     0.0673580000    -0.0398750000
    5      C       0.9054800000     1.1321580000     0.3465250000
    6      C      -0.0274200000     0.0153580000    -1.4612750000
    7      C       0.7854800000     0.9843580000    -2.0820750000
    8      S       1.5847800000     1.9421580000    -0.9408750000
    9      C       0.9525800000     1.1763580000    -3.5351750000
   10      O       0.3548800000     0.4593580000    -4.3254750000
   11      O       1.7798800000     2.1572580000    -3.9795750000
   12      F      -0.7406200000    -0.8405420000    -2.2214750000
   13      C       2.0182800000     2.4254580000    -5.3101750000
   14      H       2.7289800000     3.2715580000    -5.3454750000
   15      H       1.0854800000     2.6999580000    -5.8507750000
   16      H       2.4561800000     1.5489580000    -5.8370750000
   17      C      -0.5698200000    -2.0636420000     1.0248250000
   18      H      -1.1171200000    -2.0726420000     0.0938250000
   19      H       0.1538800000    -2.7475420000     0.6066250000
   20      H      -1.3834200000    -2.5880420000     1.5038250000
   21      H       1.6132800000     1.9713580000     2.3463250000
 ----------------------------------------------------------------

   11   -1389.2233516431      6.35e-07  Convergence criterion met
 Total energy in the final basis set =    -1389.2233516431
        RIMP2         total energy =     -1391.7398816785 a.u.

                    Orbital Energies (a.u.)
 --------------------------------------------------------------

 Alpha MOs
 -- Occupied --
-92.0021 -91.9951 -26.3345 -20.6125 -20.5509 -11.4109 -11.3755 -11.2986
-11.2970 -11.2931 -11.2890 -11.2888 -11.2782 -11.2212  -9.0015  -8.9990
 -6.6822  -6.6814  -6.6812  -6.6803  -6.6796  -6.6783  -1.6478  -1.4723
 -1.3678  -1.2308  -1.1476  -1.0680  -1.0282  -1.0037  -0.9698  -0.9094
 -0.8653  -0.7962  -0.7871  -0.7692  -0.7276  -0.7161  -0.6968  -0.6789
 -0.6771  -0.6710  -0.6068  -0.6057  -0.5995  -0.5911  -0.5733  -0.5649
 -0.5410  -0.5257  -0.5086  -0.4832  -0.4788  -0.4621  -0.4613  -0.4412
 -0.3922  -0.3445  -0.2843

          Ground-State Mulliken Net Atomic Charges

     Atom                 Charge (a.u.)
  ----------------------------------------
      1 C                    -0.033966
      2 S                     0.094323
      3 C                    -0.214809
      4 C                    -0.071206
      5 C                    -0.021313
      6 C                     0.364969
      7 C                    -0.146447
      8 S                     0.043911
      9 C                     0.456950
     10 O                    -0.449047
     11 O                    -0.297654
     12 F                    -0.211847
     13 C                    -0.054606
     14 H                     0.116718
     15 H                     0.084591
     16 H                     0.084367
     17 C                    -0.368011
     18 H                     0.115332
     19 H                     0.158075
     20 H                     0.137932
     21 H                     0.211734
  ----------------------------------------
  Sum of atomic charges =     0.000000

                    Cartesian Multipole Moments
 -----------------------------------------------------------------
    Charge (ESU x 10^10)
                -0.0000
    Dipole Moment (Debye)
         X       2.1485      Y       1.3779      Z       2.6161
       Tot       3.6549
    Quadrupole Moments (Debye-Ang)
        XX     -91.8164     XY       6.0214     YY     -86.9246
        XZ      -6.8268     YZ      -7.8704     ZZ     -96.2189

 Total job time:  56.17s(wall), 1989.13s(cpu)
        *  Thank you very much for using Q-Chem.  Have a nice day.  *
