 Q-Chem 5.4, Q-Chem, Inc., Pleasanton, CA (2021)
 Q-Chem 5.4.0 for Intel X86 EM64T Linux

User input:
--------------------------------------------------------------
$molecule
0 1
C	0.000470	-0.836989	1.022261
S	0.002670	0.062411	2.532961
C	0.001670	1.637711	1.749861
C	0.000470	0.071211	-0.042439
C	-0.001030	1.460011	0.343961
C	0.002070	0.004811	-1.463839
C	0.001970	1.269711	-2.084639
S	-0.001330	2.517211	-0.943439
C	0.006670	1.524111	-3.537739
O	0.009670	0.590611	-4.328039
O	0.009870	2.807311	-3.982139
F	0.005970	-1.109289	-2.224039
C	0.020070	3.166011	-5.312739
H	0.020670	4.271011	-5.348039
H	-0.870930	2.776711	-5.853339
H	0.918970	2.776111	-5.839639
C	0.000470	-2.272189	1.022261
H	-1.061630	-2.281189	1.218161
H	-0.145030	-2.956089	0.199161
H	0.172270	-2.796589	1.950661
H	0.001670	2.557811	2.343761
$end

$rem
JOBTYPE		SP
EXCHANGE	HF
CORRELATION	pRIMP2
BASIS		cc-pvtz
METHOD		rimp2
AUX_BASIS	rimp2-cc-pvtz
SOLVENT_METHOD	PCM
PURECART	11111
SYMMETRY	false
MEM_TOTAL	110000
SCF_CONVERGENCE = 6
THRESH=10
GUI = 2
$end

$solvent
dielectric 4.90
$end
--------------------------------------------------------------

             Standard Nuclear Orientation (Angstroms)
    I     Atom           X                Y                Z
 ----------------------------------------------------------------
    1      C       0.0004700000    -0.8369890000     1.0222610000
    2      S       0.0026700000     0.0624110000     2.5329610000
    3      C       0.0016700000     1.6377110000     1.7498610000
    4      C       0.0004700000     0.0712110000    -0.0424390000
    5      C      -0.0010300000     1.4600110000     0.3439610000
    6      C       0.0020700000     0.0048110000    -1.4638390000
    7      C       0.0019700000     1.2697110000    -2.0846390000
    8      S      -0.0013300000     2.5172110000    -0.9434390000
    9      C       0.0066700000     1.5241110000    -3.5377390000
   10      O       0.0096700000     0.5906110000    -4.3280390000
   11      O       0.0098700000     2.8073110000    -3.9821390000
   12      F       0.0059700000    -1.1092890000    -2.2240390000
   13      C       0.0200700000     3.1660110000    -5.3127390000
   14      H       0.0206700000     4.2710110000    -5.3480390000
   15      H      -0.8709300000     2.7767110000    -5.8533390000
   16      H       0.9189700000     2.7761110000    -5.8396390000
   17      C       0.0004700000    -2.2721890000     1.0222610000
   18      H      -1.0616300000    -2.2811890000     1.2181610000
   19      H      -0.1450300000    -2.9560890000     0.1991610000
   20      H       0.1722700000    -2.7965890000     1.9506610000
   21      H       0.0016700000     2.5578110000     2.3437610000
 ----------------------------------------------------------------

   11   -1389.2571594571      4.11e-07  Convergence criterion met
 Total energy in the final basis set =    -1389.2571594571
        RIMP2         total energy =     -1391.7581887998 a.u.

                    Orbital Energies (a.u.)
 --------------------------------------------------------------

 Alpha MOs
 -- Occupied --
-92.0067 -91.9870 -26.3341 -20.6088 -20.5443 -11.4052 -11.3766 -11.3218
-11.2910 -11.2868 -11.2856 -11.2736 -11.2654 -11.2368  -9.0055  -8.9913
 -6.6864  -6.6858  -6.6852  -6.6726  -6.6719  -6.6705  -1.6470  -1.4682
 -1.3628  -1.2256  -1.1469  -1.0672  -1.0274  -1.0064  -0.9671  -0.9113
 -0.8622  -0.7958  -0.7839  -0.7655  -0.7256  -0.7146  -0.6966  -0.6778
 -0.6758  -0.6665  -0.6100  -0.6023  -0.5946  -0.5850  -0.5845  -0.5587
 -0.5321  -0.5295  -0.5190  -0.4943  -0.4780  -0.4622  -0.4583  -0.4559
 -0.3904  -0.3470  -0.2716

          Ground-State Mulliken Net Atomic Charges

     Atom                 Charge (a.u.)
  ----------------------------------------
      1 C                     0.043468
      2 S                     0.081524
      3 C                    -0.279779
      4 C                    -0.098461
      5 C                    -0.011992
      6 C                     0.404161
      7 C                    -0.174031
      8 S                     0.020703
      9 C                     0.460819
     10 O                    -0.460307
     11 O                    -0.299239
     12 F                    -0.214332
     13 C                    -0.055044
     14 H                     0.115834
     15 H                     0.083393
     16 H                     0.083417
     17 C                    -0.383180
     18 H                     0.150882
     19 H                     0.173231
     20 H                     0.148804
     21 H                     0.210130
  ----------------------------------------
  Sum of atomic charges =     0.000000

                    Cartesian Multipole Moments
 -----------------------------------------------------------------
    Charge (ESU x 10^10)
                -0.0000
    Dipole Moment (Debye)
         X      -0.7624      Y       0.0374      Z       3.9680
       Tot       4.0407
    Quadrupole Moments (Debye-Ang)
        XX     -96.6047     XY       1.9400     YY     -81.6462
        XZ      -0.7120     YZ     -12.8354     ZZ     -96.7678

 Total job time:  54.45s(wall), 1963.29s(cpu)
        *  Thank you very much for using Q-Chem.  Have a nice day.  *
