 Q-Chem 5.4, Q-Chem, Inc., Pleasanton, CA (2021)
 Q-Chem 5.4.0 for Intel X86 EM64T Linux

User input:
--------------------------------------------------------------
$molecule
0 1
C	-0.004064	-0.836989	1.023580
S	-0.001864	0.062411	2.534280
C	-0.002864	1.637711	1.751180
C	-0.004064	0.071211	-0.041120
C	-0.005564	1.460011	0.345280
C	-0.002464	0.004811	-1.462520
C	-0.002564	1.269711	-2.083320
S	-0.005864	2.517211	-0.942120
C	0.002136	1.524111	-3.536420
O	0.005136	0.590611	-4.326720
O	0.005336	2.807311	-3.980820
F	0.001436	-1.109289	-2.222720
C	0.015536	3.166011	-5.311420
H	0.016136	4.271011	-5.346720
H	-0.875464	2.776711	-5.852020
H	0.914436	2.776111	-5.838320
C	-0.004064	-2.272189	1.023580
H	1.058036	-2.281189	0.827680
H	0.141436	-2.956089	1.846680
H	-0.175864	-2.796589	0.095180
H	-0.002864	2.557811	2.345080
$end

$rem
JOBTYPE		SP
EXCHANGE	HF
CORRELATION	pRIMP2
BASIS		cc-pvtz
METHOD		rimp2
AUX_BASIS	rimp2-cc-pvtz
SOLVENT_METHOD	PCM
PURECART	11111
SYMMETRY	false
MEM_TOTAL	110000
SCF_CONVERGENCE = 6
THRESH=10
GUI = 2
$end

$solvent
dielectric 4.90
$end
--------------------------------------------------------------

             Standard Nuclear Orientation (Angstroms)
    I     Atom           X                Y                Z
 ----------------------------------------------------------------
    1      C      -0.0040640000    -0.8369890000     1.0235800000
    2      S      -0.0018640000     0.0624110000     2.5342800000
    3      C      -0.0028640000     1.6377110000     1.7511800000
    4      C      -0.0040640000     0.0712110000    -0.0411200000
    5      C      -0.0055640000     1.4600110000     0.3452800000
    6      C      -0.0024640000     0.0048110000    -1.4625200000
    7      C      -0.0025640000     1.2697110000    -2.0833200000
    8      S      -0.0058640000     2.5172110000    -0.9421200000
    9      C       0.0021360000     1.5241110000    -3.5364200000
   10      O       0.0051360000     0.5906110000    -4.3267200000
   11      O       0.0053360000     2.8073110000    -3.9808200000
   12      F       0.0014360000    -1.1092890000    -2.2227200000
   13      C       0.0155360000     3.1660110000    -5.3114200000
   14      H       0.0161360000     4.2710110000    -5.3467200000
   15      H      -0.8754640000     2.7767110000    -5.8520200000
   16      H       0.9144360000     2.7761110000    -5.8383200000
   17      C      -0.0040640000    -2.2721890000     1.0235800000
   18      H       1.0580360000    -2.2811890000     0.8276800000
   19      H       0.1414360000    -2.9560890000     1.8466800000
   20      H      -0.1758640000    -2.7965890000     0.0951800000
   21      H      -0.0028640000     2.5578110000     2.3450800000
 ----------------------------------------------------------------

   11   -1389.2573787877      4.17e-07  Convergence criterion met
 Total energy in the final basis set =    -1389.2573787877
        RIMP2         total energy =     -1391.7591618882 a.u.

                    Orbital Energies (a.u.)
 --------------------------------------------------------------

 Alpha MOs
 -- Occupied --
-92.0061 -91.9875 -26.3348 -20.6088 -20.5443 -11.4053 -11.3769 -11.3226
-11.2915 -11.2869 -11.2857 -11.2726 -11.2664 -11.2370  -9.0048  -8.9918
 -6.6857  -6.6851  -6.6846  -6.6731  -6.6724  -6.6710  -1.6477  -1.4682
 -1.3629  -1.2259  -1.1466  -1.0680  -1.0266  -1.0068  -0.9672  -0.9117
 -0.8621  -0.7957  -0.7844  -0.7653  -0.7258  -0.7153  -0.6966  -0.6774
 -0.6759  -0.6668  -0.6106  -0.6023  -0.5936  -0.5916  -0.5847  -0.5596
 -0.5346  -0.5232  -0.5167  -0.4950  -0.4778  -0.4626  -0.4585  -0.4559
 -0.3901  -0.3468  -0.2716

          Ground-State Mulliken Net Atomic Charges

     Atom                 Charge (a.u.)
  ----------------------------------------
      1 C                     0.052793
      2 S                     0.082648
      3 C                    -0.283441
      4 C                    -0.102015
      5 C                    -0.007215
      6 C                     0.396605
      7 C                    -0.171674
      8 S                     0.021296
      9 C                     0.460981
     10 O                    -0.460473
     11 O                    -0.299276
     12 F                    -0.214737
     13 C                    -0.055038
     14 H                     0.115882
     15 H                     0.083492
     16 H                     0.083301
     17 C                    -0.387222
     18 H                     0.151437
     19 H                     0.171570
     20 H                     0.152149
     21 H                     0.208938
  ----------------------------------------
  Sum of atomic charges =     0.000000

                    Cartesian Multipole Moments
 -----------------------------------------------------------------
    Charge (ESU x 10^10)
                -0.0000
    Dipole Moment (Debye)
         X       0.7653      Y       0.0075      Z       3.6781
       Tot       3.7569
    Quadrupole Moments (Debye-Ang)
        XX     -96.6048     XY      -1.8253     YY     -81.5970
        XZ       0.8649     YZ     -12.5037     ZZ     -97.3880

 Total job time:  53.31s(wall), 1914.63s(cpu)
        *  Thank you very much for using Q-Chem.  Have a nice day.  *
