 Q-Chem 5.4, Q-Chem, Inc., Pleasanton, CA (2021)
 Q-Chem 5.4.0 for Intel X86 EM64T Linux

User input:
--------------------------------------------------------------
$molecule
0 1
C	-0.081340	-0.833466	1.022358
S	-0.000740	0.062334	2.533058
C	0.135460	1.631734	1.749958
C	-0.002240	0.071334	-0.042342
C	0.117360	1.454934	0.344058
C	-0.006340	0.005034	-1.463742
C	0.103760	1.265034	-2.084542
S	0.209160	2.508134	-0.943342
C	0.130560	1.518134	-3.537642
O	0.052160	0.587934	-4.327942
O	0.245660	2.796134	-3.982042
F	-0.099540	-1.105166	-2.223942
C	0.287060	3.152634	-5.312642
H	0.383960	4.253334	-5.347942
H	-0.634440	2.842434	-5.853242
H	1.148560	2.685834	-5.839542
C	-0.081340	-2.268666	1.022358
H	0.936360	-2.277666	1.383758
H	-0.366840	-2.952566	1.807958
H	0.234060	-2.793066	0.132458
H	0.215760	2.548234	2.343858
$end

$rem
JOBTYPE		SP
EXCHANGE	HF
CORRELATION	pRIMP2
BASIS		cc-pvtz
METHOD		rimp2
AUX_BASIS	rimp2-cc-pvtz
SOLVENT_METHOD	PCM
PURECART	11111
SYMMETRY	false
MEM_TOTAL	110000
SCF_CONVERGENCE = 6
THRESH=10
GUI = 2
$end

$solvent
dielectric 4.90
$end
--------------------------------------------------------------

             Standard Nuclear Orientation (Angstroms)
    I     Atom           X                Y                Z
 ----------------------------------------------------------------
    1      C      -0.0813400000    -0.8334660000     1.0223580000
    2      S      -0.0007400000     0.0623340000     2.5330580000
    3      C       0.1354600000     1.6317340000     1.7499580000
    4      C      -0.0022400000     0.0713340000    -0.0423420000
    5      C       0.1173600000     1.4549340000     0.3440580000
    6      C      -0.0063400000     0.0050340000    -1.4637420000
    7      C       0.1037600000     1.2650340000    -2.0845420000
    8      S       0.2091600000     2.5081340000    -0.9433420000
    9      C       0.1305600000     1.5181340000    -3.5376420000
   10      O       0.0521600000     0.5879340000    -4.3279420000
   11      O       0.2456600000     2.7961340000    -3.9820420000
   12      F      -0.0995400000    -1.1051660000    -2.2239420000
   13      C       0.2870600000     3.1526340000    -5.3126420000
   14      H       0.3839600000     4.2533340000    -5.3479420000
   15      H      -0.6344400000     2.8424340000    -5.8532420000
   16      H       1.1485600000     2.6858340000    -5.8395420000
   17      C      -0.0813400000    -2.2686660000     1.0223580000
   18      H       0.9363600000    -2.2776660000     1.3837580000
   19      H      -0.3668400000    -2.9525660000     1.8079580000
   20      H       0.2340600000    -2.7930660000     0.1324580000
   21      H       0.2157600000     2.5482340000     2.3438580000
 ----------------------------------------------------------------

   11   -1389.2568242587      4.17e-07  Convergence criterion met
 Total energy in the final basis set =    -1389.2568242587
        RIMP2         total energy =     -1391.7584092842 a.u.

                    Orbital Energies (a.u.)
 --------------------------------------------------------------

 Alpha MOs
 -- Occupied --
-92.0051 -91.9873 -26.3341 -20.6090 -20.5448 -11.4057 -11.3767 -11.3208
-11.2910 -11.2870 -11.2866 -11.2749 -11.2671 -11.2360  -9.0041  -8.9916
 -6.6850  -6.6844  -6.6838  -6.6729  -6.6722  -6.6708  -1.6470  -1.4685
 -1.3632  -1.2260  -1.1470  -1.0672  -1.0275  -1.0063  -0.9673  -0.9111
 -0.8624  -0.7960  -0.7841  -0.7659  -0.7259  -0.7146  -0.6960  -0.6769
 -0.6760  -0.6668  -0.6104  -0.6026  -0.5975  -0.5855  -0.5852  -0.5593
 -0.5338  -0.5264  -0.5169  -0.4933  -0.4780  -0.4618  -0.4584  -0.4561
 -0.3915  -0.3468  -0.2724

          Ground-State Mulliken Net Atomic Charges

     Atom                 Charge (a.u.)
  ----------------------------------------
      1 C                     0.046562
      2 S                     0.075650
      3 C                    -0.274154
      4 C                    -0.097441
      5 C                    -0.015036
      6 C                     0.400064
      7 C                    -0.169766
      8 S                     0.021168
      9 C                     0.460573
     10 O                    -0.459349
     11 O                    -0.299060
     12 F                    -0.213991
     13 C                    -0.055093
     14 H                     0.115932
     15 H                     0.083635
     16 H                     0.083405
     17 C                    -0.380240
     18 H                     0.149218
     19 H                     0.168520
     20 H                     0.149398
     21 H                     0.210005
  ----------------------------------------
  Sum of atomic charges =     0.000000

                    Cartesian Multipole Moments
 -----------------------------------------------------------------
    Charge (ESU x 10^10)
                -0.0000
    Dipole Moment (Debye)
         X       0.9179      Y       0.1359      Z       3.9876
       Tot       4.0942
    Quadrupole Moments (Debye-Ang)
        XX     -96.5808     XY      -0.7963     YY     -81.7675
        XZ      -0.4364     YZ     -13.2701     ZZ     -96.4976

 Total job time:  55.35s(wall), 2000.92s(cpu)
        *  Thank you very much for using Q-Chem.  Have a nice day.  *
