 Q-Chem 5.4, Q-Chem, Inc., Pleasanton, CA (2021)
 Q-Chem 5.4.0 for Intel X86 EM64T Linux

User input:
--------------------------------------------------------------
$molecule
0 1
C	-0.311549	-0.783306	1.023176
S	-0.001849	0.061094	2.533876
C	0.535951	1.541794	1.750776
C	-0.000949	0.070194	-0.041524
C	0.472651	1.375694	0.344876
C	-0.022049	0.007194	-1.462924
C	0.410351	1.195794	-2.083724
S	0.833951	2.369194	-0.942524
C	0.501851	1.433294	-3.536824
O	0.185351	0.555094	-4.327124
O	0.943751	2.637994	-3.981224
F	-0.399449	-1.041106	-2.223124
C	1.075951	2.971594	-5.311824
H	1.454451	4.009794	-5.347124
H	0.105551	2.910494	-5.852424
H	1.787251	2.297694	-5.838724
C	-0.186449	-2.213006	1.023176
H	0.890151	-2.127806	1.014676
H	-0.126549	-2.894306	1.859076
H	-0.148749	-2.736106	0.079076
H	0.850651	2.406294	2.344676
$end

$rem
JOBTYPE		SP
EXCHANGE	HF
CORRELATION	pRIMP2
BASIS		cc-pvtz
METHOD		rimp2
AUX_BASIS	rimp2-cc-pvtz
SOLVENT_METHOD	PCM
PURECART	11111
SYMMETRY	false
MEM_TOTAL	110000
SCF_CONVERGENCE = 6
THRESH=10
GUI = 2
$end

$solvent
dielectric 4.90
$end
--------------------------------------------------------------

             Standard Nuclear Orientation (Angstroms)
    I     Atom           X                Y                Z
 ----------------------------------------------------------------
    1      C      -0.3115490000    -0.7833060000     1.0231760000
    2      S      -0.0018490000     0.0610940000     2.5338760000
    3      C       0.5359510000     1.5417940000     1.7507760000
    4      C      -0.0009490000     0.0701940000    -0.0415240000
    5      C       0.4726510000     1.3756940000     0.3448760000
    6      C      -0.0220490000     0.0071940000    -1.4629240000
    7      C       0.4103510000     1.1957940000    -2.0837240000
    8      S       0.8339510000     2.3691940000    -0.9425240000
    9      C       0.5018510000     1.4332940000    -3.5368240000
   10      O       0.1853510000     0.5550940000    -4.3271240000
   11      O       0.9437510000     2.6379940000    -3.9812240000
   12      F      -0.3994490000    -1.0411060000    -2.2231240000
   13      C       1.0759510000     2.9715940000    -5.3118240000
   14      H       1.4544510000     4.0097940000    -5.3471240000
   15      H       0.1055510000     2.9104940000    -5.8524240000
   16      H       1.7872510000     2.2976940000    -5.8387240000
   17      C      -0.1864490000    -2.2130060000     1.0231760000
   18      H       0.8901510000    -2.1278060000     1.0146760000
   19      H      -0.1265490000    -2.8943060000     1.8590760000
   20      H      -0.1487490000    -2.7361060000     0.0790760000
   21      H       0.8506510000     2.4062940000     2.3446760000
 ----------------------------------------------------------------

   11   -1389.2473216497      4.48e-07  Convergence criterion met
 Total energy in the final basis set =    -1389.2473216497
        RIMP2         total energy =     -1391.7521889817 a.u.

                    Orbital Energies (a.u.)
 --------------------------------------------------------------

 Alpha MOs
 -- Occupied --
-92.0052 -91.9885 -26.3344 -20.6093 -20.5451 -11.4060 -11.3767 -11.3191
-11.2921 -11.2874 -11.2871 -11.2767 -11.2672 -11.2365  -9.0043  -8.9927
 -6.6851  -6.6845  -6.6840  -6.6740  -6.6734  -6.6720  -1.6474  -1.4687
 -1.3635  -1.2274  -1.1490  -1.0680  -1.0271  -1.0054  -0.9677  -0.9098
 -0.8628  -0.7960  -0.7846  -0.7664  -0.7262  -0.7151  -0.6963  -0.6772
 -0.6762  -0.6674  -0.6099  -0.6029  -0.6000  -0.5863  -0.5839  -0.5596
 -0.5299  -0.5264  -0.5190  -0.4952  -0.4785  -0.4614  -0.4583  -0.4564
 -0.3896  -0.3471  -0.2719

          Ground-State Mulliken Net Atomic Charges

     Atom                 Charge (a.u.)
  ----------------------------------------
      1 C                     0.062981
      2 S                     0.084858
      3 C                    -0.274111
      4 C                    -0.117563
      5 C                    -0.008040
      6 C                     0.374254
      7 C                    -0.168652
      8 S                     0.028075
      9 C                     0.458148
     10 O                    -0.458464
     11 O                    -0.299182
     12 F                    -0.211730
     13 C                    -0.054747
     14 H                     0.115909
     15 H                     0.083702
     16 H                     0.083330
     17 C                    -0.375775
     18 H                     0.154940
     19 H                     0.167789
     20 H                     0.144922
     21 H                     0.209359
  ----------------------------------------
  Sum of atomic charges =     0.000000

                    Cartesian Multipole Moments
 -----------------------------------------------------------------
    Charge (ESU x 10^10)
                -0.0000
    Dipole Moment (Debye)
         X       1.6913      Y       0.2360      Z       3.7144
       Tot       4.0882
    Quadrupole Moments (Debye-Ang)
        XX     -95.8853     XY       1.1699     YY     -83.3489
        XZ      -2.7602     YZ     -11.8879     ZZ     -96.8419

 Total job time:  53.26s(wall), 1902.77s(cpu)
        *  Thank you very much for using Q-Chem.  Have a nice day.  *
