 Q-Chem 5.4, Q-Chem, Inc., Pleasanton, CA (2021)
 Q-Chem 5.4.0 for Intel X86 EM64T Linux

User input:
--------------------------------------------------------------
$molecule
0 1
C	-0.305847	-0.782911	1.025081
S	0.003853	0.061489	2.535781
C	0.541653	1.542189	1.752681
C	0.004753	0.070589	-0.039619
C	0.478353	1.376089	0.346781
C	-0.016347	0.007589	-1.461019
C	0.416053	1.196189	-2.081819
S	0.839653	2.369589	-0.940619
C	0.507553	1.433689	-3.534919
O	0.191053	0.555489	-4.325219
O	0.949453	2.638389	-3.979319
F	-0.393747	-1.040711	-2.221219
C	1.081653	2.971989	-5.309919
H	1.460153	4.010189	-5.345219
H	0.111253	2.910889	-5.850519
H	1.792953	2.298089	-5.836819
C	-0.305847	-2.218111	1.025081
H	0.226753	-2.227111	0.085581
H	0.418253	-2.902011	1.442681
H	-1.127447	-2.742511	0.559981
H	0.856353	2.406689	2.346581
$end

$rem
JOBTYPE		SP
EXCHANGE	HF
CORRELATION	pRIMP2
BASIS		cc-pvtz
METHOD		rimp2
AUX_BASIS	rimp2-cc-pvtz
SOLVENT_METHOD	PCM
PURECART	11111
SYMMETRY	false
MEM_TOTAL	110000
SCF_CONVERGENCE = 6
THRESH=10
GUI = 2
$end

$solvent
dielectric 4.90
$end
--------------------------------------------------------------

             Standard Nuclear Orientation (Angstroms)
    I     Atom           X                Y                Z
 ----------------------------------------------------------------
    1      C      -0.3058470000    -0.7829110000     1.0250810000
    2      S       0.0038530000     0.0614890000     2.5357810000
    3      C       0.5416530000     1.5421890000     1.7526810000
    4      C       0.0047530000     0.0705890000    -0.0396190000
    5      C       0.4783530000     1.3760890000     0.3467810000
    6      C      -0.0163470000     0.0075890000    -1.4610190000
    7      C       0.4160530000     1.1961890000    -2.0818190000
    8      S       0.8396530000     2.3695890000    -0.9406190000
    9      C       0.5075530000     1.4336890000    -3.5349190000
   10      O       0.1910530000     0.5554890000    -4.3252190000
   11      O       0.9494530000     2.6383890000    -3.9793190000
   12      F      -0.3937470000    -1.0407110000    -2.2212190000
   13      C       1.0816530000     2.9719890000    -5.3099190000
   14      H       1.4601530000     4.0101890000    -5.3452190000
   15      H       0.1112530000     2.9108890000    -5.8505190000
   16      H       1.7929530000     2.2980890000    -5.8368190000
   17      C      -0.3058470000    -2.2181110000     1.0250810000
   18      H       0.2267530000    -2.2271110000     0.0855810000
   19      H       0.4182530000    -2.9020110000     1.4426810000
   20      H      -1.1274470000    -2.7425110000     0.5599810000
   21      H       0.8563530000     2.4066890000     2.3465810000
 ----------------------------------------------------------------

   11   -1389.2453976460      5.08e-07  Convergence criterion met
 Total energy in the final basis set =    -1389.2453976460
        RIMP2         total energy =     -1391.7545226023 a.u.

                    Orbital Energies (a.u.)
 --------------------------------------------------------------

 Alpha MOs
 -- Occupied --
-92.0058 -91.9912 -26.3352 -20.6108 -20.5479 -11.4083 -11.3762 -11.3087
-11.2925 -11.2920 -11.2879 -11.2827 -11.2719 -11.2282  -9.0045  -8.9953
 -6.6853  -6.6847  -6.6843  -6.6766  -6.6759  -6.6746  -1.6483  -1.4704
 -1.3655  -1.2282  -1.1464  -1.0682  -1.0269  -1.0056  -0.9686  -0.9107
 -0.8637  -0.7956  -0.7861  -0.7671  -0.7266  -0.7163  -0.6972  -0.6781
 -0.6775  -0.6690  -0.6085  -0.6045  -0.5964  -0.5892  -0.5853  -0.5648
 -0.5403  -0.5248  -0.5051  -0.4829  -0.4708  -0.4661  -0.4603  -0.4570
 -0.3929  -0.3451  -0.2802

          Ground-State Mulliken Net Atomic Charges

     Atom                 Charge (a.u.)
  ----------------------------------------
      1 C                     0.029455
      2 S                     0.088740
      3 C                    -0.255667
      4 C                    -0.086939
      5 C                    -0.010653
      6 C                     0.361594
      7 C                    -0.152391
      8 S                     0.033776
      9 C                     0.457219
     10 O                    -0.454340
     11 O                    -0.298328
     12 F                    -0.212782
     13 C                    -0.054787
     14 H                     0.116328
     15 H                     0.084097
     16 H                     0.083822
     17 C                    -0.374247
     18 H                     0.128678
     19 H                     0.166093
     20 H                     0.140417
     21 H                     0.209916
  ----------------------------------------
  Sum of atomic charges =     0.000000

                    Cartesian Multipole Moments
 -----------------------------------------------------------------
    Charge (ESU x 10^10)
                -0.0000
    Dipole Moment (Debye)
         X       1.3092      Y       0.9359      Z       2.9194
       Tot       3.3336
    Quadrupole Moments (Debye-Ang)
        XX     -95.1762     XY       2.3554     YY     -83.4217
        XZ      -2.8850     YZ     -10.2507     ZZ     -97.3099

 Total job time:  55.26s(wall), 2007.33s(cpu)
        *  Thank you very much for using Q-Chem.  Have a nice day.  *
