 Q-Chem 5.4, Q-Chem, Inc., Pleasanton, CA (2021)
 Q-Chem 5.4.0 for Intel X86 EM64T Linux

User input:
--------------------------------------------------------------
$molecule
0 1
C	-0.000484	-0.836989	1.020958
S	0.001716	0.062411	2.531658
C	0.000716	1.637711	1.748558
C	-0.000484	0.071211	-0.043742
C	-0.001984	1.460011	0.342658
C	0.001116	0.004811	-1.465142
C	0.001016	1.269711	-2.085942
S	-0.002284	2.517211	-0.944742
C	0.005716	1.524111	-3.539042
O	0.008716	0.590611	-4.329342
O	0.008916	2.807311	-3.983442
F	0.005016	-1.109289	-2.225342
C	0.019116	3.166011	-5.314042
H	0.019716	4.271011	-5.349342
H	-0.871884	2.776711	-5.854642
H	0.918016	2.776111	-5.840942
C	-0.000484	-2.272189	1.020958
H	-0.688184	-2.281189	1.853658
H	-0.640984	-2.956089	0.483958
H	0.727916	-2.796589	1.621658
H	0.000716	2.557811	2.342458
$end

$rem
JOBTYPE		SP
EXCHANGE	HF
CORRELATION	pRIMP2
BASIS		cc-pvtz
METHOD		rimp2
AUX_BASIS	rimp2-cc-pvtz
SOLVENT_METHOD	PCM
PURECART	11111
SYMMETRY	false
MEM_TOTAL	110000
SCF_CONVERGENCE = 6
THRESH=10
GUI = 2
$end

$solvent
dielectric 4.90
$end
--------------------------------------------------------------

             Standard Nuclear Orientation (Angstroms)
    I     Atom           X                Y                Z
 ----------------------------------------------------------------
    1      C      -0.0004840000    -0.8369890000     1.0209580000
    2      S       0.0017160000     0.0624110000     2.5316580000
    3      C       0.0007160000     1.6377110000     1.7485580000
    4      C      -0.0004840000     0.0712110000    -0.0437420000
    5      C      -0.0019840000     1.4600110000     0.3426580000
    6      C       0.0011160000     0.0048110000    -1.4651420000
    7      C       0.0010160000     1.2697110000    -2.0859420000
    8      S      -0.0022840000     2.5172110000    -0.9447420000
    9      C       0.0057160000     1.5241110000    -3.5390420000
   10      O       0.0087160000     0.5906110000    -4.3293420000
   11      O       0.0089160000     2.8073110000    -3.9834420000
   12      F       0.0050160000    -1.1092890000    -2.2253420000
   13      C       0.0191160000     3.1660110000    -5.3140420000
   14      H       0.0197160000     4.2710110000    -5.3493420000
   15      H      -0.8718840000     2.7767110000    -5.8546420000
   16      H       0.9180160000     2.7761110000    -5.8409420000
   17      C      -0.0004840000    -2.2721890000     1.0209580000
   18      H      -0.6881840000    -2.2811890000     1.8536580000
   19      H      -0.6409840000    -2.9560890000     0.4839580000
   20      H       0.7279160000    -2.7965890000     1.6216580000
   21      H       0.0007160000     2.5578110000     2.3424580000
 ----------------------------------------------------------------

   11   -1389.2537711922      4.48e-07  Convergence criterion met
 Total energy in the final basis set =    -1389.2537711922
        RIMP2         total energy =     -1391.7576342871 a.u.

                    Orbital Energies (a.u.)
 --------------------------------------------------------------

 Alpha MOs
 -- Occupied --
-92.0076 -91.9884 -26.3332 -20.6098 -20.5462 -11.4068 -11.3757 -11.3134
-11.2909 -11.2893 -11.2873 -11.2802 -11.2679 -11.2311  -9.0065  -8.9926
 -6.6873  -6.6867  -6.6862  -6.6739  -6.6733  -6.6719  -1.6461  -1.4693
 -1.3642  -1.2262  -1.1468  -1.0656  -1.0290  -1.0057  -0.9679  -0.9105
 -0.8635  -0.7963  -0.7839  -0.7668  -0.7259  -0.7140  -0.6957  -0.6768
 -0.6766  -0.6673  -0.6097  -0.6035  -0.5965  -0.5866  -0.5772  -0.5647
 -0.5424  -0.5247  -0.5084  -0.4860  -0.4791  -0.4620  -0.4590  -0.4570
 -0.3937  -0.3465  -0.2773

          Ground-State Mulliken Net Atomic Charges

     Atom                 Charge (a.u.)
  ----------------------------------------
      1 C                     0.037622
      2 S                     0.080395
      3 C                    -0.262325
      4 C                    -0.086320
      5 C                    -0.014199
      6 C                     0.395305
      7 C                    -0.166553
      8 S                     0.024151
      9 C                     0.459756
     10 O                    -0.456631
     11 O                    -0.298656
     12 F                    -0.213599
     13 C                    -0.055008
     14 H                     0.116065
     15 H                     0.083764
     16 H                     0.083754
     17 C                    -0.373946
     18 H                     0.126747
     19 H                     0.165546
     20 H                     0.142740
     21 H                     0.211392
  ----------------------------------------
  Sum of atomic charges =     0.000000

                    Cartesian Multipole Moments
 -----------------------------------------------------------------
    Charge (ESU x 10^10)
                -0.0000
    Dipole Moment (Debye)
         X      -0.4397      Y       0.7155      Z       4.1601
       Tot       4.2440
    Quadrupole Moments (Debye-Ang)
        XX     -96.1797     XY       1.2754     YY     -82.0622
        XZ      -0.1538     YZ     -13.4224     ZZ     -95.4566

 Total job time:  54.05s(wall), 1947.96s(cpu)
        *  Thank you very much for using Q-Chem.  Have a nice day.  *
