 Q-Chem 5.4, Q-Chem, Inc., Pleasanton, CA (2021)
 Q-Chem 5.4.0 for Intel X86 EM64T Linux

User input:
--------------------------------------------------------------
$molecule
0 1
C	-0.154397	-0.823218	1.020958
S	0.004003	0.062182	2.531658
C	0.276503	1.613782	1.748558
C	0.003303	0.071182	-0.043742
C	0.243003	1.439182	0.342658
C	-0.006597	0.005582	-1.465142
C	0.212903	1.251182	-2.085942
S	0.426203	2.480282	-0.944742
C	0.261703	1.500982	-3.539042
O	0.102503	0.581182	-4.329342
O	0.487703	2.764082	-3.983442
F	-0.196197	-1.092318	-2.225342
C	0.560003	3.115582	-5.314042
H	0.752403	4.203682	-5.349342
H	-0.385097	2.886882	-5.854642
H	1.377503	2.575482	-5.840942
C	-0.154397	-2.258418	1.020958
H	-0.842097	-2.267418	1.853658
H	-0.794897	-2.942318	0.483958
H	0.574003	-2.782818	1.621658
H	0.436303	2.519782	2.342458
$end

$rem
JOBTYPE		SP
EXCHANGE	HF
CORRELATION	pRIMP2
BASIS		cc-pvtz
METHOD		rimp2
AUX_BASIS	rimp2-cc-pvtz
SOLVENT_METHOD	PCM
PURECART	11111
SYMMETRY	false
MEM_TOTAL	110000
SCF_CONVERGENCE = 6
THRESH=10
GUI = 2
$end

$solvent
dielectric 4.90
$end
--------------------------------------------------------------

             Standard Nuclear Orientation (Angstroms)
    I     Atom           X                Y                Z
 ----------------------------------------------------------------
    1      C      -0.1543970000    -0.8232180000     1.0209580000
    2      S       0.0040030000     0.0621820000     2.5316580000
    3      C       0.2765030000     1.6137820000     1.7485580000
    4      C       0.0033030000     0.0711820000    -0.0437420000
    5      C       0.2430030000     1.4391820000     0.3426580000
    6      C      -0.0065970000     0.0055820000    -1.4651420000
    7      C       0.2129030000     1.2511820000    -2.0859420000
    8      S       0.4262030000     2.4802820000    -0.9447420000
    9      C       0.2617030000     1.5009820000    -3.5390420000
   10      O       0.1025030000     0.5811820000    -4.3293420000
   11      O       0.4877030000     2.7640820000    -3.9834420000
   12      F      -0.1961970000    -1.0923180000    -2.2253420000
   13      C       0.5600030000     3.1155820000    -5.3140420000
   14      H       0.7524030000     4.2036820000    -5.3493420000
   15      H      -0.3850970000     2.8868820000    -5.8546420000
   16      H       1.3775030000     2.5754820000    -5.8409420000
   17      C      -0.1543970000    -2.2584180000     1.0209580000
   18      H      -0.8420970000    -2.2674180000     1.8536580000
   19      H      -0.7948970000    -2.9423180000     0.4839580000
   20      H       0.5740030000    -2.7828180000     1.6216580000
   21      H       0.4363030000     2.5197820000     2.3424580000
 ----------------------------------------------------------------

   11   -1389.2517028753      4.61e-07  Convergence criterion met
 Total energy in the final basis set =    -1389.2517028753
        RIMP2         total energy =     -1391.7565454675 a.u.

                    Orbital Energies (a.u.)
 --------------------------------------------------------------

 Alpha MOs
 -- Occupied --
-92.0082 -91.9887 -26.3331 -20.6098 -20.5464 -11.4069 -11.3755 -11.3118
-11.2911 -11.2897 -11.2873 -11.2812 -11.2679 -11.2304  -9.0069  -8.9929
 -6.6877  -6.6872  -6.6867  -6.6742  -6.6736  -6.6722  -1.6460  -1.4694
 -1.3643  -1.2263  -1.1467  -1.0655  -1.0290  -1.0056  -0.9679  -0.9105
 -0.8636  -0.7963  -0.7839  -0.7669  -0.7259  -0.7139  -0.6955  -0.6766
 -0.6765  -0.6674  -0.6098  -0.6036  -0.5955  -0.5867  -0.5795  -0.5636
 -0.5410  -0.5249  -0.5080  -0.4850  -0.4795  -0.4623  -0.4591  -0.4572
 -0.3930  -0.3465  -0.2777

          Ground-State Mulliken Net Atomic Charges

     Atom                 Charge (a.u.)
  ----------------------------------------
      1 C                     0.019092
      2 S                     0.081360
      3 C                    -0.257791
      4 C                    -0.070095
      5 C                    -0.014362
      6 C                     0.383900
      7 C                    -0.164605
      8 S                     0.025115
      9 C                     0.458952
     10 O                    -0.456082
     11 O                    -0.298552
     12 F                    -0.212983
     13 C                    -0.054950
     14 H                     0.116063
     15 H                     0.083763
     16 H                     0.083786
     17 C                    -0.369215
     18 H                     0.124793
     19 H                     0.166872
     20 H                     0.143472
     21 H                     0.211467
  ----------------------------------------
  Sum of atomic charges =     0.000000

                    Cartesian Multipole Moments
 -----------------------------------------------------------------
    Charge (ESU x 10^10)
                -0.0000
    Dipole Moment (Debye)
         X       0.0231      Y       0.7774      Z       4.1371
       Tot       4.2096
    Quadrupole Moments (Debye-Ang)
        XX     -95.7595     XY       2.9668     YY     -82.4237
        XZ      -2.0339     YZ     -13.1459     ZZ     -95.3778

 Total job time:  53.36s(wall), 1917.94s(cpu)
        *  Thank you very much for using Q-Chem.  Have a nice day.  *
