 Q-Chem 5.4, Q-Chem, Inc., Pleasanton, CA (2021)
 Q-Chem 5.4.0 for Intel X86 EM64T Linux

User input:
--------------------------------------------------------------
$molecule
0 1
C	-0.569097	-0.628442	1.021878
S	0.010803	0.059158	2.532578
C	1.022503	1.266558	1.749478
C	0.014703	0.067358	-0.042822
C	0.906203	1.132158	0.343578
C	-0.026697	0.015358	-1.464222
C	0.786203	0.984358	-2.085022
S	1.585503	1.942158	-0.943822
C	0.953303	1.176358	-3.538122
O	0.355603	0.459358	-4.328422
O	1.780603	2.157258	-3.982522
F	-0.739897	-0.840542	-2.224422
C	2.019003	2.425458	-5.313122
H	2.729703	3.271558	-5.348422
H	1.086203	2.699958	-5.853722
H	2.456903	1.548958	-5.840022
C	-0.569097	-2.063642	1.021878
H	-1.580997	-2.072642	1.399178
H	-0.855297	-2.747542	0.236578
H	-0.238697	-2.588042	1.906278
H	1.614003	1.971358	2.343378
$end

$rem
JOBTYPE		SP
EXCHANGE	HF
CORRELATION	pRIMP2
BASIS		cc-pvtz
METHOD		rimp2
AUX_BASIS	rimp2-cc-pvtz
SOLVENT_METHOD	PCM
PURECART	11111
SYMMETRY	false
MEM_TOTAL	110000
SCF_CONVERGENCE = 6
THRESH=10
GUI = 2
$end

$solvent
dielectric 4.90
$end
--------------------------------------------------------------

             Standard Nuclear Orientation (Angstroms)
    I     Atom           X                Y                Z
 ----------------------------------------------------------------
    1      C      -0.5690970000    -0.6284420000     1.0218780000
    2      S       0.0108030000     0.0591580000     2.5325780000
    3      C       1.0225030000     1.2665580000     1.7494780000
    4      C       0.0147030000     0.0673580000    -0.0428220000
    5      C       0.9062030000     1.1321580000     0.3435780000
    6      C      -0.0266970000     0.0153580000    -1.4642220000
    7      C       0.7862030000     0.9843580000    -2.0850220000
    8      S       1.5855030000     1.9421580000    -0.9438220000
    9      C       0.9533030000     1.1763580000    -3.5381220000
   10      O       0.3556030000     0.4593580000    -4.3284220000
   11      O       1.7806030000     2.1572580000    -3.9825220000
   12      F      -0.7398970000    -0.8405420000    -2.2244220000
   13      C       2.0190030000     2.4254580000    -5.3131220000
   14      H       2.7297030000     3.2715580000    -5.3484220000
   15      H       1.0862030000     2.6999580000    -5.8537220000
   16      H       2.4569030000     1.5489580000    -5.8400220000
   17      C      -0.5690970000    -2.0636420000     1.0218780000
   18      H      -1.5809970000    -2.0726420000     1.3991780000
   19      H      -0.8552970000    -2.7475420000     0.2365780000
   20      H      -0.2386970000    -2.5880420000     1.9062780000
   21      H       1.6140030000     1.9713580000     2.3433780000
 ----------------------------------------------------------------

   11   -1389.2161023064      5.97e-07  Convergence criterion met
 Total energy in the final basis set =    -1389.2161023064
        RIMP2         total energy =     -1391.7311736211 a.u.

                    Orbital Energies (a.u.)
 --------------------------------------------------------------

 Alpha MOs
 -- Occupied --
-92.0058 -91.9915 -26.3332 -20.6108 -20.5482 -11.4085 -11.3745 -11.2974
-11.2936 -11.2920 -11.2901 -11.2879 -11.2715 -11.2232  -9.0049  -8.9956
 -6.6857  -6.6850  -6.6846  -6.6769  -6.6762  -6.6749  -1.6462  -1.4705
 -1.3657  -1.2284  -1.1485  -1.0656  -1.0288  -1.0036  -0.9687  -0.9087
 -0.8646  -0.7963  -0.7850  -0.7684  -0.7266  -0.7144  -0.6947  -0.6775
 -0.6751  -0.6688  -0.6083  -0.6047  -0.5929  -0.5884  -0.5826  -0.5592
 -0.5298  -0.5245  -0.5140  -0.4925  -0.4806  -0.4608  -0.4589  -0.4516
 -0.3843  -0.3455  -0.2747

          Ground-State Mulliken Net Atomic Charges

     Atom                 Charge (a.u.)
  ----------------------------------------
      1 C                    -0.043681
      2 S                     0.090843
      3 C                    -0.232240
      4 C                    -0.045691
      5 C                    -0.015392
      6 C                     0.367749
      7 C                    -0.158252
      8 S                     0.035269
      9 C                     0.456945
     10 O                    -0.452884
     11 O                    -0.298256
     12 F                    -0.211416
     13 C                    -0.054659
     14 H                     0.116304
     15 H                     0.084120
     16 H                     0.083955
     17 C                    -0.382246
     18 H                     0.136166
     19 H                     0.162655
     20 H                     0.148395
     21 H                     0.212317
  ----------------------------------------
  Sum of atomic charges =     0.000000

                    Cartesian Multipole Moments
 -----------------------------------------------------------------
    Charge (ESU x 10^10)
                -0.0000
    Dipole Moment (Debye)
         X       1.4805      Y       0.7961      Z       3.6812
       Tot       4.0468
    Quadrupole Moments (Debye-Ang)
        XX     -92.1260     XY       6.6463     YY     -86.8415
        XZ      -7.0166     YZ      -9.6445     ZZ     -94.9408

 Total job time:  64.99s(wall), 1939.74s(cpu)
        *  Thank you very much for using Q-Chem.  Have a nice day.  *
