 Q-Chem 5.4, Q-Chem, Inc., Pleasanton, CA (2021)
 Q-Chem 5.4.0 for Intel X86 EM64T Linux

User input:
--------------------------------------------------------------
$molecule
0 1
C	-0.767330	-0.392188	1.020958
S	0.012670	0.055612	2.531658
C	1.376470	0.844212	1.748558
C	0.019170	0.061912	-0.043742
C	1.221170	0.757612	0.342658
C	-0.037430	0.027312	-1.465142
C	1.057870	0.659812	-2.085942
S	2.136570	1.286512	-0.944742
C	1.280570	0.783012	-3.539042
O	0.473670	0.313712	-4.329342
O	2.393470	1.421812	-3.983442
F	-1.000330	-0.533088	-2.225342
C	2.709170	1.592412	-5.314042
H	3.666370	2.144312	-5.349342
H	1.926470	2.169312	-5.854642
H	2.820870	0.618912	-5.840942
C	-0.767330	-1.827388	1.020958
H	-1.455030	-1.836388	1.853658
H	-1.407830	-2.511288	0.483958
H	-0.038930	-2.351788	1.621658
H	2.173270	1.304112	2.342458
$end

$rem
JOBTYPE		SP
EXCHANGE	HF
CORRELATION	pRIMP2
BASIS		cc-pvtz
METHOD		rimp2
AUX_BASIS	rimp2-cc-pvtz
SOLVENT_METHOD	PCM
PURECART	11111
SYMMETRY	false
MEM_TOTAL	110000
SCF_CONVERGENCE = 6
THRESH=10
GUI = 2
$end

$solvent
dielectric 4.90
$end
--------------------------------------------------------------

             Standard Nuclear Orientation (Angstroms)
    I     Atom           X                Y                Z
 ----------------------------------------------------------------
    1      C      -0.7673300000    -0.3921880000     1.0209580000
    2      S       0.0126700000     0.0556120000     2.5316580000
    3      C       1.3764700000     0.8442120000     1.7485580000
    4      C       0.0191700000     0.0619120000    -0.0437420000
    5      C       1.2211700000     0.7576120000     0.3426580000
    6      C      -0.0374300000     0.0273120000    -1.4651420000
    7      C       1.0578700000     0.6598120000    -2.0859420000
    8      S       2.1365700000     1.2865120000    -0.9447420000
    9      C       1.2805700000     0.7830120000    -3.5390420000
   10      O       0.4736700000     0.3137120000    -4.3293420000
   11      O       2.3934700000     1.4218120000    -3.9834420000
   12      F      -1.0003300000    -0.5330880000    -2.2253420000
   13      C       2.7091700000     1.5924120000    -5.3140420000
   14      H       3.6663700000     2.1443120000    -5.3493420000
   15      H       1.9264700000     2.1693120000    -5.8546420000
   16      H       2.8208700000     0.6189120000    -5.8409420000
   17      C      -0.7673300000    -1.8273880000     1.0209580000
   18      H      -1.4550300000    -1.8363880000     1.8536580000
   19      H      -1.4078300000    -2.5112880000     0.4839580000
   20      H      -0.0389300000    -2.3517880000     1.6216580000
   21      H       2.1732700000     1.3041120000     2.3424580000
 ----------------------------------------------------------------

   11   -1389.1794307808      9.17e-07  Convergence criterion met
 Total energy in the final basis set =    -1389.1794307808
        RIMP2         total energy =     -1391.7030902633 a.u.

                    Orbital Energies (a.u.)
 --------------------------------------------------------------

 Alpha MOs
 -- Occupied --
-92.0063 -91.9998 -26.3319 -20.6142 -20.5544 -11.4137 -11.3723 -11.3162
-11.3061 -11.2940 -11.2896 -11.2812 -11.2625 -11.2146  -9.0057  -9.0035
 -6.6864  -6.6855  -6.6854  -6.6847  -6.6841  -6.6828  -1.6451  -1.4743
 -1.3702  -1.2345  -1.1546  -1.0679  -1.0329  -1.0009  -0.9720  -0.9031
 -0.8691  -0.7985  -0.7870  -0.7737  -0.7295  -0.7142  -0.6969  -0.6802
 -0.6732  -0.6724  -0.6112  -0.6090  -0.5995  -0.5895  -0.5785  -0.5613
 -0.5301  -0.5267  -0.5091  -0.4852  -0.4710  -0.4632  -0.4626  -0.4480
 -0.3793  -0.3434  -0.2886

          Ground-State Mulliken Net Atomic Charges

     Atom                 Charge (a.u.)
  ----------------------------------------
      1 C                    -0.152494
      2 S                     0.105463
      3 C                    -0.164083
      4 C                     0.017106
      5 C                    -0.035542
      6 C                     0.353303
      7 C                    -0.133825
      8 S                     0.057037
      9 C                     0.457119
     10 O                    -0.442032
     11 O                    -0.296743
     12 F                    -0.211225
     13 C                    -0.054748
     14 H                     0.117118
     15 H                     0.085298
     16 H                     0.085002
     17 C                    -0.381189
     18 H                     0.110852
     19 H                     0.143691
     20 H                     0.122183
     21 H                     0.217710
  ----------------------------------------
  Sum of atomic charges =     0.000000

                    Cartesian Multipole Moments
 -----------------------------------------------------------------
    Charge (ESU x 10^10)
                -0.0000
    Dipole Moment (Debye)
         X       4.1675      Y       1.2577      Z       3.2341
       Tot       5.4230
    Quadrupole Moments (Debye-Ang)
        XX     -88.5802     XY       6.1461     YY     -91.2567
        XZ      -8.1635     YZ      -6.3937     ZZ     -92.2941

 Total job time:  58.51s(wall), 2159.82s(cpu)
        *  Thank you very much for using Q-Chem.  Have a nice day.  *
