 Q-Chem 5.4, Q-Chem, Inc., Pleasanton, CA (2021)
 Q-Chem 5.4.0 for Intel X86 EM64T Linux

User input:
--------------------------------------------------------------
$molecule
0 1
C	-0.768487	-0.392188	1.020565
S	0.011513	0.055612	2.531265
C	1.375313	0.844212	1.748165
C	0.018013	0.061912	-0.044135
C	1.220013	0.757612	0.342265
C	-0.038587	0.027312	-1.465535
C	1.056713	0.659812	-2.086335
S	2.135413	1.286512	-0.945135
C	1.279413	0.783012	-3.539435
O	0.472513	0.313712	-4.329735
O	2.392313	1.421812	-3.983835
F	-1.001487	-0.533088	-2.225735
C	2.708013	1.592412	-5.314435
H	3.665213	2.144312	-5.349735
H	1.925313	2.169312	-5.855035
H	2.819713	0.618912	-5.841335
C	-0.768487	-1.827388	1.020565
H	-0.947687	-1.836388	2.085565
H	-1.591687	-2.511288	0.875765
H	0.162713	-2.351788	1.176665
H	2.172113	1.304112	2.342065
$end

$rem
JOBTYPE		SP
EXCHANGE	HF
CORRELATION	pRIMP2
BASIS		cc-pvtz
METHOD		rimp2
AUX_BASIS	rimp2-cc-pvtz
SOLVENT_METHOD	PCM
PURECART	11111
SYMMETRY	false
MEM_TOTAL	110000
SCF_CONVERGENCE = 6
THRESH=10
GUI = 2
$end

$solvent
dielectric 4.90
$end
--------------------------------------------------------------

             Standard Nuclear Orientation (Angstroms)
    I     Atom           X                Y                Z
 ----------------------------------------------------------------
    1      C      -0.7684870000    -0.3921880000     1.0205650000
    2      S       0.0115130000     0.0556120000     2.5312650000
    3      C       1.3753130000     0.8442120000     1.7481650000
    4      C       0.0180130000     0.0619120000    -0.0441350000
    5      C       1.2200130000     0.7576120000     0.3422650000
    6      C      -0.0385870000     0.0273120000    -1.4655350000
    7      C       1.0567130000     0.6598120000    -2.0863350000
    8      S       2.1354130000     1.2865120000    -0.9451350000
    9      C       1.2794130000     0.7830120000    -3.5394350000
   10      O       0.4725130000     0.3137120000    -4.3297350000
   11      O       2.3923130000     1.4218120000    -3.9838350000
   12      F      -1.0014870000    -0.5330880000    -2.2257350000
   13      C       2.7080130000     1.5924120000    -5.3144350000
   14      H       3.6652130000     2.1443120000    -5.3497350000
   15      H       1.9253130000     2.1693120000    -5.8550350000
   16      H       2.8197130000     0.6189120000    -5.8413350000
   17      C      -0.7684870000    -1.8273880000     1.0205650000
   18      H      -0.9476870000    -1.8363880000     2.0855650000
   19      H      -1.5916870000    -2.5112880000     0.8757650000
   20      H       0.1627130000    -2.3517880000     1.1766650000
   21      H       2.1721130000     1.3041120000     2.3420650000
 ----------------------------------------------------------------

   11   -1389.1788005060      8.97e-07  Convergence criterion met
 Total energy in the final basis set =    -1389.1788005060
        RIMP2         total energy =     -1391.7027211137 a.u.

                    Orbital Energies (a.u.)
 --------------------------------------------------------------

 Alpha MOs
 -- Occupied --
-92.0060 -92.0000 -26.3318 -20.6142 -20.5546 -11.4138 -11.3721 -11.3165
-11.3065 -11.2932 -11.2896 -11.2820 -11.2630 -11.2155  -9.0058  -9.0036
 -6.6863  -6.6853  -6.6853  -6.6848  -6.6842  -6.6830  -1.6449  -1.4744
 -1.3703  -1.2350  -1.1562  -1.0684  -1.0338  -1.0006  -0.9723  -0.9011
 -0.8698  -0.7992  -0.7868  -0.7743  -0.7297  -0.7141  -0.6972  -0.6803
 -0.6734  -0.6732  -0.6112  -0.6088  -0.6019  -0.5898  -0.5762  -0.5614
 -0.5304  -0.5287  -0.5091  -0.4862  -0.4647  -0.4644  -0.4625  -0.4459
 -0.3866  -0.3391  -0.2934

          Ground-State Mulliken Net Atomic Charges

     Atom                 Charge (a.u.)
  ----------------------------------------
      1 C                    -0.126835
      2 S                     0.107226
      3 C                    -0.167880
      4 C                    -0.009627
      5 C                    -0.030789
      6 C                     0.350626
      7 C                    -0.132797
      8 S                     0.058099
      9 C                     0.456129
     10 O                    -0.441671
     11 O                    -0.296704
     12 F                    -0.210787
     13 C                    -0.054758
     14 H                     0.117113
     15 H                     0.085337
     16 H                     0.085032
     17 C                    -0.361180
     18 H                     0.105088
     19 H                     0.134916
     20 H                     0.116006
     21 H                     0.217457
  ----------------------------------------
  Sum of atomic charges =     0.000000

                    Cartesian Multipole Moments
 -----------------------------------------------------------------
    Charge (ESU x 10^10)
                -0.0000
    Dipole Moment (Debye)
         X       4.4263      Y       1.2863      Z       3.4029
       Tot       5.7294
    Quadrupole Moments (Debye-Ang)
        XX     -88.8048     XY       5.5739     YY     -91.3172
        XZ      -8.3240     YZ      -6.8082     ZZ     -91.9495

 Total job time:  54.87s(wall), 1969.81s(cpu)
        *  Thank you very much for using Q-Chem.  Have a nice day.  *
