 Q-Chem 5.4, Q-Chem, Inc., Pleasanton, CA (2021)
 Q-Chem 5.4.0 for Intel X86 EM64T Linux

User input:
--------------------------------------------------------------
$molecule
0 1
C	-0.378241	-0.753180	1.021608
S	0.003859	0.061020	2.532308
C	0.668659	1.489220	1.749208
C	0.005559	0.069920	-0.043092
C	0.591159	1.329320	0.343308
C	-0.021041	0.009120	-1.464492
C	0.513459	1.155520	-2.085292
S	1.037659	2.287520	-0.944092
C	0.625259	1.384120	-3.538392
O	0.233359	0.536820	-4.328692
O	1.170459	2.545720	-3.982792
F	-0.488341	-1.002280	-2.224692
C	1.331259	2.866520	-5.313392
H	1.798759	3.867720	-5.348692
H	0.359159	2.890220	-5.853992
H	1.981159	2.133220	-5.840292
C	-0.378241	-2.188380	1.021608
H	0.454459	-2.197380	1.709308
H	-0.915241	-2.872280	1.662108
H	0.222459	-2.712780	0.293208
H	1.057559	2.323020	2.343108
$end

$rem
JOBTYPE		SP
EXCHANGE	HF
CORRELATION	pRIMP2
BASIS		cc-pvtz
METHOD		rimp2
AUX_BASIS	rimp2-cc-pvtz
SOLVENT_METHOD	PCM
PURECART	11111
SYMMETRY	false
MEM_TOTAL	110000
SCF_CONVERGENCE = 6
THRESH=10
GUI = 2
$end

$solvent
dielectric 4.90
$end
--------------------------------------------------------------

             Standard Nuclear Orientation (Angstroms)
    I     Atom           X                Y                Z
 ----------------------------------------------------------------
    1      C      -0.3782410000    -0.7531800000     1.0216080000
    2      S       0.0038590000     0.0610200000     2.5323080000
    3      C       0.6686590000     1.4892200000     1.7492080000
    4      C       0.0055590000     0.0699200000    -0.0430920000
    5      C       0.5911590000     1.3293200000     0.3433080000
    6      C      -0.0210410000     0.0091200000    -1.4644920000
    7      C       0.5134590000     1.1555200000    -2.0852920000
    8      S       1.0376590000     2.2875200000    -0.9440920000
    9      C       0.6252590000     1.3841200000    -3.5383920000
   10      O       0.2333590000     0.5368200000    -4.3286920000
   11      O       1.1704590000     2.5457200000    -3.9827920000
   12      F      -0.4883410000    -1.0022800000    -2.2246920000
   13      C       1.3312590000     2.8665200000    -5.3133920000
   14      H       1.7987590000     3.8677200000    -5.3486920000
   15      H       0.3591590000     2.8902200000    -5.8539920000
   16      H       1.9811590000     2.1332200000    -5.8402920000
   17      C      -0.3782410000    -2.1883800000     1.0216080000
   18      H       0.4544590000    -2.1973800000     1.7093080000
   19      H      -0.9152410000    -2.8722800000     1.6621080000
   20      H       0.2224590000    -2.7127800000     0.2932080000
   21      H       1.0575590000     2.3230200000     2.3431080000
 ----------------------------------------------------------------

   11   -1389.2423332553      4.72e-07  Convergence criterion met
 Total energy in the final basis set =    -1389.2423332553
        RIMP2         total energy =     -1391.7487757648 a.u.

                    Orbital Energies (a.u.)
 --------------------------------------------------------------

 Alpha MOs
 -- Occupied --
-92.0032 -91.9891 -26.3336 -20.6102 -20.5470 -11.4075 -11.3762 -11.3115
-11.2911 -11.2909 -11.2876 -11.2825 -11.2706 -11.2305  -9.0027  -8.9933
 -6.6835  -6.6829  -6.6824  -6.6747  -6.6740  -6.6726  -1.6465  -1.4698
 -1.3648  -1.2278  -1.1488  -1.0664  -1.0290  -1.0046  -0.9683  -0.9088
 -0.8639  -0.7966  -0.7845  -0.7677  -0.7265  -0.7144  -0.6956  -0.6770
 -0.6765  -0.6679  -0.6096  -0.6040  -0.5998  -0.5872  -0.5750  -0.5626
 -0.5415  -0.5253  -0.5120  -0.4898  -0.4791  -0.4605  -0.4584  -0.4540
 -0.3933  -0.3460  -0.2756

          Ground-State Mulliken Net Atomic Charges

     Atom                 Charge (a.u.)
  ----------------------------------------
      1 C                     0.059360
      2 S                     0.077381
      3 C                    -0.255154
      4 C                    -0.120398
      5 C                    -0.011346
      6 C                     0.380551
      7 C                    -0.165491
      8 S                     0.027751
      9 C                     0.458679
     10 O                    -0.455005
     11 O                    -0.298491
     12 F                    -0.210941
     13 C                    -0.054758
     14 H                     0.116185
     15 H                     0.083967
     16 H                     0.083755
     17 C                    -0.376838
     18 H                     0.142866
     19 H                     0.159265
     20 H                     0.148171
     21 H                     0.210493
  ----------------------------------------
  Sum of atomic charges =     0.000000

                    Cartesian Multipole Moments
 -----------------------------------------------------------------
    Charge (ESU x 10^10)
                -0.0000
    Dipole Moment (Debye)
         X       1.7076      Y       0.5842      Z       3.9347
       Tot       4.3288
    Quadrupole Moments (Debye-Ang)
        XX     -95.1353     XY       2.6504     YY     -84.0549
        XZ      -4.3290     YZ     -12.3734     ZZ     -95.4357

 Total job time:  52.50s(wall), 1887.57s(cpu)
        *  Thank you very much for using Q-Chem.  Have a nice day.  *
