 Q-Chem 5.4, Q-Chem, Inc., Pleasanton, CA (2021)
 Q-Chem 5.4.0 for Intel X86 EM64T Linux

User input:
--------------------------------------------------------------
$molecule
0 1
C	-0.375716	-0.753180	1.020627
S	0.006384	0.061020	2.531327
C	0.671184	1.489220	1.748227
C	0.008084	0.069920	-0.044073
C	0.593684	1.329320	0.342327
C	-0.018516	0.009120	-1.465473
C	0.515984	1.155520	-2.086273
S	1.040184	2.287520	-0.945073
C	0.627784	1.384120	-3.539373
O	0.235884	0.536820	-4.329673
O	1.172984	2.545720	-3.983773
F	-0.485816	-1.002280	-2.225673
C	1.333784	2.866520	-5.314373
H	1.801284	3.867720	-5.349673
H	0.361684	2.890220	-5.854973
H	1.983684	2.133220	-5.841273
C	-0.375716	-2.188380	1.020627
H	-0.737116	-2.197380	2.038327
H	-1.161316	-2.872280	0.735127
H	0.514184	-2.712780	1.336027
H	1.060084	2.323020	2.342127
$end

$rem
JOBTYPE		SP
EXCHANGE	HF
CORRELATION	pRIMP2
BASIS		cc-pvtz
METHOD		rimp2
AUX_BASIS	rimp2-cc-pvtz
SOLVENT_METHOD	PCM
PURECART	11111
SYMMETRY	false
MEM_TOTAL	110000
SCF_CONVERGENCE = 6
THRESH=10
GUI = 2
$end

$solvent
dielectric 4.90
$end
--------------------------------------------------------------

             Standard Nuclear Orientation (Angstroms)
    I     Atom           X                Y                Z
 ----------------------------------------------------------------
    1      C      -0.3757160000    -0.7531800000     1.0206270000
    2      S       0.0063840000     0.0610200000     2.5313270000
    3      C       0.6711840000     1.4892200000     1.7482270000
    4      C       0.0080840000     0.0699200000    -0.0440730000
    5      C       0.5936840000     1.3293200000     0.3423270000
    6      C      -0.0185160000     0.0091200000    -1.4654730000
    7      C       0.5159840000     1.1555200000    -2.0862730000
    8      S       1.0401840000     2.2875200000    -0.9450730000
    9      C       0.6277840000     1.3841200000    -3.5393730000
   10      O       0.2358840000     0.5368200000    -4.3296730000
   11      O       1.1729840000     2.5457200000    -3.9837730000
   12      F      -0.4858160000    -1.0022800000    -2.2256730000
   13      C       1.3337840000     2.8665200000    -5.3143730000
   14      H       1.8012840000     3.8677200000    -5.3496730000
   15      H       0.3616840000     2.8902200000    -5.8549730000
   16      H       1.9836840000     2.1332200000    -5.8412730000
   17      C      -0.3757160000    -2.1883800000     1.0206270000
   18      H      -0.7371160000    -2.1973800000     2.0383270000
   19      H      -1.1613160000    -2.8722800000     0.7351270000
   20      H       0.5141840000    -2.7127800000     1.3360270000
   21      H       1.0600840000     2.3230200000     2.3421270000
 ----------------------------------------------------------------

   11   -1389.2409342945      5.33e-07  Convergence criterion met
 Total energy in the final basis set =    -1389.2409342945
        RIMP2         total energy =     -1391.7507039593 a.u.

                    Orbital Energies (a.u.)
 --------------------------------------------------------------

 Alpha MOs
 -- Occupied --
-92.0095 -91.9910 -26.3327 -20.6108 -20.5481 -11.4084 -11.3745 -11.3013
-11.2933 -11.2918 -11.2882 -11.2878 -11.2700 -11.2264  -9.0082  -8.9952
 -6.6889  -6.6883  -6.6878  -6.6764  -6.6758  -6.6744  -1.6457  -1.4704
 -1.3656  -1.2276  -1.1477  -1.0649  -1.0299  -1.0045  -0.9688  -0.9090
 -0.8649  -0.7967  -0.7843  -0.7684  -0.7265  -0.7138  -0.6952  -0.6774
 -0.6754  -0.6685  -0.6093  -0.6047  -0.5961  -0.5878  -0.5783  -0.5647
 -0.5408  -0.5253  -0.5057  -0.4815  -0.4722  -0.4638  -0.4601  -0.4585
 -0.3936  -0.3460  -0.2826

          Ground-State Mulliken Net Atomic Charges

     Atom                 Charge (a.u.)
  ----------------------------------------
      1 C                     0.009919
      2 S                     0.089614
      3 C                    -0.244346
      4 C                    -0.078917
      5 C                    -0.007623
      6 C                     0.363179
      7 C                    -0.156368
      8 S                     0.033799
      9 C                     0.456750
     10 O                    -0.452682
     11 O                    -0.298193
     12 F                    -0.211243
     13 C                    -0.054794
     14 H                     0.116301
     15 H                     0.084097
     16 H                     0.084028
     17 C                    -0.355914
     18 H                     0.110652
     19 H                     0.157760
     20 H                     0.141522
     21 H                     0.212458
  ----------------------------------------
  Sum of atomic charges =     0.000000

                    Cartesian Multipole Moments
 -----------------------------------------------------------------
    Charge (ESU x 10^10)
                -0.0000
    Dipole Moment (Debye)
         X       1.1487      Y       1.2256      Z       4.0369
       Tot       4.3724
    Quadrupole Moments (Debye-Ang)
        XX     -94.1782     XY       4.5750     YY     -84.2980
        XZ      -4.5423     YZ     -12.0483     ZZ     -94.6420

 Total job time:  52.48s(wall), 1909.28s(cpu)
        *  Thank you very much for using Q-Chem.  Have a nice day.  *
