 Q-Chem 5.4, Q-Chem, Inc., Pleasanton, CA (2021)
 Q-Chem 5.4.0 for Intel X86 EM64T Linux

User input:
--------------------------------------------------------------
$molecule
0 1
C	-0.570652	-0.628442	1.020627
S	0.009248	0.059158	2.531327
C	1.020948	1.266558	1.748227
C	0.013148	0.067358	-0.044073
C	0.904648	1.132158	0.342327
C	-0.028252	0.015358	-1.465473
C	0.784648	0.984358	-2.086273
S	1.583948	1.942158	-0.945073
C	0.951748	1.176358	-3.539373
O	0.354048	0.459358	-4.329673
O	1.779048	2.157258	-3.983773
F	-0.741452	-0.840542	-2.225673
C	2.017448	2.425458	-5.314373
H	2.728148	3.271558	-5.349673
H	1.084648	2.699958	-5.854973
H	2.455348	1.548958	-5.841273
C	-0.570652	-2.063642	1.020627
H	-0.932052	-2.072642	2.038327
H	-1.356252	-2.747542	0.735127
H	0.319248	-2.588042	1.336027
H	1.612448	1.971358	2.342127
$end

$rem
JOBTYPE		SP
EXCHANGE	HF
CORRELATION	pRIMP2
BASIS		cc-pvtz
METHOD		rimp2
AUX_BASIS	rimp2-cc-pvtz
SOLVENT_METHOD	PCM
PURECART	11111
SYMMETRY	false
MEM_TOTAL	110000
SCF_CONVERGENCE = 6
THRESH=10
GUI = 2
$end

$solvent
dielectric 4.90
$end
--------------------------------------------------------------

             Standard Nuclear Orientation (Angstroms)
    I     Atom           X                Y                Z
 ----------------------------------------------------------------
    1      C      -0.5706520000    -0.6284420000     1.0206270000
    2      S       0.0092480000     0.0591580000     2.5313270000
    3      C       1.0209480000     1.2665580000     1.7482270000
    4      C       0.0131480000     0.0673580000    -0.0440730000
    5      C       0.9046480000     1.1321580000     0.3423270000
    6      C      -0.0282520000     0.0153580000    -1.4654730000
    7      C       0.7846480000     0.9843580000    -2.0862730000
    8      S       1.5839480000     1.9421580000    -0.9450730000
    9      C       0.9517480000     1.1763580000    -3.5393730000
   10      O       0.3540480000     0.4593580000    -4.3296730000
   11      O       1.7790480000     2.1572580000    -3.9837730000
   12      F      -0.7414520000    -0.8405420000    -2.2256730000
   13      C       2.0174480000     2.4254580000    -5.3143730000
   14      H       2.7281480000     3.2715580000    -5.3496730000
   15      H       1.0846480000     2.6999580000    -5.8549730000
   16      H       2.4553480000     1.5489580000    -5.8412730000
   17      C      -0.5706520000    -2.0636420000     1.0206270000
   18      H      -0.9320520000    -2.0726420000     2.0383270000
   19      H      -1.3562520000    -2.7475420000     0.7351270000
   20      H       0.3192480000    -2.5880420000     1.3360270000
   21      H       1.6124480000     1.9713580000     2.3421270000
 ----------------------------------------------------------------

   11   -1389.2216090613      6.36e-07  Convergence criterion met
 Total energy in the final basis set =    -1389.2216090613
        RIMP2         total energy =     -1391.7371678852 a.u.

                    Orbital Energies (a.u.)
 --------------------------------------------------------------

 Alpha MOs
 -- Occupied --
-92.0085 -91.9937 -26.3324 -20.6119 -20.5502 -11.4101 -11.3737 -11.2974
-11.2972 -11.2923 -11.2889 -11.2884 -11.2732 -11.2223  -9.0075  -8.9977
 -6.6882  -6.6875  -6.6871  -6.6790  -6.6783  -6.6770  -1.6455  -1.4717
 -1.3671  -1.2296  -1.1498  -1.0654  -1.0308  -1.0030  -0.9698  -0.9068
 -0.8663  -0.7973  -0.7851  -0.7701  -0.7273  -0.7139  -0.6953  -0.6783
 -0.6742  -0.6699  -0.6093  -0.6059  -0.5970  -0.5885  -0.5792  -0.5628
 -0.5365  -0.5264  -0.5066  -0.4830  -0.4664  -0.4629  -0.4604  -0.4595
 -0.3911  -0.3449  -0.2853

          Ground-State Mulliken Net Atomic Charges

     Atom                 Charge (a.u.)
  ----------------------------------------
      1 C                    -0.034370
      2 S                     0.096211
      3 C                    -0.220358
      4 C                    -0.057615
      5 C                    -0.011637
      6 C                     0.353632
      7 C                    -0.148988
      8 S                     0.041708
      9 C                     0.456112
     10 O                    -0.449166
     11 O                    -0.297775
     12 F                    -0.210402
     13 C                    -0.054641
     14 H                     0.116542
     15 H                     0.084490
     16 H                     0.084310
     17 C                    -0.356097
     18 H                     0.106787
     19 H                     0.148934
     20 H                     0.138451
     21 H                     0.213872
  ----------------------------------------
  Sum of atomic charges =     0.000000

                    Cartesian Multipole Moments
 -----------------------------------------------------------------
    Charge (ESU x 10^10)
                -0.0000
    Dipole Moment (Debye)
         X       2.2722      Y       1.3867      Z       3.8195
       Tot       4.6556
    Quadrupole Moments (Debye-Ang)
        XX     -91.9978     XY       5.8408     YY     -87.0465
        XZ      -6.6428     YZ     -10.0711     ZZ     -93.8663

 Total job time:  55.98s(wall), 1879.19s(cpu)
        *  Thank you very much for using Q-Chem.  Have a nice day.  *
