 Q-Chem 5.4, Q-Chem, Inc., Pleasanton, CA (2021)
 Q-Chem 5.4.0 for Intel X86 EM64T Linux

User input:
--------------------------------------------------------------
$molecule
0 1
C	-0.302933	-0.782911	1.024233
S	0.006767	0.061489	2.534933
C	0.544567	1.542189	1.751833
C	0.007667	0.070589	-0.040467
C	0.481267	1.376089	0.345933
C	-0.013433	0.007589	-1.461867
C	0.418967	1.196189	-2.082667
S	0.842567	2.369589	-0.941467
C	0.510467	1.433689	-3.535767
O	0.193967	0.555489	-4.326067
O	0.952367	2.638389	-3.980167
F	-0.390833	-1.040711	-2.222067
C	1.084567	2.971989	-5.310767
H	1.463067	4.010189	-5.346067
H	0.114167	2.910889	-5.851367
H	1.795867	2.298089	-5.837667
C	-0.302933	-2.218111	1.024233
H	-1.135633	-2.227111	0.336533
H	0.234067	-2.902011	0.383733
H	-0.903633	-2.742511	1.752633
H	0.859267	2.406689	2.345733
$end

$rem
JOBTYPE		SP
EXCHANGE	HF
CORRELATION	pRIMP2
BASIS		cc-pvtz
METHOD		rimp2
AUX_BASIS	rimp2-cc-pvtz
SOLVENT_METHOD	PCM
PURECART	11111
SYMMETRY	false
MEM_TOTAL	110000
SCF_CONVERGENCE = 6
THRESH=10
GUI = 2
$end

$solvent
dielectric 4.90
$end
--------------------------------------------------------------

             Standard Nuclear Orientation (Angstroms)
    I     Atom           X                Y                Z
 ----------------------------------------------------------------
    1      C      -0.3029330000    -0.7829110000     1.0242330000
    2      S       0.0067670000     0.0614890000     2.5349330000
    3      C       0.5445670000     1.5421890000     1.7518330000
    4      C       0.0076670000     0.0705890000    -0.0404670000
    5      C       0.4812670000     1.3760890000     0.3459330000
    6      C      -0.0134330000     0.0075890000    -1.4618670000
    7      C       0.4189670000     1.1961890000    -2.0826670000
    8      S       0.8425670000     2.3695890000    -0.9414670000
    9      C       0.5104670000     1.4336890000    -3.5357670000
   10      O       0.1939670000     0.5554890000    -4.3260670000
   11      O       0.9523670000     2.6383890000    -3.9801670000
   12      F      -0.3908330000    -1.0407110000    -2.2220670000
   13      C       1.0845670000     2.9719890000    -5.3107670000
   14      H       1.4630670000     4.0101890000    -5.3460670000
   15      H       0.1141670000     2.9108890000    -5.8513670000
   16      H       1.7958670000     2.2980890000    -5.8376670000
   17      C      -0.3029330000    -2.2181110000     1.0242330000
   18      H      -1.1356330000    -2.2271110000     0.3365330000
   19      H       0.2340670000    -2.9020110000     0.3837330000
   20      H      -0.9036330000    -2.7425110000     1.7526330000
   21      H       0.8592670000     2.4066890000     2.3457330000
 ----------------------------------------------------------------

   11   -1389.2467844078      4.93e-07  Convergence criterion met
 Total energy in the final basis set =    -1389.2467844078
        RIMP2         total energy =     -1391.7546457029 a.u.

                    Orbital Energies (a.u.)
 --------------------------------------------------------------

 Alpha MOs
 -- Occupied --
-92.0050 -91.9902 -26.3346 -20.6102 -20.5469 -11.4075 -11.3762 -11.3101
-11.2920 -11.2907 -11.2876 -11.2813 -11.2709 -11.2295  -9.0039  -8.9943
 -6.6847  -6.6840  -6.6836  -6.6756  -6.6749  -6.6736  -1.6476  -1.4698
 -1.3648  -1.2273  -1.1458  -1.0672  -1.0269  -1.0060  -0.9681  -0.9114
 -0.8633  -0.7956  -0.7853  -0.7665  -0.7261  -0.7155  -0.6967  -0.6781
 -0.6770  -0.6683  -0.6085  -0.6040  -0.5955  -0.5876  -0.5791  -0.5637
 -0.5425  -0.5238  -0.5082  -0.4884  -0.4797  -0.4607  -0.4587  -0.4543
 -0.3910  -0.3457  -0.2768

          Ground-State Mulliken Net Atomic Charges

     Atom                 Charge (a.u.)
  ----------------------------------------
      1 C                     0.035587
      2 S                     0.088875
      3 C                    -0.258437
      4 C                    -0.104677
      5 C                    -0.011068
      6 C                     0.376353
      7 C                    -0.161599
      8 S                     0.029919
      9 C                     0.458180
     10 O                    -0.455877
     11 O                    -0.298579
     12 F                    -0.213004
     13 C                    -0.054788
     14 H                     0.116177
     15 H                     0.083871
     16 H                     0.083725
     17 C                    -0.371072
     18 H                     0.134030
     19 H                     0.166600
     20 H                     0.146376
     21 H                     0.209407
  ----------------------------------------
  Sum of atomic charges =     0.000000

                    Cartesian Multipole Moments
 -----------------------------------------------------------------
    Charge (ESU x 10^10)
                -0.0000
    Dipole Moment (Debye)
         X       0.3667      Y       0.7186      Z       3.1270
       Tot       3.2294
    Quadrupole Moments (Debye-Ang)
        XX     -94.8847     XY       4.6419     YY     -83.2775
        XZ      -4.4511     YZ     -10.4790     ZZ     -97.2555

 Total job time:  54.46s(wall), 1951.84s(cpu)
        *  Thank you very much for using Q-Chem.  Have a nice day.  *
