 Q-Chem 5.4, Q-Chem, Inc., Pleasanton, CA (2021)
 Q-Chem 5.4.0 for Intel X86 EM64T Linux

User input:
--------------------------------------------------------------
$molecule
0 1
C	-0.443412	-0.717327	1.024825
S	0.008188	0.060473	2.535525
C	0.794988	1.425273	1.752425
C	0.010688	0.069273	-0.039875
C	0.703788	1.272673	0.346525
C	-0.021112	0.010873	-1.461275
C	0.611188	1.106373	-2.082075
S	1.232088	2.188373	-0.940875
C	0.742488	1.324373	-3.535175
O	0.278288	0.514473	-4.325475
O	1.386888	2.434073	-3.979575
F	-0.574712	-0.955927	-2.221475
C	1.575088	2.739673	-5.310175
H	2.128088	3.696273	-5.345475
H	0.608788	2.847873	-5.850775
H	2.158488	1.952473	-5.837075
C	-0.443412	-2.152527	1.024825
H	-0.990712	-2.161527	0.093825
H	0.280288	-2.836427	0.606625
H	-1.257012	-2.676927	1.503825
H	1.254988	2.221973	2.346325
$end

$rem
JOBTYPE		SP
EXCHANGE	HF
CORRELATION	pRIMP2
BASIS		cc-pvtz
METHOD		rimp2
AUX_BASIS	rimp2-cc-pvtz
SOLVENT_METHOD	PCM
PURECART	11111
SYMMETRY	false
MEM_TOTAL	110000
SCF_CONVERGENCE = 6
THRESH=10
GUI = 2
$end

$solvent
dielectric 4.90
$end
--------------------------------------------------------------

             Standard Nuclear Orientation (Angstroms)
    I     Atom           X                Y                Z
 ----------------------------------------------------------------
    1      C      -0.4434120000    -0.7173270000     1.0248250000
    2      S       0.0081880000     0.0604730000     2.5355250000
    3      C       0.7949880000     1.4252730000     1.7524250000
    4      C       0.0106880000     0.0692730000    -0.0398750000
    5      C       0.7037880000     1.2726730000     0.3465250000
    6      C      -0.0211120000     0.0108730000    -1.4612750000
    7      C       0.6111880000     1.1063730000    -2.0820750000
    8      S       1.2320880000     2.1883730000    -0.9408750000
    9      C       0.7424880000     1.3243730000    -3.5351750000
   10      O       0.2782880000     0.5144730000    -4.3254750000
   11      O       1.3868880000     2.4340730000    -3.9795750000
   12      F      -0.5747120000    -0.9559270000    -2.2214750000
   13      C       1.5750880000     2.7396730000    -5.3101750000
   14      H       2.1280880000     3.6962730000    -5.3454750000
   15      H       0.6087880000     2.8478730000    -5.8507750000
   16      H       2.1584880000     1.9524730000    -5.8370750000
   17      C      -0.4434120000    -2.1525270000     1.0248250000
   18      H      -0.9907120000    -2.1615270000     0.0938250000
   19      H       0.2802880000    -2.8364270000     0.6066250000
   20      H      -1.2570120000    -2.6769270000     1.5038250000
   21      H       1.2549880000     2.2219730000     2.3463250000
 ----------------------------------------------------------------

   11   -1389.2371139320      5.66e-07  Convergence criterion met
 Total energy in the final basis set =    -1389.2371139320
        RIMP2         total energy =     -1391.7495815270 a.u.

                    Orbital Energies (a.u.)
 --------------------------------------------------------------

 Alpha MOs
 -- Occupied --
-92.0030 -91.9928 -26.3348 -20.6116 -20.5494 -11.4096 -11.3760 -11.2987
-11.2954 -11.2926 -11.2900 -11.2883 -11.2756 -11.2244  -9.0022  -8.9969
 -6.6829  -6.6822  -6.6819  -6.6782  -6.6775  -6.6762  -1.6480  -1.4713
 -1.3666  -1.2292  -1.1463  -1.0675  -1.0275  -1.0049  -0.9691  -0.9105
 -0.8645  -0.7959  -0.7866  -0.7681  -0.7270  -0.7161  -0.6968  -0.6782
 -0.6777  -0.6699  -0.6069  -0.6055  -0.5982  -0.5899  -0.5749  -0.5663
 -0.5428  -0.5251  -0.5072  -0.4824  -0.4789  -0.4615  -0.4604  -0.4471
 -0.3936  -0.3450  -0.2823

          Ground-State Mulliken Net Atomic Charges

     Atom                 Charge (a.u.)
  ----------------------------------------
      1 C                     0.000490
      2 S                     0.090197
      3 C                    -0.233911
      4 C                    -0.089264
      5 C                    -0.016044
      6 C                     0.368507
      7 C                    -0.151958
      8 S                     0.037593
      9 C                     0.457376
     10 O                    -0.451725
     11 O                    -0.297993
     12 F                    -0.212299
     13 C                    -0.054818
     14 H                     0.116571
     15 H                     0.084270
     16 H                     0.084208
     17 C                    -0.362986
     18 H                     0.118654
     19 H                     0.160777
     20 H                     0.141499
     21 H                     0.210856
  ----------------------------------------
  Sum of atomic charges =     0.000000

                    Cartesian Multipole Moments
 -----------------------------------------------------------------
    Charge (ESU x 10^10)
                -0.0000
    Dipole Moment (Debye)
         X       1.3328      Y       1.2329      Z       2.7486
       Tot       3.2941
    Quadrupole Moments (Debye-Ang)
        XX     -93.4110     XY       5.3263     YY     -84.9589
        XZ      -5.6095     YZ      -9.0812     ZZ     -96.8679

 Total job time:  58.31s(wall), 2047.28s(cpu)
        *  Thank you very much for using Q-Chem.  Have a nice day.  *
