 Q-Chem 5.4, Q-Chem, Inc., Pleasanton, CA (2021)
 Q-Chem 5.4.0 for Intel X86 EM64T Linux

User input:
--------------------------------------------------------------
$molecule
0 1
C	-0.003701	-0.836989	1.024315
S	-0.001501	0.062411	2.535015
C	-0.002501	1.637711	1.751915
C	-0.003701	0.071211	-0.040385
C	-0.005201	1.460011	0.346015
C	-0.002101	0.004811	-1.461785
C	-0.002201	1.269711	-2.082585
S	-0.005501	2.517211	-0.941385
C	0.002499	1.524111	-3.535685
O	0.005499	0.590611	-4.325985
O	0.005699	2.807311	-3.980085
F	0.001799	-1.109289	-2.221985
C	0.015899	3.166011	-5.310685
H	0.016499	4.271011	-5.345985
H	-0.875101	2.776711	-5.851285
H	0.914799	2.776111	-5.837585
C	-0.003701	-2.272189	1.024315
H	0.927299	-2.281189	0.477015
H	0.414499	-2.956089	1.748015
H	-0.482701	-2.796589	0.210715
H	-0.002501	2.557811	2.345815
$end

$rem
JOBTYPE		SP
EXCHANGE	HF
CORRELATION	pRIMP2
BASIS		cc-pvtz
METHOD		rimp2
AUX_BASIS	rimp2-cc-pvtz
SOLVENT_METHOD	PCM
PURECART	11111
SYMMETRY	false
MEM_TOTAL	110000
SCF_CONVERGENCE = 6
THRESH=10
GUI = 2
$end

$solvent
dielectric 4.90
$end
--------------------------------------------------------------

             Standard Nuclear Orientation (Angstroms)
    I     Atom           X                Y                Z
 ----------------------------------------------------------------
    1      C      -0.0037010000    -0.8369890000     1.0243150000
    2      S      -0.0015010000     0.0624110000     2.5350150000
    3      C      -0.0025010000     1.6377110000     1.7519150000
    4      C      -0.0037010000     0.0712110000    -0.0403850000
    5      C      -0.0052010000     1.4600110000     0.3460150000
    6      C      -0.0021010000     0.0048110000    -1.4617850000
    7      C      -0.0022010000     1.2697110000    -2.0825850000
    8      S      -0.0055010000     2.5172110000    -0.9413850000
    9      C       0.0024990000     1.5241110000    -3.5356850000
   10      O       0.0054990000     0.5906110000    -4.3259850000
   11      O       0.0056990000     2.8073110000    -3.9800850000
   12      F       0.0017990000    -1.1092890000    -2.2219850000
   13      C       0.0158990000     3.1660110000    -5.3106850000
   14      H       0.0164990000     4.2710110000    -5.3459850000
   15      H      -0.8751010000     2.7767110000    -5.8512850000
   16      H       0.9147990000     2.7761110000    -5.8375850000
   17      C      -0.0037010000    -2.2721890000     1.0243150000
   18      H       0.9272990000    -2.2811890000     0.4770150000
   19      H       0.4144990000    -2.9560890000     1.7480150000
   20      H      -0.4827010000    -2.7965890000     0.2107150000
   21      H      -0.0025010000     2.5578110000     2.3458150000
 ----------------------------------------------------------------

   11   -1389.2564697586      4.36e-07  Convergence criterion met
 Total energy in the final basis set =    -1389.2564697586
        RIMP2         total energy =     -1391.7599013630 a.u.

                    Orbital Energies (a.u.)
 --------------------------------------------------------------

 Alpha MOs
 -- Occupied --
-92.0063 -91.9884 -26.3349 -20.6093 -20.5452 -11.4060 -11.3768 -11.3198
-11.2918 -11.2872 -11.2872 -11.2743 -11.2677 -11.2348  -9.0049  -8.9927
 -6.6857  -6.6851  -6.6847  -6.6740  -6.6733  -6.6719  -1.6479  -1.4688
 -1.3635  -1.2263  -1.1461  -1.0681  -1.0264  -1.0068  -0.9675  -0.9117
 -0.8624  -0.7955  -0.7848  -0.7655  -0.7258  -0.7156  -0.6970  -0.6777
 -0.6763  -0.6673  -0.6106  -0.6029  -0.5941  -0.5899  -0.5851  -0.5621
 -0.5392  -0.5233  -0.5085  -0.4922  -0.4780  -0.4630  -0.4589  -0.4563
 -0.3907  -0.3464  -0.2738

          Ground-State Mulliken Net Atomic Charges

     Atom                 Charge (a.u.)
  ----------------------------------------
      1 C                     0.057813
      2 S                     0.082708
      3 C                    -0.278857
      4 C                    -0.104231
      5 C                    -0.006550
      6 C                     0.392926
      7 C                    -0.168658
      8 S                     0.023681
      9 C                     0.460012
     10 O                    -0.459347
     11 O                    -0.299055
     12 F                    -0.214593
     13 C                    -0.055018
     14 H                     0.115991
     15 H                     0.083608
     16 H                     0.083440
     17 C                    -0.384112
     18 H                     0.141204
     19 H                     0.170255
     20 H                     0.149948
     21 H                     0.208834
  ----------------------------------------
  Sum of atomic charges =     0.000000

                    Cartesian Multipole Moments
 -----------------------------------------------------------------
    Charge (ESU x 10^10)
                -0.0000
    Dipole Moment (Debye)
         X       0.6440      Y       0.2445      Z       3.3775
       Tot       3.4470
    Quadrupole Moments (Debye-Ang)
        XX     -96.4313     XY      -1.6077     YY     -81.7327
        XZ       0.9097     YZ     -11.8469     ZZ     -97.6802

 Total job time:  54.35s(wall), 1957.17s(cpu)
        *  Thank you very much for using Q-Chem.  Have a nice day.  *
