 Q-Chem 5.4, Q-Chem, Inc., Pleasanton, CA (2021)
 Q-Chem 5.4.0 for Intel X86 EM64T Linux

User input:
--------------------------------------------------------------
$molecule
0 1
C	-0.554518	-1.198575	0.058176
S	0.694082	-2.435575	0.103376
C	2.023482	-1.284675	0.048876
C	0.058582	0.058125	0.001376
C	1.499882	0.031125	-0.002524
C	-0.361118	1.416625	-0.056724
C	0.708282	2.332825	-0.100824
S	2.201482	1.540425	-0.070324
C	0.591282	3.801825	-0.168024
O	-0.510218	4.333225	-0.188824
O	1.722582	4.551925	-0.208724
F	-1.629918	1.873625	-0.074424
C	1.737082	5.928325	-0.278024
H	2.798082	6.238225	-0.296824
H	1.228982	6.392325	0.596076
H	1.223682	6.302025	-1.191524
C	-1.944118	-1.556875	0.079976
H	-1.959818	-1.597275	-0.999224
H	-2.397218	-2.536175	0.123776
H	-2.687918	-0.774075	0.057776
H	3.062782	-1.629575	0.058876
$end

$rem
JOBTYPE		SP
EXCHANGE	HF
CORRELATION	pRIMP2
BASIS		cc-pvtz
METHOD		rimp2
AUX_BASIS	rimp2-cc-pvtz
SOLVENT_METHOD	PCM
PURECART	11111
SYMMETRY	false
MEM_TOTAL	110000
SCF_CONVERGENCE = 6
THRESH=10
GUI = 2
$end

$solvent
dielectric 4.90
$end
--------------------------------------------------------------

             Standard Nuclear Orientation (Angstroms)
    I     Atom           X                Y                Z
 ----------------------------------------------------------------
    1      C      -0.5545180000    -1.1985750000     0.0581760000
    2      S       0.6940820000    -2.4355750000     0.1033760000
    3      C       2.0234820000    -1.2846750000     0.0488760000
    4      C       0.0585820000     0.0581250000     0.0013760000
    5      C       1.4998820000     0.0311250000    -0.0025240000
    6      C      -0.3611180000     1.4166250000    -0.0567240000
    7      C       0.7082820000     2.3328250000    -0.1008240000
    8      S       2.2014820000     1.5404250000    -0.0703240000
    9      C       0.5912820000     3.8018250000    -0.1680240000
   10      O      -0.5102180000     4.3332250000    -0.1888240000
   11      O       1.7225820000     4.5519250000    -0.2087240000
   12      F      -1.6299180000     1.8736250000    -0.0744240000
   13      C       1.7370820000     5.9283250000    -0.2780240000
   14      H       2.7980820000     6.2382250000    -0.2968240000
   15      H       1.2289820000     6.3923250000     0.5960760000
   16      H       1.2236820000     6.3020250000    -1.1915240000
   17      C      -1.9441180000    -1.5568750000     0.0799760000
   18      H      -1.9598180000    -1.5972750000    -0.9992240000
   19      H      -2.3972180000    -2.5361750000     0.1237760000
   20      H      -2.6879180000    -0.7740750000     0.0577760000
   21      H       3.0627820000    -1.6295750000     0.0588760000
 ----------------------------------------------------------------

   11   -1389.2574960147      4.13e-07  Convergence criterion met
 Total energy in the final basis set =    -1389.2574960147
        RIMP2         total energy =     -1391.7588790050 a.u.

                    Orbital Energies (a.u.)
 --------------------------------------------------------------

 Alpha MOs
 -- Occupied --
-92.0058 -91.9872 -26.3346 -20.6088 -20.5443 -11.4052 -11.3769 -11.3228
-11.2913 -11.2869 -11.2856 -11.2727 -11.2664 -11.2372  -9.0046  -8.9915
 -6.6855  -6.6848  -6.6843  -6.6728  -6.6721  -6.6708  -1.6476  -1.4681
 -1.3628  -1.2258  -1.1467  -1.0678  -1.0268  -1.0067  -0.9671  -0.9116
 -0.8621  -0.7958  -0.7843  -0.7654  -0.7258  -0.7151  -0.6964  -0.6772
 -0.6758  -0.6667  -0.6105  -0.6023  -0.5950  -0.5901  -0.5847  -0.5590
 -0.5318  -0.5251  -0.5191  -0.4949  -0.4778  -0.4623  -0.4583  -0.4559
 -0.3902  -0.3469  -0.2714

          Ground-State Mulliken Net Atomic Charges

     Atom                 Charge (a.u.)
  ----------------------------------------
      1 C                     0.048430
      2 S                     0.080270
      3 C                    -0.282226
      4 C                    -0.098342
      5 C                    -0.009600
      6 C                     0.398873
      7 C                    -0.171486
      8 S                     0.020754
      9 C                     0.461093
     10 O                    -0.460435
     11 O                    -0.299278
     12 F                    -0.214706
     13 C                    -0.055128
     14 H                     0.115899
     15 H                     0.083554
     16 H                     0.083267
     17 C                    -0.387060
     18 H                     0.153158
     19 H                     0.171704
     20 H                     0.151935
     21 H                     0.209326
  ----------------------------------------
  Sum of atomic charges =     0.000000

                    Cartesian Multipole Moments
 -----------------------------------------------------------------
    Charge (ESU x 10^10)
                -0.0000
    Dipole Moment (Debye)
         X       0.9349      Y      -3.7180      Z      -0.6292
       Tot       3.8850
    Quadrupole Moments (Debye-Ang)
        XX     -88.7420     XY      15.0405     YY     -89.8761
        XZ       0.9069     YZ       0.8569     ZZ     -96.7312

 Total job time:  53.31s(wall), 1929.18s(cpu)
        *  Thank you very much for using Q-Chem.  Have a nice day.  *
