 Q-Chem 5.4, Q-Chem, Inc., Pleasanton, CA (2021)
 Q-Chem 5.4.0 for Intel X86 EM64T Linux

User input:
--------------------------------------------------------------
$molecule
0 1
C	-0.377592	-0.753180	1.024882
S	0.004508	0.061020	2.535582
C	0.669308	1.489220	1.752482
C	0.006208	0.069920	-0.039818
C	0.591808	1.329320	0.346582
C	-0.020392	0.009120	-1.461218
C	0.514108	1.155520	-2.082018
S	1.038308	2.287520	-0.940818
C	0.625908	1.384120	-3.535118
O	0.234008	0.536820	-4.325418
O	1.171108	2.545720	-3.979518
F	-0.487692	-1.002280	-2.221418
C	1.331908	2.866520	-5.310118
H	1.799408	3.867720	-5.345418
H	0.359808	2.890220	-5.850718
H	1.981808	2.133220	-5.837018
C	-0.377592	-2.188380	1.024882
H	0.310108	-2.197380	0.192182
H	0.262908	-2.872280	1.561882
H	-1.105992	-2.712780	0.424182
H	1.058208	2.323020	2.346382
$end

$rem
JOBTYPE		SP
EXCHANGE	HF
CORRELATION	pRIMP2
BASIS		cc-pvtz
METHOD		rimp2
AUX_BASIS	rimp2-cc-pvtz
SOLVENT_METHOD	PCM
PURECART	11111
SYMMETRY	false
MEM_TOTAL	110000
SCF_CONVERGENCE = 6
THRESH=10
GUI = 2
$end

$solvent
dielectric 4.90
$end
--------------------------------------------------------------

             Standard Nuclear Orientation (Angstroms)
    I     Atom           X                Y                Z
 ----------------------------------------------------------------
    1      C      -0.3775920000    -0.7531800000     1.0248820000
    2      S       0.0045080000     0.0610200000     2.5355820000
    3      C       0.6693080000     1.4892200000     1.7524820000
    4      C       0.0062080000     0.0699200000    -0.0398180000
    5      C       0.5918080000     1.3293200000     0.3465820000
    6      C      -0.0203920000     0.0091200000    -1.4612180000
    7      C       0.5141080000     1.1555200000    -2.0820180000
    8      S       1.0383080000     2.2875200000    -0.9408180000
    9      C       0.6259080000     1.3841200000    -3.5351180000
   10      O       0.2340080000     0.5368200000    -4.3254180000
   11      O       1.1711080000     2.5457200000    -3.9795180000
   12      F      -0.4876920000    -1.0022800000    -2.2214180000
   13      C       1.3319080000     2.8665200000    -5.3101180000
   14      H       1.7994080000     3.8677200000    -5.3454180000
   15      H       0.3598080000     2.8902200000    -5.8507180000
   16      H       1.9818080000     2.1332200000    -5.8370180000
   17      C      -0.3775920000    -2.1883800000     1.0248820000
   18      H       0.3101080000    -2.1973800000     0.1921820000
   19      H       0.2629080000    -2.8722800000     1.5618820000
   20      H      -1.1059920000    -2.7127800000     0.4241820000
   21      H       1.0582080000     2.3230200000     2.3463820000
 ----------------------------------------------------------------

   11   -1389.2408301088      5.11e-07  Convergence criterion met
 Total energy in the final basis set =    -1389.2408301088
        RIMP2         total energy =     -1391.7508143594 a.u.

                    Orbital Energies (a.u.)
 --------------------------------------------------------------

 Alpha MOs
 -- Occupied --
-92.0069 -91.9912 -26.3348 -20.6106 -20.5475 -11.4080 -11.3760 -11.3092
-11.2923 -11.2919 -11.2878 -11.2820 -11.2704 -11.2287  -9.0056  -8.9953
 -6.6863  -6.6857  -6.6853  -6.6766  -6.6760  -6.6746  -1.6479  -1.4702
 -1.3652  -1.2283  -1.1474  -1.0683  -1.0268  -1.0052  -0.9686  -0.9101
 -0.8636  -0.7955  -0.7857  -0.7670  -0.7264  -0.7159  -0.6970  -0.6779
 -0.6773  -0.6688  -0.6086  -0.6042  -0.5950  -0.5912  -0.5860  -0.5633
 -0.5378  -0.5247  -0.5054  -0.4845  -0.4741  -0.4657  -0.4600  -0.4577
 -0.3904  -0.3453  -0.2784

          Ground-State Mulliken Net Atomic Charges

     Atom                 Charge (a.u.)
  ----------------------------------------
      1 C                     0.023138
      2 S                     0.092512
      3 C                    -0.259260
      4 C                    -0.083208
      5 C                    -0.008239
      6 C                     0.359636
      7 C                    -0.158015
      8 S                     0.035106
      9 C                     0.457493
     10 O                    -0.454947
     11 O                    -0.298494
     12 F                    -0.212291
     13 C                    -0.054753
     14 H                     0.116287
     15 H                     0.083987
     16 H                     0.083790
     17 C                    -0.377946
     18 H                     0.134984
     19 H                     0.168790
     20 H                     0.141705
     21 H                     0.209725
  ----------------------------------------
  Sum of atomic charges =     0.000000

                    Cartesian Multipole Moments
 -----------------------------------------------------------------
    Charge (ESU x 10^10)
                -0.0000
    Dipole Moment (Debye)
         X       1.6280      Y       0.7851      Z       3.0391
       Tot       3.5359
    Quadrupole Moments (Debye-Ang)
        XX     -94.8848     XY       2.7688     YY     -84.1035
        XZ      -3.6012     YZ     -10.0988     ZZ     -97.1282

 Total job time:  53.41s(wall), 1949.44s(cpu)
        *  Thank you very much for using Q-Chem.  Have a nice day.  *
