 Q-Chem 5.4, Q-Chem, Inc., Pleasanton, CA (2021)
 Q-Chem 5.4.0 for Intel X86 EM64T Linux

User input:
--------------------------------------------------------------
$molecule
0 1
C	-0.306529	-0.782911	1.024624
S	0.003171	0.061489	2.535324
C	0.540971	1.542189	1.752224
C	0.004071	0.070589	-0.040076
C	0.477671	1.376089	0.346324
C	-0.017029	0.007589	-1.461476
C	0.415371	1.196189	-2.082276
S	0.838971	2.369589	-0.941076
C	0.506871	1.433689	-3.535376
O	0.190371	0.555489	-4.325676
O	0.948771	2.638389	-3.979776
F	-0.394429	-1.040711	-2.221676
C	1.080971	2.971989	-5.310376
H	1.459471	4.010189	-5.345676
H	0.110571	2.910889	-5.850976
H	1.792271	2.298089	-5.837276
C	-0.306529	-2.218111	1.024624
H	0.515271	-2.227111	0.324024
H	0.231071	-2.902011	1.664724
H	-0.919529	-2.742511	0.306524
H	0.855671	2.406689	2.346124
$end

$rem
JOBTYPE		SP
EXCHANGE	HF
CORRELATION	pRIMP2
BASIS		cc-pvtz
METHOD		rimp2
AUX_BASIS	rimp2-cc-pvtz
SOLVENT_METHOD	PCM
PURECART	11111
SYMMETRY	false
MEM_TOTAL	110000
SCF_CONVERGENCE = 6
THRESH=10
GUI = 2
$end

$solvent
dielectric 4.90
$end
--------------------------------------------------------------

             Standard Nuclear Orientation (Angstroms)
    I     Atom           X                Y                Z
 ----------------------------------------------------------------
    1      C      -0.3065290000    -0.7829110000     1.0246240000
    2      S       0.0031710000     0.0614890000     2.5353240000
    3      C       0.5409710000     1.5421890000     1.7522240000
    4      C       0.0040710000     0.0705890000    -0.0400760000
    5      C       0.4776710000     1.3760890000     0.3463240000
    6      C      -0.0170290000     0.0075890000    -1.4614760000
    7      C       0.4153710000     1.1961890000    -2.0822760000
    8      S       0.8389710000     2.3695890000    -0.9410760000
    9      C       0.5068710000     1.4336890000    -3.5353760000
   10      O       0.1903710000     0.5554890000    -4.3256760000
   11      O       0.9487710000     2.6383890000    -3.9797760000
   12      F      -0.3944290000    -1.0407110000    -2.2216760000
   13      C       1.0809710000     2.9719890000    -5.3103760000
   14      H       1.4594710000     4.0101890000    -5.3456760000
   15      H       0.1105710000     2.9108890000    -5.8509760000
   16      H       1.7922710000     2.2980890000    -5.8372760000
   17      C      -0.3065290000    -2.2181110000     1.0246240000
   18      H       0.5152710000    -2.2271110000     0.3240240000
   19      H       0.2310710000    -2.9020110000     1.6647240000
   20      H      -0.9195290000    -2.7425110000     0.3065240000
   21      H       0.8556710000     2.4066890000     2.3461240000
 ----------------------------------------------------------------

   11   -1389.2471519974      4.75e-07  Convergence criterion met
 Total energy in the final basis set =    -1389.2471519974
        RIMP2         total energy =     -1391.7543690599 a.u.

                    Orbital Energies (a.u.)
 --------------------------------------------------------------

 Alpha MOs
 -- Occupied --
-92.0072 -91.9900 -26.3348 -20.6099 -20.5463 -11.4070 -11.3763 -11.3146
-11.2922 -11.2896 -11.2875 -11.2781 -11.2685 -11.2318  -9.0058  -8.9941
 -6.6865  -6.6859  -6.6855  -6.6754  -6.6747  -6.6734  -1.6478  -1.4695
 -1.3644  -1.2275  -1.1472  -1.0682  -1.0265  -1.0058  -0.9681  -0.9105
 -0.8630  -0.7954  -0.7852  -0.7663  -0.7261  -0.7157  -0.6970  -0.6778
 -0.6768  -0.6680  -0.6096  -0.6035  -0.5937  -0.5922  -0.5856  -0.5627
 -0.5375  -0.5241  -0.5058  -0.4881  -0.4772  -0.4650  -0.4595  -0.4572
 -0.3900  -0.3459  -0.2760

          Ground-State Mulliken Net Atomic Charges

     Atom                 Charge (a.u.)
  ----------------------------------------
      1 C                     0.038358
      2 S                     0.090341
      3 C                    -0.269757
      4 C                    -0.090092
      5 C                    -0.007696
      6 C                     0.369801
      7 C                    -0.164810
      8 S                     0.031240
      9 C                     0.457986
     10 O                    -0.456962
     11 O                    -0.298802
     12 F                    -0.212545
     13 C                    -0.054790
     14 H                     0.116081
     15 H                     0.083851
     16 H                     0.083543
     17 C                    -0.380997
     18 H                     0.140150
     19 H                     0.169825
     20 H                     0.146012
     21 H                     0.209264
  ----------------------------------------
  Sum of atomic charges =     0.000000

                    Cartesian Multipole Moments
 -----------------------------------------------------------------
    Charge (ESU x 10^10)
                -0.0000
    Dipole Moment (Debye)
         X       1.3978      Y       0.5105      Z       3.2115
       Tot       3.5395
    Quadrupole Moments (Debye-Ang)
        XX     -95.5792     XY       1.8868     YY     -83.2699
        XZ      -2.7338     YZ     -10.7890     ZZ     -97.3764

 Total job time:  55.27s(wall), 1964.24s(cpu)
        *  Thank you very much for using Q-Chem.  Have a nice day.  *
