 Q-Chem 5.4, Q-Chem, Inc., Pleasanton, CA (2021)
 Q-Chem 5.4.0 for Intel X86 EM64T Linux

User input:
--------------------------------------------------------------
$molecule
0 1
C	-0.770277	-0.392188	1.024624
S	0.009723	0.055612	2.535324
C	1.373523	0.844212	1.752224
C	0.016223	0.061912	-0.040076
C	1.218223	0.757612	0.346324
C	-0.040377	0.027312	-1.461476
C	1.054923	0.659812	-2.082276
S	2.133623	1.286512	-0.941076
C	1.277623	0.783012	-3.535376
O	0.470723	0.313712	-4.325676
O	2.390523	1.421812	-3.979776
F	-1.003277	-0.533088	-2.221676
C	2.706223	1.592412	-5.310376
H	3.663423	2.144312	-5.345676
H	1.923523	2.169312	-5.850976
H	2.817923	0.618912	-5.837276
C	-0.770277	-1.827388	1.024624
H	0.051523	-1.836388	0.324024
H	-0.232677	-2.511288	1.664724
H	-1.383277	-2.351788	0.306524
H	2.170323	1.304112	2.346124
$end

$rem
JOBTYPE		SP
EXCHANGE	HF
CORRELATION	pRIMP2
BASIS		cc-pvtz
METHOD		rimp2
AUX_BASIS	rimp2-cc-pvtz
SOLVENT_METHOD	PCM
PURECART	11111
SYMMETRY	false
MEM_TOTAL	110000
SCF_CONVERGENCE = 6
THRESH=10
GUI = 2
$end

$solvent
dielectric 4.90
$end
--------------------------------------------------------------

             Standard Nuclear Orientation (Angstroms)
    I     Atom           X                Y                Z
 ----------------------------------------------------------------
    1      C      -0.7702770000    -0.3921880000     1.0246240000
    2      S       0.0097230000     0.0556120000     2.5353240000
    3      C       1.3735230000     0.8442120000     1.7522240000
    4      C       0.0162230000     0.0619120000    -0.0400760000
    5      C       1.2182230000     0.7576120000     0.3463240000
    6      C      -0.0403770000     0.0273120000    -1.4614760000
    7      C       1.0549230000     0.6598120000    -2.0822760000
    8      S       2.1336230000     1.2865120000    -0.9410760000
    9      C       1.2776230000     0.7830120000    -3.5353760000
   10      O       0.4707230000     0.3137120000    -4.3256760000
   11      O       2.3905230000     1.4218120000    -3.9797760000
   12      F      -1.0032770000    -0.5330880000    -2.2216760000
   13      C       2.7062230000     1.5924120000    -5.3103760000
   14      H       3.6634230000     2.1443120000    -5.3456760000
   15      H       1.9235230000     2.1693120000    -5.8509760000
   16      H       2.8179230000     0.6189120000    -5.8372760000
   17      C      -0.7702770000    -1.8273880000     1.0246240000
   18      H       0.0515230000    -1.8363880000     0.3240240000
   19      H      -0.2326770000    -2.5112880000     1.6647240000
   20      H      -1.3832770000    -2.3517880000     0.3065240000
   21      H       2.1703230000     1.3041120000     2.3461240000
 ----------------------------------------------------------------

   12   -1389.1690586551      6.19e-07  Convergence criterion met
 Total energy in the final basis set =    -1389.1690586551
        RIMP2         total energy =     -1391.6984961075 a.u.

                    Orbital Energies (a.u.)
 --------------------------------------------------------------

 Alpha MOs
 -- Occupied --
-92.0104 -92.0013 -26.3332 -20.6137 -20.5533 -11.4129 -11.3732 -11.3100
-11.3041 -11.2957 -11.2895 -11.2782 -11.2721 -11.2160  -9.0092  -9.0048
 -6.6898  -6.6889  -6.6889  -6.6860  -6.6854  -6.6842  -1.6464  -1.4738
 -1.3696  -1.2369  -1.1568  -1.0730  -1.0303  -1.0005  -0.9721  -0.9036
 -0.8670  -0.7967  -0.7879  -0.7726  -0.7293  -0.7156  -0.6980  -0.6800
 -0.6773  -0.6730  -0.6094  -0.6079  -0.6019  -0.5926  -0.5817  -0.5624
 -0.5289  -0.5256  -0.5098  -0.4902  -0.4772  -0.4633  -0.4627  -0.4500
 -0.3766  -0.3411  -0.2830

          Ground-State Mulliken Net Atomic Charges

     Atom                 Charge (a.u.)
  ----------------------------------------
      1 C                    -0.129276
      2 S                     0.127112
      3 C                    -0.194451
      4 C                    -0.005218
      5 C                    -0.032028
      6 C                     0.345231
      7 C                    -0.140746
      8 S                     0.064872
      9 C                     0.457823
     10 O                    -0.444830
     11 O                    -0.297377
     12 F                    -0.211523
     13 C                    -0.054734
     14 H                     0.116958
     15 H                     0.085145
     16 H                     0.084753
     17 C                    -0.368823
     18 H                     0.114767
     19 H                     0.149200
     20 H                     0.117288
     21 H                     0.215858
  ----------------------------------------
  Sum of atomic charges =     0.000000

                    Cartesian Multipole Moments
 -----------------------------------------------------------------
    Charge (ESU x 10^10)
                -0.0000
    Dipole Moment (Debye)
         X       4.6718      Y       1.0192      Z       2.7973
       Tot       5.5398
    Quadrupole Moments (Debye-Ang)
        XX     -89.9717     XY       4.2783     YY     -91.3275
        XZ      -7.2635     YZ      -5.4678     ZZ     -93.6438

 Total job time:  58.34s(wall), 2123.84s(cpu)
        *  Thank you very much for using Q-Chem.  Have a nice day.  *
