 Q-Chem 5.4, Q-Chem, Inc., Pleasanton, CA (2021)
 Q-Chem 5.4.0 for Intel X86 EM64T Linux

User input:
--------------------------------------------------------------
$molecule
0 1
C	-0.157976	-0.823218	1.023580
S	0.000424	0.062182	2.534280
C	0.272924	1.613782	1.751180
C	-0.000276	0.071182	-0.041120
C	0.239424	1.439182	0.345280
C	-0.010176	0.005582	-1.462520
C	0.209324	1.251182	-2.083320
S	0.422624	2.480282	-0.942120
C	0.258124	1.500982	-3.536420
O	0.098924	0.581182	-4.326720
O	0.484124	2.764082	-3.980820
F	-0.199776	-1.092318	-2.222720
C	0.556424	3.115582	-5.311420
H	0.748824	4.203682	-5.346720
H	-0.388676	2.886882	-5.852020
H	1.373924	2.575482	-5.838320
C	-0.157976	-2.258418	1.023580
H	0.904124	-2.267418	0.827680
H	-0.012476	-2.942318	1.846680
H	-0.329776	-2.782818	0.095180
H	0.432724	2.519782	2.345080
$end

$rem
JOBTYPE		SP
EXCHANGE	HF
CORRELATION	pRIMP2
BASIS		cc-pvtz
METHOD		rimp2
AUX_BASIS	rimp2-cc-pvtz
SOLVENT_METHOD	PCM
PURECART	11111
SYMMETRY	false
MEM_TOTAL	110000
SCF_CONVERGENCE = 6
THRESH=10
GUI = 2
$end

$solvent
dielectric 4.90
$end
--------------------------------------------------------------

             Standard Nuclear Orientation (Angstroms)
    I     Atom           X                Y                Z
 ----------------------------------------------------------------
    1      C      -0.1579760000    -0.8232180000     1.0235800000
    2      S       0.0004240000     0.0621820000     2.5342800000
    3      C       0.2729240000     1.6137820000     1.7511800000
    4      C      -0.0002760000     0.0711820000    -0.0411200000
    5      C       0.2394240000     1.4391820000     0.3452800000
    6      C      -0.0101760000     0.0055820000    -1.4625200000
    7      C       0.2093240000     1.2511820000    -2.0833200000
    8      S       0.4226240000     2.4802820000    -0.9421200000
    9      C       0.2581240000     1.5009820000    -3.5364200000
   10      O       0.0989240000     0.5811820000    -4.3267200000
   11      O       0.4841240000     2.7640820000    -3.9808200000
   12      F      -0.1997760000    -1.0923180000    -2.2227200000
   13      C       0.5564240000     3.1155820000    -5.3114200000
   14      H       0.7488240000     4.2036820000    -5.3467200000
   15      H      -0.3886760000     2.8868820000    -5.8520200000
   16      H       1.3739240000     2.5754820000    -5.8383200000
   17      C      -0.1579760000    -2.2584180000     1.0235800000
   18      H       0.9041240000    -2.2674180000     0.8276800000
   19      H      -0.0124760000    -2.9423180000     1.8466800000
   20      H      -0.3297760000    -2.7828180000     0.0951800000
   21      H       0.4327240000     2.5197820000     2.3450800000
 ----------------------------------------------------------------

   11   -1389.2565341993      4.18e-07  Convergence criterion met
 Total energy in the final basis set =    -1389.2565341993
        RIMP2         total energy =     -1391.7586032757 a.u.

                    Orbital Energies (a.u.)
 --------------------------------------------------------------

 Alpha MOs
 -- Occupied --
-92.0063 -91.9877 -26.3347 -20.6088 -20.5444 -11.4054 -11.3769 -11.3226
-11.2917 -11.2869 -11.2858 -11.2729 -11.2662 -11.2374  -9.0050  -8.9919
 -6.6859  -6.6853  -6.6848  -6.6732  -6.6725  -6.6712  -1.6477  -1.4683
 -1.3629  -1.2262  -1.1472  -1.0681  -1.0266  -1.0065  -0.9673  -0.9113
 -0.8622  -0.7957  -0.7844  -0.7655  -0.7259  -0.7153  -0.6968  -0.6774
 -0.6759  -0.6669  -0.6106  -0.6024  -0.5959  -0.5898  -0.5847  -0.5598
 -0.5336  -0.5235  -0.5168  -0.4951  -0.4779  -0.4631  -0.4585  -0.4560
 -0.3900  -0.3469  -0.2717

          Ground-State Mulliken Net Atomic Charges

     Atom                 Charge (a.u.)
  ----------------------------------------
      1 C                     0.056091
      2 S                     0.084413
      3 C                    -0.282669
      4 C                    -0.103257
      5 C                    -0.009645
      6 C                     0.389351
      7 C                    -0.172418
      8 S                     0.023161
      9 C                     0.459937
     10 O                    -0.460131
     11 O                    -0.299256
     12 F                    -0.213823
     13 C                    -0.054934
     14 H                     0.115852
     15 H                     0.083475
     16 H                     0.083306
     17 C                    -0.383528
     18 H                     0.153747
     19 H                     0.171149
     20 H                     0.150208
     21 H                     0.208970
  ----------------------------------------
  Sum of atomic charges =     0.000000

                    Cartesian Multipole Moments
 -----------------------------------------------------------------
    Charge (ESU x 10^10)
                -0.0000
    Dipole Moment (Debye)
         X       1.1129      Y      -0.0004      Z       3.6736
       Tot       3.8384
    Quadrupole Moments (Debye-Ang)
        XX     -96.5510     XY      -0.0732     YY     -81.9509
        XZ      -1.0202     YZ     -12.3195     ZZ     -97.3612

 Total job time:  54.35s(wall), 1937.79s(cpu)
        *  Thank you very much for using Q-Chem.  Have a nice day.  *
