 Q-Chem 5.4, Q-Chem, Inc., Pleasanton, CA (2021)
 Q-Chem 5.4.0 for Intel X86 EM64T Linux

User input:
--------------------------------------------------------------
$molecule
0 1
C	-0.232214	-0.806326	1.020802
S	0.002686	0.061874	2.531502
C	0.409386	1.583774	1.748402
C	0.002786	0.070974	-0.043898
C	0.360786	1.412774	0.342502
C	-0.012714	0.006374	-1.465298
C	0.314486	1.228174	-2.086098
S	0.634086	2.434074	-0.944898
C	0.384886	1.472774	-3.539198
O	0.146086	0.570274	-4.329498
O	0.720086	2.711374	-3.983598
F	-0.297314	-1.070726	-2.225498
C	0.822786	3.055274	-5.314198
H	1.109286	4.122374	-5.349498
H	-0.138614	2.909774	-5.854798
H	1.590086	2.445874	-5.841098
C	-0.232214	-2.241526	1.020802
H	0.145086	-2.250526	2.032702
H	-1.017514	-2.925426	1.307002
H	0.652186	-2.765926	0.690402
H	0.647586	2.472474	2.342302
$end

$rem
JOBTYPE		SP
EXCHANGE	HF
CORRELATION	pRIMP2
BASIS		cc-pvtz
METHOD		rimp2
AUX_BASIS	rimp2-cc-pvtz
SOLVENT_METHOD	PCM
PURECART	11111
SYMMETRY	false
MEM_TOTAL	110000
SCF_CONVERGENCE = 6
THRESH=10
GUI = 2
$end

$solvent
dielectric 4.90
$end
--------------------------------------------------------------

             Standard Nuclear Orientation (Angstroms)
    I     Atom           X                Y                Z
 ----------------------------------------------------------------
    1      C      -0.2322140000    -0.8063260000     1.0208020000
    2      S       0.0026860000     0.0618740000     2.5315020000
    3      C       0.4093860000     1.5837740000     1.7484020000
    4      C       0.0027860000     0.0709740000    -0.0438980000
    5      C       0.3607860000     1.4127740000     0.3425020000
    6      C      -0.0127140000     0.0063740000    -1.4652980000
    7      C       0.3144860000     1.2281740000    -2.0860980000
    8      S       0.6340860000     2.4340740000    -0.9448980000
    9      C       0.3848860000     1.4727740000    -3.5391980000
   10      O       0.1460860000     0.5702740000    -4.3294980000
   11      O       0.7200860000     2.7113740000    -3.9835980000
   12      F      -0.2973140000    -1.0707260000    -2.2254980000
   13      C       0.8227860000     3.0552740000    -5.3141980000
   14      H       1.1092860000     4.1223740000    -5.3494980000
   15      H      -0.1386140000     2.9097740000    -5.8547980000
   16      H       1.5900860000     2.4458740000    -5.8410980000
   17      C      -0.2322140000    -2.2415260000     1.0208020000
   18      H       0.1450860000    -2.2505260000     2.0327020000
   19      H      -1.0175140000    -2.9254260000     1.3070020000
   20      H       0.6521860000    -2.7659260000     0.6904020000
   21      H       0.6475860000     2.4724740000     2.3423020000
 ----------------------------------------------------------------

   11   -1389.2479631945      4.86e-07  Convergence criterion met
 Total energy in the final basis set =    -1389.2479631945
        RIMP2         total energy =     -1391.7548147160 a.u.

                    Orbital Energies (a.u.)
 --------------------------------------------------------------

 Alpha MOs
 -- Occupied --
-92.0080 -91.9899 -26.3330 -20.6104 -20.5475 -11.4078 -11.3752 -11.3071
-11.2919 -11.2913 -11.2876 -11.2843 -11.2699 -11.2280  -9.0069  -8.9941
 -6.6876  -6.6870  -6.6865  -6.6754  -6.6747  -6.6734  -1.6460  -1.4700
 -1.3651  -1.2271  -1.1473  -1.0652  -1.0297  -1.0050  -0.9685  -0.9094
 -0.8644  -0.7967  -0.7841  -0.7679  -0.7263  -0.7140  -0.6955  -0.6771
 -0.6761  -0.6680  -0.6091  -0.6043  -0.5979  -0.5874  -0.5732  -0.5682
 -0.5440  -0.5248  -0.5057  -0.4818  -0.4777  -0.4611  -0.4594  -0.4568
 -0.3955  -0.3458  -0.2812

          Ground-State Mulliken Net Atomic Charges

     Atom                 Charge (a.u.)
  ----------------------------------------
      1 C                     0.045756
      2 S                     0.083273
      3 C                    -0.253699
      4 C                    -0.096500
      5 C                    -0.010653
      6 C                     0.385892
      7 C                    -0.164962
      8 S                     0.029677
      9 C                     0.458713
     10 O                    -0.454078
     11 O                    -0.298316
     12 F                    -0.212517
     13 C                    -0.054879
     14 H                     0.116229
     15 H                     0.084063
     16 H                     0.083871
     17 C                    -0.370554
     18 H                     0.119374
     19 H                     0.152687
     20 H                     0.144743
     21 H                     0.211880
  ----------------------------------------
  Sum of atomic charges =     0.000000

                    Cartesian Multipole Moments
 -----------------------------------------------------------------
    Charge (ESU x 10^10)
                -0.0000
    Dipole Moment (Debye)
         X       1.0042      Y       1.0827      Z       4.1057
       Tot       4.3632
    Quadrupole Moments (Debye-Ang)
        XX     -95.4569     XY       2.0198     YY     -83.0706
        XZ      -2.8296     YZ     -13.1114     ZZ     -94.9003

 Total job time:  54.23s(wall), 1968.88s(cpu)
        *  Thank you very much for using Q-Chem.  Have a nice day.  *
