 Q-Chem 5.4, Q-Chem, Inc., Pleasanton, CA (2021)
 Q-Chem 5.4.0 for Intel X86 EM64T Linux

User input:
--------------------------------------------------------------
$molecule
0 1
C	-0.228816	-0.806326	1.023076
S	0.006084	0.061874	2.533776
C	0.412784	1.583774	1.750676
C	0.006184	0.070974	-0.041624
C	0.364184	1.412774	0.344776
C	-0.009316	0.006374	-1.463024
C	0.317884	1.228174	-2.083824
S	0.637484	2.434074	-0.942624
C	0.388284	1.472774	-3.536924
O	0.149484	0.570274	-4.327224
O	0.723484	2.711374	-3.981324
F	-0.293916	-1.070726	-2.223224
C	0.826184	3.055274	-5.311924
H	1.112684	4.122374	-5.347224
H	-0.135216	2.909774	-5.852524
H	1.593484	2.445874	-5.838824
C	-0.228816	-2.241526	1.023076
H	-1.293816	-2.250526	0.843876
H	-0.084016	-2.925426	0.199876
H	-0.384916	-2.765926	1.954276
H	0.650984	2.472474	2.344576
$end

$rem
JOBTYPE		SP
EXCHANGE	HF
CORRELATION	pRIMP2
BASIS		cc-pvtz
METHOD		rimp2
AUX_BASIS	rimp2-cc-pvtz
SOLVENT_METHOD	PCM
PURECART	11111
SYMMETRY	false
MEM_TOTAL	110000
SCF_CONVERGENCE = 6
THRESH=10
GUI = 2
$end

$solvent
dielectric 4.90
$end
--------------------------------------------------------------

             Standard Nuclear Orientation (Angstroms)
    I     Atom           X                Y                Z
 ----------------------------------------------------------------
    1      C      -0.2288160000    -0.8063260000     1.0230760000
    2      S       0.0060840000     0.0618740000     2.5337760000
    3      C       0.4127840000     1.5837740000     1.7506760000
    4      C       0.0061840000     0.0709740000    -0.0416240000
    5      C       0.3641840000     1.4127740000     0.3447760000
    6      C      -0.0093160000     0.0063740000    -1.4630240000
    7      C       0.3178840000     1.2281740000    -2.0838240000
    8      S       0.6374840000     2.4340740000    -0.9426240000
    9      C       0.3882840000     1.4727740000    -3.5369240000
   10      O       0.1494840000     0.5702740000    -4.3272240000
   11      O       0.7234840000     2.7113740000    -3.9813240000
   12      F      -0.2939160000    -1.0707260000    -2.2232240000
   13      C       0.8261840000     3.0552740000    -5.3119240000
   14      H       1.1126840000     4.1223740000    -5.3472240000
   15      H      -0.1352160000     2.9097740000    -5.8525240000
   16      H       1.5934840000     2.4458740000    -5.8388240000
   17      C      -0.2288160000    -2.2415260000     1.0230760000
   18      H      -1.2938160000    -2.2505260000     0.8438760000
   19      H      -0.0840160000    -2.9254260000     0.1998760000
   20      H      -0.3849160000    -2.7659260000     1.9542760000
   21      H       0.6509840000     2.4724740000     2.3445760000
 ----------------------------------------------------------------

   11   -1389.2503153463      4.43e-07  Convergence criterion met
 Total energy in the final basis set =    -1389.2503153463
        RIMP2         total energy =     -1391.7544244420 a.u.

                    Orbital Energies (a.u.)
 --------------------------------------------------------------

 Alpha MOs
 -- Occupied --
-92.0066 -91.9879 -26.3344 -20.6090 -20.5448 -11.4057 -11.3763 -11.3181
-11.2914 -11.2870 -11.2867 -11.2753 -11.2667 -11.2341  -9.0054  -8.9922
 -6.6862  -6.6856  -6.6851  -6.6735  -6.6728  -6.6714  -1.6473  -1.4685
 -1.3632  -1.2260  -1.1464  -1.0671  -1.0269  -1.0063  -0.9673  -0.9115
 -0.8624  -0.7957  -0.7843  -0.7657  -0.7256  -0.7150  -0.6964  -0.6778
 -0.6760  -0.6670  -0.6092  -0.6027  -0.5922  -0.5863  -0.5856  -0.5589
 -0.5364  -0.5230  -0.5180  -0.4948  -0.4786  -0.4607  -0.4577  -0.4562
 -0.3890  -0.3465  -0.2720

          Ground-State Mulliken Net Atomic Charges

     Atom                 Charge (a.u.)
  ----------------------------------------
      1 C                     0.047762
      2 S                     0.090469
      3 C                    -0.278495
      4 C                    -0.106827
      5 C                    -0.005785
      6 C                     0.384465
      7 C                    -0.170274
      8 S                     0.025146
      9 C                     0.458925
     10 O                    -0.459210
     11 O                    -0.299094
     12 F                    -0.213149
     13 C                    -0.054909
     14 H                     0.115941
     15 H                     0.083477
     16 H                     0.083430
     17 C                    -0.377988
     18 H                     0.147200
     19 H                     0.172670
     20 H                     0.146966
     21 H                     0.209280
  ----------------------------------------
  Sum of atomic charges =     0.000000

                    Cartesian Multipole Moments
 -----------------------------------------------------------------
    Charge (ESU x 10^10)
                -0.0000
    Dipole Moment (Debye)
         X      -0.1827      Y       0.1904      Z       3.6621
       Tot       3.6716
    Quadrupole Moments (Debye-Ang)
        XX     -95.6530     XY       4.3844     YY     -82.5149
        XZ      -3.6769     YZ     -11.7353     ZZ     -97.0513

 Total job time:  54.00s(wall), 1931.16s(cpu)
        *  Thank you very much for using Q-Chem.  Have a nice day.  *
