 Q-Chem 5.4, Q-Chem, Inc., Pleasanton, CA (2021)
 Q-Chem 5.4.0 for Intel X86 EM64T Linux

User input:
--------------------------------------------------------------
$molecule
0 1
C	-0.444148	-0.717327	1.025187
S	0.007452	0.060473	2.535887
C	0.794252	1.425273	1.752787
C	0.009952	0.069273	-0.039513
C	0.703052	1.272673	0.346887
C	-0.021848	0.010873	-1.460913
C	0.610452	1.106373	-2.081713
S	1.231352	2.188373	-0.940513
C	0.741752	1.324373	-3.534813
O	0.277552	0.514473	-4.325113
O	1.386152	2.434073	-3.979213
F	-0.575448	-0.955927	-2.221113
C	1.574352	2.739673	-5.309813
H	2.127352	3.696273	-5.345113
H	0.608052	2.847873	-5.850413
H	2.157752	1.952473	-5.836713
C	-0.444148	-2.152527	1.025187
H	-0.640048	-2.161527	-0.036913
H	0.378952	-2.836427	0.879687
H	-1.372548	-2.676927	1.196987
H	1.254252	2.221973	2.346687
$end

$rem
JOBTYPE		SP
EXCHANGE	HF
CORRELATION	pRIMP2
BASIS		cc-pvtz
METHOD		rimp2
AUX_BASIS	rimp2-cc-pvtz
SOLVENT_METHOD	PCM
PURECART	11111
SYMMETRY	false
MEM_TOTAL	110000
SCF_CONVERGENCE = 6
THRESH=10
GUI = 2
$end

$solvent
dielectric 4.90
$end
--------------------------------------------------------------

             Standard Nuclear Orientation (Angstroms)
    I     Atom           X                Y                Z
 ----------------------------------------------------------------
    1      C      -0.4441480000    -0.7173270000     1.0251870000
    2      S       0.0074520000     0.0604730000     2.5358870000
    3      C       0.7942520000     1.4252730000     1.7527870000
    4      C       0.0099520000     0.0692730000    -0.0395130000
    5      C       0.7030520000     1.2726730000     0.3468870000
    6      C      -0.0218480000     0.0108730000    -1.4609130000
    7      C       0.6104520000     1.1063730000    -2.0817130000
    8      S       1.2313520000     2.1883730000    -0.9405130000
    9      C       0.7417520000     1.3243730000    -3.5348130000
   10      O       0.2775520000     0.5144730000    -4.3251130000
   11      O       1.3861520000     2.4340730000    -3.9792130000
   12      F      -0.5754480000    -0.9559270000    -2.2211130000
   13      C       1.5743520000     2.7396730000    -5.3098130000
   14      H       2.1273520000     3.6962730000    -5.3451130000
   15      H       0.6080520000     2.8478730000    -5.8504130000
   16      H       2.1577520000     1.9524730000    -5.8367130000
   17      C      -0.4441480000    -2.1525270000     1.0251870000
   18      H      -0.6400480000    -2.1615270000    -0.0369130000
   19      H       0.3789520000    -2.8364270000     0.8796870000
   20      H      -1.3725480000    -2.6769270000     1.1969870000
   21      H       1.2542520000     2.2219730000     2.3466870000
 ----------------------------------------------------------------

   11   -1389.2366476488      5.78e-07  Convergence criterion met
 Total energy in the final basis set =    -1389.2366476488
        RIMP2         total energy =     -1391.7496599962 a.u.

                    Orbital Energies (a.u.)
 --------------------------------------------------------------

 Alpha MOs
 -- Occupied --
-92.0029 -91.9934 -26.3353 -20.6120 -20.5501 -11.4102 -11.3760 -11.2968
-11.2967 -11.2927 -11.2916 -11.2885 -11.2768 -11.2233  -9.0020  -8.9974
 -6.6827  -6.6820  -6.6818  -6.6787  -6.6781  -6.6767  -1.6486  -1.4718
 -1.3672  -1.2298  -1.1465  -1.0681  -1.0277  -1.0046  -0.9695  -0.9103
 -0.8648  -0.7962  -0.7872  -0.7685  -0.7274  -0.7167  -0.6971  -0.6785
 -0.6777  -0.6706  -0.6066  -0.6056  -0.5993  -0.5902  -0.5780  -0.5663
 -0.5420  -0.5257  -0.5066  -0.4825  -0.4726  -0.4621  -0.4611  -0.4460
 -0.3965  -0.3445  -0.2851

          Ground-State Mulliken Net Atomic Charges

     Atom                 Charge (a.u.)
  ----------------------------------------
      1 C                    -0.006347
      2 S                     0.089637
      3 C                    -0.230334
      4 C                    -0.085663
      5 C                    -0.013140
      6 C                     0.359336
      7 C                    -0.143338
      8 S                     0.039935
      9 C                     0.456826
     10 O                    -0.450582
     11 O                    -0.297775
     12 F                    -0.212073
     13 C                    -0.054821
     14 H                     0.116689
     15 H                     0.084404
     16 H                     0.084304
     17 C                    -0.350088
     18 H                     0.110349
     19 H                     0.157616
     20 H                     0.133801
     21 H                     0.211264
  ----------------------------------------
  Sum of atomic charges =     0.000000

                    Cartesian Multipole Moments
 -----------------------------------------------------------------
    Charge (ESU x 10^10)
                -0.0000
    Dipole Moment (Debye)
         X       1.6263      Y       1.4027      Z       2.6170
       Tot       3.3855
    Quadrupole Moments (Debye-Ang)
        XX     -93.4439     XY       4.7581     YY     -85.0436
        XZ      -5.1396     YZ      -8.8720     ZZ     -96.8638

 Total job time:  61.35s(wall), 2430.39s(cpu)
        *  Thank you very much for using Q-Chem.  Have a nice day.  *
