 Q-Chem 5.4, Q-Chem, Inc., Pleasanton, CA (2021)
 Q-Chem 5.4.0 for Intel X86 EM64T Linux

User input:
--------------------------------------------------------------
$molecule
0 1
C	-0.766738	-0.392188	1.021526
S	0.013262	0.055612	2.532226
C	1.377062	0.844212	1.749126
C	0.019762	0.061912	-0.043174
C	1.221762	0.757612	0.343226
C	-0.036838	0.027312	-1.464574
C	1.058462	0.659812	-2.085374
S	2.137162	1.286512	-0.944174
C	1.281162	0.783012	-3.538474
O	0.474262	0.313712	-4.328774
O	2.394062	1.421812	-3.982874
F	-0.999738	-0.533088	-2.224774
C	2.709762	1.592412	-5.313474
H	3.666962	2.144312	-5.348774
H	1.927062	2.169312	-5.854074
H	2.821462	0.618912	-5.840374
C	-0.766738	-1.827388	1.021526
H	-1.697738	-1.836388	1.568826
H	-1.184938	-2.511288	0.297826
H	-0.287738	-2.351788	1.835126
H	2.173862	1.304112	2.343026
$end

$rem
JOBTYPE		SP
EXCHANGE	HF
CORRELATION	pRIMP2
BASIS		cc-pvtz
METHOD		rimp2
AUX_BASIS	rimp2-cc-pvtz
SOLVENT_METHOD	PCM
PURECART	11111
SYMMETRY	false
MEM_TOTAL	110000
SCF_CONVERGENCE = 6
THRESH=10
GUI = 2
$end

$solvent
dielectric 4.90
$end
--------------------------------------------------------------

             Standard Nuclear Orientation (Angstroms)
    I     Atom           X                Y                Z
 ----------------------------------------------------------------
    1      C      -0.7667380000    -0.3921880000     1.0215260000
    2      S       0.0132620000     0.0556120000     2.5322260000
    3      C       1.3770620000     0.8442120000     1.7491260000
    4      C       0.0197620000     0.0619120000    -0.0431740000
    5      C       1.2217620000     0.7576120000     0.3432260000
    6      C      -0.0368380000     0.0273120000    -1.4645740000
    7      C       1.0584620000     0.6598120000    -2.0853740000
    8      S       2.1371620000     1.2865120000    -0.9441740000
    9      C       1.2811620000     0.7830120000    -3.5384740000
   10      O       0.4742620000     0.3137120000    -4.3287740000
   11      O       2.3940620000     1.4218120000    -3.9828740000
   12      F      -0.9997380000    -0.5330880000    -2.2247740000
   13      C       2.7097620000     1.5924120000    -5.3134740000
   14      H       3.6669620000     2.1443120000    -5.3487740000
   15      H       1.9270620000     2.1693120000    -5.8540740000
   16      H       2.8214620000     0.6189120000    -5.8403740000
   17      C      -0.7667380000    -1.8273880000     1.0215260000
   18      H      -1.6977380000    -1.8363880000     1.5688260000
   19      H      -1.1849380000    -2.5112880000     0.2978260000
   20      H      -0.2877380000    -2.3517880000     1.8351260000
   21      H       2.1738620000     1.3041120000     2.3430260000
 ----------------------------------------------------------------

   11   -1389.1730169987      9.49e-07  Convergence criterion met
 Total energy in the final basis set =    -1389.1730169987
        RIMP2         total energy =     -1391.6978724476 a.u.

                    Orbital Energies (a.u.)
 --------------------------------------------------------------

 Alpha MOs
 -- Occupied --
-92.0050 -91.9991 -26.3322 -20.6139 -20.5540 -11.4133 -11.3724 -11.3141
-11.3052 -11.2936 -11.2894 -11.2809 -11.2636 -11.2125  -9.0046  -9.0028
 -6.6853  -6.6843  -6.6843  -6.6840  -6.6834  -6.6822  -1.6453  -1.4740
 -1.3699  -1.2339  -1.1535  -1.0676  -1.0320  -1.0008  -0.9716  -0.9039
 -0.8684  -0.7979  -0.7870  -0.7731  -0.7292  -0.7144  -0.6965  -0.6800
 -0.6731  -0.6723  -0.6102  -0.6087  -0.5972  -0.5909  -0.5762  -0.5609
 -0.5311  -0.5240  -0.5100  -0.4867  -0.4813  -0.4631  -0.4630  -0.4426
 -0.3749  -0.3438  -0.2824

          Ground-State Mulliken Net Atomic Charges

     Atom                 Charge (a.u.)
  ----------------------------------------
      1 C                    -0.166581
      2 S                     0.102734
      3 C                    -0.165610
      4 C                     0.029320
      5 C                    -0.036937
      6 C                     0.357433
      7 C                    -0.136708
      8 S                     0.054978
      9 C                     0.457351
     10 O                    -0.442983
     11 O                    -0.296834
     12 F                    -0.211628
     13 C                    -0.054753
     14 H                     0.117068
     15 H                     0.085212
     16 H                     0.084902
     17 C                    -0.396277
     18 H                     0.125737
     19 H                     0.149273
     20 H                     0.127295
     21 H                     0.217007
  ----------------------------------------
  Sum of atomic charges =     0.000000

                    Cartesian Multipole Moments
 -----------------------------------------------------------------
    Charge (ESU x 10^10)
                -0.0000
    Dipole Moment (Debye)
         X       3.9146      Y       1.1232      Z       3.1570
       Tot       5.1529
    Quadrupole Moments (Debye-Ang)
        XX     -88.6601     XY       6.2730     YY     -91.2823
        XZ      -8.2609     YZ      -6.2443     ZZ     -92.5244

 Total job time:  55.39s(wall), 1966.12s(cpu)
        *  Thank you very much for using Q-Chem.  Have a nice day.  *
