 Q-Chem 5.4, Q-Chem, Inc., Pleasanton, CA (2021)
 Q-Chem 5.4.0 for Intel X86 EM64T Linux

User input:
--------------------------------------------------------------
$molecule
0 1
C	-0.307013	-0.782911	1.023963
S	0.002687	0.061489	2.534663
C	0.540487	1.542189	1.751563
C	0.003587	0.070589	-0.040737
C	0.477187	1.376089	0.345663
C	-0.017513	0.007589	-1.462137
C	0.414887	1.196189	-2.082937
S	0.838487	2.369589	-0.941737
C	0.506387	1.433689	-3.536037
O	0.189887	0.555489	-4.326337
O	0.948287	2.638389	-3.980437
F	-0.394913	-1.040711	-2.222337
C	1.080487	2.971989	-5.311037
H	1.458987	4.010189	-5.346337
H	0.110087	2.910889	-5.851637
H	1.791787	2.298089	-5.837937
C	-0.307013	-2.218111	1.023963
H	0.704887	-2.227111	0.646663
H	-0.020813	-2.902011	1.809263
H	-0.637413	-2.742511	0.139563
H	0.855187	2.406689	2.345463
$end

$rem
JOBTYPE		SP
EXCHANGE	HF
CORRELATION	pRIMP2
BASIS		cc-pvtz
METHOD		rimp2
AUX_BASIS	rimp2-cc-pvtz
SOLVENT_METHOD	PCM
PURECART	11111
SYMMETRY	false
MEM_TOTAL	110000
SCF_CONVERGENCE = 6
THRESH=10
GUI = 2
$end

$solvent
dielectric 4.90
$end
--------------------------------------------------------------

             Standard Nuclear Orientation (Angstroms)
    I     Atom           X                Y                Z
 ----------------------------------------------------------------
    1      C      -0.3070130000    -0.7829110000     1.0239630000
    2      S       0.0026870000     0.0614890000     2.5346630000
    3      C       0.5404870000     1.5421890000     1.7515630000
    4      C       0.0035870000     0.0705890000    -0.0407370000
    5      C       0.4771870000     1.3760890000     0.3456630000
    6      C      -0.0175130000     0.0075890000    -1.4621370000
    7      C       0.4148870000     1.1961890000    -2.0829370000
    8      S       0.8384870000     2.3695890000    -0.9417370000
    9      C       0.5063870000     1.4336890000    -3.5360370000
   10      O       0.1898870000     0.5554890000    -4.3263370000
   11      O       0.9482870000     2.6383890000    -3.9804370000
   12      F      -0.3949130000    -1.0407110000    -2.2223370000
   13      C       1.0804870000     2.9719890000    -5.3110370000
   14      H       1.4589870000     4.0101890000    -5.3463370000
   15      H       0.1100870000     2.9108890000    -5.8516370000
   16      H       1.7917870000     2.2980890000    -5.8379370000
   17      C      -0.3070130000    -2.2181110000     1.0239630000
   18      H       0.7048870000    -2.2271110000     0.6466630000
   19      H      -0.0208130000    -2.9020110000     1.8092630000
   20      H      -0.6374130000    -2.7425110000     0.1395630000
   21      H       0.8551870000     2.4066890000     2.3454630000
 ----------------------------------------------------------------

   11   -1389.2500104224      4.47e-07  Convergence criterion met
 Total energy in the final basis set =    -1389.2500104224
        RIMP2         total energy =     -1391.7548903515 a.u.

                    Orbital Energies (a.u.)
 --------------------------------------------------------------

 Alpha MOs
 -- Occupied --
-92.0070 -91.9888 -26.3347 -20.6092 -20.5451 -11.4059 -11.3766 -11.3194
-11.2922 -11.2872 -11.2871 -11.2751 -11.2666 -11.2355  -9.0057  -8.9930
 -6.6865  -6.6859  -6.6854  -6.6743  -6.6736  -6.6722  -1.6476  -1.4687
 -1.3635  -1.2270  -1.1479  -1.0682  -1.0265  -1.0059  -0.9676  -0.9105
 -0.8625  -0.7956  -0.7847  -0.7659  -0.7259  -0.7153  -0.6968  -0.6775
 -0.6762  -0.6673  -0.6101  -0.6028  -0.5965  -0.5899  -0.5851  -0.5607
 -0.5341  -0.5234  -0.5119  -0.4946  -0.4782  -0.4635  -0.4589  -0.4565
 -0.3892  -0.3467  -0.2728

          Ground-State Mulliken Net Atomic Charges

     Atom                 Charge (a.u.)
  ----------------------------------------
      1 C                     0.050293
      2 S                     0.089574
      3 C                    -0.278119
      4 C                    -0.101129
      5 C                    -0.007717
      6 C                     0.377866
      7 C                    -0.170997
      8 S                     0.028217
      9 C                     0.458378
     10 O                    -0.458878
     11 O                    -0.299171
     12 F                    -0.212629
     13 C                    -0.054800
     14 H                     0.115899
     15 H                     0.083664
     16 H                     0.083325
     17 C                    -0.381860
     18 H                     0.151347
     19 H                     0.170701
     20 H                     0.147054
     21 H                     0.208982
  ----------------------------------------
  Sum of atomic charges =     0.000000

                    Cartesian Multipole Moments
 -----------------------------------------------------------------
    Charge (ESU x 10^10)
                -0.0000
    Dipole Moment (Debye)
         X       1.4595      Y       0.1574      Z       3.5133
       Tot       3.8077
    Quadrupole Moments (Debye-Ang)
        XX     -95.9048     XY       1.6003     YY     -83.0549
        XZ      -2.7596     YZ     -11.4144     ZZ     -97.3173

 Total job time:  54.17s(wall), 1961.91s(cpu)
        *  Thank you very much for using Q-Chem.  Have a nice day.  *
