 Q-Chem 5.4, Q-Chem, Inc., Pleasanton, CA (2021)
 Q-Chem 5.4.0 for Intel X86 EM64T Linux

User input:
--------------------------------------------------------------
$molecule
0 1
C	-0.080752	-0.833466	1.021287
S	-0.000152	0.062334	2.531987
C	0.136048	1.631734	1.748887
C	-0.001652	0.071334	-0.043413
C	0.117948	1.454934	0.342987
C	-0.005752	0.005034	-1.464813
C	0.104348	1.265034	-2.085613
S	0.209748	2.508134	-0.944413
C	0.131148	1.518134	-3.538713
O	0.052748	0.587934	-4.329013
O	0.246248	2.796134	-3.983113
F	-0.098952	-1.105166	-2.225013
C	0.287648	3.152634	-5.313713
H	0.384548	4.253334	-5.349013
H	-0.633852	2.842434	-5.854313
H	1.149148	2.685834	-5.840613
C	-0.080752	-2.268666	1.021287
H	0.619848	-2.277666	1.843087
H	-0.720852	-2.952566	1.558887
H	0.637348	-2.793066	0.408287
H	0.216348	2.548234	2.342787
$end

$rem
JOBTYPE		SP
EXCHANGE	HF
CORRELATION	pRIMP2
BASIS		cc-pvtz
METHOD		rimp2
AUX_BASIS	rimp2-cc-pvtz
SOLVENT_METHOD	PCM
PURECART	11111
SYMMETRY	false
MEM_TOTAL	110000
SCF_CONVERGENCE = 6
THRESH=10
GUI = 2
$end

$solvent
dielectric 4.90
$end
--------------------------------------------------------------

             Standard Nuclear Orientation (Angstroms)
    I     Atom           X                Y                Z
 ----------------------------------------------------------------
    1      C      -0.0807520000    -0.8334660000     1.0212870000
    2      S      -0.0001520000     0.0623340000     2.5319870000
    3      C       0.1360480000     1.6317340000     1.7488870000
    4      C      -0.0016520000     0.0713340000    -0.0434130000
    5      C       0.1179480000     1.4549340000     0.3429870000
    6      C      -0.0057520000     0.0050340000    -1.4648130000
    7      C       0.1043480000     1.2650340000    -2.0856130000
    8      S       0.2097480000     2.5081340000    -0.9444130000
    9      C       0.1311480000     1.5181340000    -3.5387130000
   10      O       0.0527480000     0.5879340000    -4.3290130000
   11      O       0.2462480000     2.7961340000    -3.9831130000
   12      F      -0.0989520000    -1.1051660000    -2.2250130000
   13      C       0.2876480000     3.1526340000    -5.3137130000
   14      H       0.3845480000     4.2533340000    -5.3490130000
   15      H      -0.6338520000     2.8424340000    -5.8543130000
   16      H       1.1491480000     2.6858340000    -5.8406130000
   17      C      -0.0807520000    -2.2686660000     1.0212870000
   18      H       0.6198480000    -2.2776660000     1.8430870000
   19      H      -0.7208520000    -2.9525660000     1.5588870000
   20      H       0.6373480000    -2.7930660000     0.4082870000
   21      H       0.2163480000     2.5482340000     2.3427870000
 ----------------------------------------------------------------

   11   -1389.2536470900      4.51e-07  Convergence criterion met
 Total energy in the final basis set =    -1389.2536470900
        RIMP2         total energy =     -1391.7577806117 a.u.

                    Orbital Energies (a.u.)
 --------------------------------------------------------------

 Alpha MOs
 -- Occupied --
-92.0066 -91.9886 -26.3333 -20.6099 -20.5464 -11.4069 -11.3758 -11.3133
-11.2910 -11.2897 -11.2874 -11.2803 -11.2688 -11.2310  -9.0056  -8.9928
 -6.6864  -6.6858  -6.6853  -6.6742  -6.6735  -6.6721  -1.6462  -1.4694
 -1.3643  -1.2265  -1.1468  -1.0658  -1.0289  -1.0057  -0.9680  -0.9104
 -0.8635  -0.7964  -0.7840  -0.7670  -0.7261  -0.7141  -0.6956  -0.6767
 -0.6764  -0.6674  -0.6096  -0.6035  -0.5978  -0.5865  -0.5797  -0.5631
 -0.5415  -0.5247  -0.5082  -0.4862  -0.4791  -0.4615  -0.4589  -0.4568
 -0.3940  -0.3463  -0.2774

          Ground-State Mulliken Net Atomic Charges

     Atom                 Charge (a.u.)
  ----------------------------------------
      1 C                     0.044519
      2 S                     0.079995
      3 C                    -0.262255
      4 C                    -0.091571
      5 C                    -0.014391
      6 C                     0.397370
      7 C                    -0.167574
      8 S                     0.024866
      9 C                     0.460025
     10 O                    -0.456359
     11 O                    -0.298584
     12 F                    -0.213487
     13 C                    -0.055063
     14 H                     0.116107
     15 H                     0.083908
     16 H                     0.083707
     17 C                    -0.375433
     18 H                     0.128471
     19 H                     0.157871
     20 H                     0.146791
     21 H                     0.211089
  ----------------------------------------
  Sum of atomic charges =     0.000000

                    Cartesian Multipole Moments
 -----------------------------------------------------------------
    Charge (ESU x 10^10)
                -0.0000
    Dipole Moment (Debye)
         X       0.7005      Y       0.7247      Z       4.1117
       Tot       4.2334
    Quadrupole Moments (Debye-Ang)
        XX     -96.1844     XY      -0.1748     YY     -82.1638
        XZ      -0.8424     YZ     -13.5335     ZZ     -95.4637

 Total job time:  54.41s(wall), 1955.12s(cpu)
        *  Thank you very much for using Q-Chem.  Have a nice day.  *
