 Q-Chem 5.4, Q-Chem, Inc., Pleasanton, CA (2021)
 Q-Chem 5.4.0 for Intel X86 EM64T Linux

User input:
--------------------------------------------------------------
$molecule
0 1
C	-0.374375	-0.753180	1.021526
S	0.007725	0.061020	2.532226
C	0.672525	1.489220	1.749126
C	0.009425	0.069920	-0.043174
C	0.595025	1.329320	0.343226
C	-0.017175	0.009120	-1.464574
C	0.517325	1.155520	-2.085374
S	1.041525	2.287520	-0.944174
C	0.629125	1.384120	-3.538474
O	0.237225	0.536820	-4.328774
O	1.174325	2.545720	-3.982874
F	-0.484475	-1.002280	-2.224774
C	1.335125	2.866520	-5.313474
H	1.802625	3.867720	-5.348774
H	0.363025	2.890220	-5.854074
H	1.985025	2.133220	-5.840374
C	-0.374375	-2.188380	1.021526
H	-1.305375	-2.197380	1.568826
H	-0.792575	-2.872280	0.297826
H	0.104625	-2.712780	1.835126
H	1.061425	2.323020	2.343026
$end

$rem
JOBTYPE		SP
EXCHANGE	HF
CORRELATION	pRIMP2
BASIS		cc-pvtz
METHOD		rimp2
AUX_BASIS	rimp2-cc-pvtz
SOLVENT_METHOD	PCM
PURECART	11111
SYMMETRY	false
MEM_TOTAL	110000
SCF_CONVERGENCE = 6
THRESH=10
GUI = 2
$end

$solvent
dielectric 4.90
$end
--------------------------------------------------------------

             Standard Nuclear Orientation (Angstroms)
    I     Atom           X                Y                Z
 ----------------------------------------------------------------
    1      C      -0.3743750000    -0.7531800000     1.0215260000
    2      S       0.0077250000     0.0610200000     2.5322260000
    3      C       0.6725250000     1.4892200000     1.7491260000
    4      C       0.0094250000     0.0699200000    -0.0431740000
    5      C       0.5950250000     1.3293200000     0.3432260000
    6      C      -0.0171750000     0.0091200000    -1.4645740000
    7      C       0.5173250000     1.1555200000    -2.0853740000
    8      S       1.0415250000     2.2875200000    -0.9441740000
    9      C       0.6291250000     1.3841200000    -3.5384740000
   10      O       0.2372250000     0.5368200000    -4.3287740000
   11      O       1.1743250000     2.5457200000    -3.9828740000
   12      F      -0.4844750000    -1.0022800000    -2.2247740000
   13      C       1.3351250000     2.8665200000    -5.3134740000
   14      H       1.8026250000     3.8677200000    -5.3487740000
   15      H       0.3630250000     2.8902200000    -5.8540740000
   16      H       1.9850250000     2.1332200000    -5.8403740000
   17      C      -0.3743750000    -2.1883800000     1.0215260000
   18      H      -1.3053750000    -2.1973800000     1.5688260000
   19      H      -0.7925750000    -2.8722800000     0.2978260000
   20      H       0.1046250000    -2.7127800000     1.8351260000
   21      H       1.0614250000     2.3230200000     2.3430260000
 ----------------------------------------------------------------

   11   -1389.2397605276      4.93e-07  Convergence criterion met
 Total energy in the final basis set =    -1389.2397605276
        RIMP2         total energy =     -1391.7475470455 a.u.

                    Orbital Energies (a.u.)
 --------------------------------------------------------------

 Alpha MOs
 -- Occupied --
-92.0071 -91.9890 -26.3333 -20.6098 -20.5464 -11.4069 -11.3753 -11.3094
-11.2913 -11.2899 -11.2874 -11.2824 -11.2683 -11.2291  -9.0059  -8.9933
 -6.6868  -6.6862  -6.6857  -6.6745  -6.6739  -6.6725  -1.6462  -1.4694
 -1.3643  -1.2267  -1.1472  -1.0656  -1.0284  -1.0051  -0.9679  -0.9103
 -0.8635  -0.7961  -0.7842  -0.7669  -0.7259  -0.7141  -0.6950  -0.6766
 -0.6761  -0.6676  -0.6093  -0.6035  -0.5926  -0.5866  -0.5851  -0.5598
 -0.5334  -0.5259  -0.5125  -0.4908  -0.4796  -0.4607  -0.4576  -0.4570
 -0.3890  -0.3463  -0.2748

          Ground-State Mulliken Net Atomic Charges

     Atom                 Charge (a.u.)
  ----------------------------------------
      1 C                    -0.009799
      2 S                     0.082866
      3 C                    -0.251528
      4 C                    -0.053586
      5 C                    -0.016735
      6 C                     0.374850
      7 C                    -0.165280
      8 S                     0.027273
      9 C                     0.457597
     10 O                    -0.455966
     11 O                    -0.298624
     12 F                    -0.211650
     13 C                    -0.054787
     14 H                     0.116075
     15 H                     0.083750
     16 H                     0.083725
     17 C                    -0.374527
     18 H                     0.136299
     19 H                     0.166560
     20 H                     0.152078
     21 H                     0.211410
  ----------------------------------------
  Sum of atomic charges =     0.000000

                    Cartesian Multipole Moments
 -----------------------------------------------------------------
    Charge (ESU x 10^10)
                -0.0000
    Dipole Moment (Debye)
         X       0.5296      Y       0.6167      Z       3.9687
       Tot       4.0511
    Quadrupole Moments (Debye-Ang)
        XX     -94.3812     XY       5.4538     YY     -84.0176
        XZ      -4.8632     YZ     -11.7840     ZZ     -95.5355

 Total job time:  54.49s(wall), 1935.06s(cpu)
        *  Thank you very much for using Q-Chem.  Have a nice day.  *
