 Q-Chem 5.4, Q-Chem, Inc., Pleasanton, CA (2021)
 Q-Chem 5.4.0 for Intel X86 EM64T Linux

User input:
--------------------------------------------------------------
$molecule
0 1
C	-0.769686	-0.392188	1.020802
S	0.010314	0.055612	2.531502
C	1.374114	0.844212	1.748402
C	0.016814	0.061912	-0.043898
C	1.218814	0.757612	0.342502
C	-0.039786	0.027312	-1.465298
C	1.055514	0.659812	-2.086098
S	2.134214	1.286512	-0.944898
C	1.278214	0.783012	-3.539198
O	0.471314	0.313712	-4.329498
O	2.391114	1.421812	-3.983598
F	-1.002686	-0.533088	-2.225498
C	2.706814	1.592412	-5.314198
H	3.664014	2.144312	-5.349498
H	1.924114	2.169312	-5.854798
H	2.818514	0.618912	-5.841098
C	-0.769686	-1.827388	1.020802
H	-0.392386	-1.836388	2.032702
H	-1.554986	-2.511288	1.307002
H	0.114714	-2.351788	0.690402
H	2.170914	1.304112	2.342302
$end

$rem
JOBTYPE		SP
EXCHANGE	HF
CORRELATION	pRIMP2
BASIS		cc-pvtz
METHOD		rimp2
AUX_BASIS	rimp2-cc-pvtz
SOLVENT_METHOD	PCM
PURECART	11111
SYMMETRY	false
MEM_TOTAL	110000
SCF_CONVERGENCE = 6
THRESH=10
GUI = 2
$end

$solvent
dielectric 4.90
$end
--------------------------------------------------------------

             Standard Nuclear Orientation (Angstroms)
    I     Atom           X                Y                Z
 ----------------------------------------------------------------
    1      C      -0.7696860000    -0.3921880000     1.0208020000
    2      S       0.0103140000     0.0556120000     2.5315020000
    3      C       1.3741140000     0.8442120000     1.7484020000
    4      C       0.0168140000     0.0619120000    -0.0438980000
    5      C       1.2188140000     0.7576120000     0.3425020000
    6      C      -0.0397860000     0.0273120000    -1.4652980000
    7      C       1.0555140000     0.6598120000    -2.0860980000
    8      S       2.1342140000     1.2865120000    -0.9448980000
    9      C       1.2782140000     0.7830120000    -3.5391980000
   10      O       0.4713140000     0.3137120000    -4.3294980000
   11      O       2.3911140000     1.4218120000    -3.9835980000
   12      F      -1.0026860000    -0.5330880000    -2.2254980000
   13      C       2.7068140000     1.5924120000    -5.3141980000
   14      H       3.6640140000     2.1443120000    -5.3494980000
   15      H       1.9241140000     2.1693120000    -5.8547980000
   16      H       2.8185140000     0.6189120000    -5.8410980000
   17      C      -0.7696860000    -1.8273880000     1.0208020000
   18      H      -0.3923860000    -1.8363880000     2.0327020000
   19      H      -1.5549860000    -2.5112880000     1.3070020000
   20      H       0.1147140000    -2.3517880000     0.6904020000
   21      H       2.1709140000     1.3041120000     2.3423020000
 ----------------------------------------------------------------

   11   -1389.1665654942      8.53e-07  Convergence criterion met
 Total energy in the final basis set =    -1389.1665654942
        RIMP2         total energy =     -1391.6916976396 a.u.

                    Orbital Energies (a.u.)
 --------------------------------------------------------------

 Alpha MOs
 -- Occupied --
-92.0017 -91.9994 -26.3323 -20.6146 -20.5551 -11.4142 -11.3728 -11.3157
-11.3075 -11.2925 -11.2898 -11.2846 -11.2662 -11.2113  -9.0031  -9.0023
 -6.6843  -6.6837  -6.6828  -6.6824  -6.6818  -6.6817  -1.6454  -1.4747
 -1.3707  -1.2360  -1.1581  -1.0689  -1.0347  -1.0001  -0.9728  -0.8993
 -0.8705  -0.7998  -0.7871  -0.7750  -0.7303  -0.7145  -0.6976  -0.6805
 -0.6744  -0.6733  -0.6104  -0.6081  -0.6038  -0.5914  -0.5702  -0.5607
 -0.5345  -0.5284  -0.5123  -0.4885  -0.4794  -0.4646  -0.4633  -0.4316
 -0.3891  -0.3354  -0.2884

          Ground-State Mulliken Net Atomic Charges

     Atom                 Charge (a.u.)
  ----------------------------------------
      1 C                    -0.115493
      2 S                     0.097373
      3 C                    -0.165842
      4 C                    -0.023117
      5 C                    -0.035644
      6 C                     0.368768
      7 C                    -0.134875
      8 S                     0.054419
      9 C                     0.457026
     10 O                    -0.440853
     11 O                    -0.296440
     12 F                    -0.210443
     13 C                    -0.054731
     14 H                     0.117206
     15 H                     0.085463
     16 H                     0.085106
     17 C                    -0.385466
     18 H                     0.126929
     19 H                     0.129869
     20 H                     0.124102
     21 H                     0.216642
  ----------------------------------------
  Sum of atomic charges =     0.000000

                    Cartesian Multipole Moments
 -----------------------------------------------------------------
    Charge (ESU x 10^10)
                -0.0000
    Dipole Moment (Debye)
         X       4.6915      Y       1.1979      Z       3.3565
       Tot       5.8916
    Quadrupole Moments (Debye-Ang)
        XX     -89.3919     XY       4.6771     YY     -91.6222
        XZ      -8.3948     YZ      -7.2719     ZZ     -91.6517

 Total job time:  55.17s(wall), 1991.21s(cpu)
        *  Thank you very much for using Q-Chem.  Have a nice day.  *
