 Q-Chem 5.4, Q-Chem, Inc., Pleasanton, CA (2021)
 Q-Chem 5.4.0 for Intel X86 EM64T Linux

User input:
--------------------------------------------------------------
$molecule
0 1
C	-0.303261	-0.782911	1.021216
S	0.006439	0.061489	2.531916
C	0.544239	1.542189	1.748816
C	0.007339	0.070589	-0.043484
C	0.480939	1.376089	0.342916
C	-0.013761	0.007589	-1.464884
C	0.418639	1.196189	-2.085684
S	0.842239	2.369589	-0.944484
C	0.510139	1.433689	-3.538784
O	0.193639	0.555489	-4.329084
O	0.952039	2.638389	-3.983184
F	-0.391161	-1.040711	-2.225084
C	1.084239	2.971989	-5.313784
H	1.462739	4.010189	-5.349084
H	0.113839	2.910889	-5.854384
H	1.795539	2.298089	-5.840684
C	-0.303261	-2.218111	1.021216
H	-1.125061	-2.227111	1.721816
H	-0.840861	-2.902011	0.381116
H	0.309739	-2.742511	1.739316
H	0.858939	2.406689	2.342716
$end

$rem
JOBTYPE		SP
EXCHANGE	HF
CORRELATION	pRIMP2
BASIS		cc-pvtz
METHOD		rimp2
AUX_BASIS	rimp2-cc-pvtz
SOLVENT_METHOD	PCM
PURECART	11111
SYMMETRY	false
MEM_TOTAL	110000
SCF_CONVERGENCE = 6
THRESH=10
GUI = 2
$end

$solvent
dielectric 4.90
$end
--------------------------------------------------------------

             Standard Nuclear Orientation (Angstroms)
    I     Atom           X                Y                Z
 ----------------------------------------------------------------
    1      C      -0.3032610000    -0.7829110000     1.0212160000
    2      S       0.0064390000     0.0614890000     2.5319160000
    3      C       0.5442390000     1.5421890000     1.7488160000
    4      C       0.0073390000     0.0705890000    -0.0434840000
    5      C       0.4809390000     1.3760890000     0.3429160000
    6      C      -0.0137610000     0.0075890000    -1.4648840000
    7      C       0.4186390000     1.1961890000    -2.0856840000
    8      S       0.8422390000     2.3695890000    -0.9444840000
    9      C       0.5101390000     1.4336890000    -3.5387840000
   10      O       0.1936390000     0.5554890000    -4.3290840000
   11      O       0.9520390000     2.6383890000    -3.9831840000
   12      F      -0.3911610000    -1.0407110000    -2.2250840000
   13      C       1.0842390000     2.9719890000    -5.3137840000
   14      H       1.4627390000     4.0101890000    -5.3490840000
   15      H       0.1138390000     2.9108890000    -5.8543840000
   16      H       1.7955390000     2.2980890000    -5.8406840000
   17      C      -0.3032610000    -2.2181110000     1.0212160000
   18      H      -1.1250610000    -2.2271110000     1.7218160000
   19      H      -0.8408610000    -2.9020110000     0.3811160000
   20      H       0.3097390000    -2.7425110000     1.7393160000
   21      H       0.8589390000     2.4066890000     2.3427160000
 ----------------------------------------------------------------

   11   -1389.2452321517      4.80e-07  Convergence criterion met
 Total energy in the final basis set =    -1389.2452321517
        RIMP2         total energy =     -1391.7517535393 a.u.

                    Orbital Energies (a.u.)
 --------------------------------------------------------------

 Alpha MOs
 -- Occupied --
-92.0077 -91.9889 -26.3331 -20.6098 -20.5464 -11.4070 -11.3754 -11.3102
-11.2912 -11.2899 -11.2873 -11.2821 -11.2681 -11.2296  -9.0065  -8.9932
 -6.6873  -6.6867  -6.6862  -6.6745  -6.6738  -6.6724  -1.6460  -1.4694
 -1.3643  -1.2266  -1.1470  -1.0655  -1.0287  -1.0053  -0.9679  -0.9103
 -0.8635  -0.7962  -0.7841  -0.7669  -0.7259  -0.7140  -0.6951  -0.6766
 -0.6762  -0.6675  -0.6097  -0.6036  -0.5939  -0.5868  -0.5830  -0.5612
 -0.5370  -0.5253  -0.5099  -0.4878  -0.4797  -0.4613  -0.4585  -0.4573
 -0.3909  -0.3464  -0.2763

          Ground-State Mulliken Net Atomic Charges

     Atom                 Charge (a.u.)
  ----------------------------------------
      1 C                    -0.004735
      2 S                     0.081860
      3 C                    -0.252297
      4 C                    -0.053633
      5 C                    -0.016466
      6 C                     0.375082
      7 C                    -0.164562
      8 S                     0.026289
      9 C                     0.457990
     10 O                    -0.455798
     11 O                    -0.298581
     12 F                    -0.211888
     13 C                    -0.054818
     14 H                     0.116045
     15 H                     0.083828
     16 H                     0.083706
     17 C                    -0.370176
     18 H                     0.130667
     19 H                     0.166542
     20 H                     0.149576
     21 H                     0.211370
  ----------------------------------------
  Sum of atomic charges =     0.000000

                    Cartesian Multipole Moments
 -----------------------------------------------------------------
    Charge (ESU x 10^10)
                -0.0000
    Dipole Moment (Debye)
         X       0.3896      Y       0.7091      Z       4.0521
       Tot       4.1321
    Quadrupole Moments (Debye-Ang)
        XX     -94.9336     XY       4.6695     YY     -83.3612
        XZ      -3.9119     YZ     -12.3826     ZZ     -95.4193

 Total job time:  55.37s(wall), 1988.71s(cpu)
        *  Thank you very much for using Q-Chem.  Have a nice day.  *
