 Q-Chem 5.4, Q-Chem, Inc., Pleasanton, CA (2021)
 Q-Chem 5.4.0 for Intel X86 EM64T Linux

User input:
--------------------------------------------------------------
$molecule
0 1
C	-0.377983	-0.753180	1.021287
S	0.004117	0.061020	2.531987
C	0.668917	1.489220	1.748887
C	0.005817	0.069920	-0.043413
C	0.591417	1.329320	0.342987
C	-0.020783	0.009120	-1.464813
C	0.513717	1.155520	-2.085613
S	1.037917	2.287520	-0.944413
C	0.625517	1.384120	-3.538713
O	0.233617	0.536820	-4.329013
O	1.170717	2.545720	-3.983113
F	-0.488083	-1.002280	-2.225013
C	1.331517	2.866520	-5.313713
H	1.799017	3.867720	-5.349013
H	0.359417	2.890220	-5.854313
H	1.981417	2.133220	-5.840613
C	-0.377983	-2.188380	1.021287
H	0.322617	-2.197380	1.843087
H	-1.018083	-2.872280	1.558887
H	0.340117	-2.712780	0.408287
H	1.057817	2.323020	2.342787
$end

$rem
JOBTYPE		SP
EXCHANGE	HF
CORRELATION	pRIMP2
BASIS		cc-pvtz
METHOD		rimp2
AUX_BASIS	rimp2-cc-pvtz
SOLVENT_METHOD	PCM
PURECART	11111
SYMMETRY	false
MEM_TOTAL	110000
SCF_CONVERGENCE = 6
THRESH=10
GUI = 2
$end

$solvent
dielectric 4.90
$end
--------------------------------------------------------------

             Standard Nuclear Orientation (Angstroms)
    I     Atom           X                Y                Z
 ----------------------------------------------------------------
    1      C      -0.3779830000    -0.7531800000     1.0212870000
    2      S       0.0041170000     0.0610200000     2.5319870000
    3      C       0.6689170000     1.4892200000     1.7488870000
    4      C       0.0058170000     0.0699200000    -0.0434130000
    5      C       0.5914170000     1.3293200000     0.3429870000
    6      C      -0.0207830000     0.0091200000    -1.4648130000
    7      C       0.5137170000     1.1555200000    -2.0856130000
    8      S       1.0379170000     2.2875200000    -0.9444130000
    9      C       0.6255170000     1.3841200000    -3.5387130000
   10      O       0.2336170000     0.5368200000    -4.3290130000
   11      O       1.1707170000     2.5457200000    -3.9831130000
   12      F      -0.4880830000    -1.0022800000    -2.2250130000
   13      C       1.3315170000     2.8665200000    -5.3137130000
   14      H       1.7990170000     3.8677200000    -5.3490130000
   15      H       0.3594170000     2.8902200000    -5.8543130000
   16      H       1.9814170000     2.1332200000    -5.8406130000
   17      C      -0.3779830000    -2.1883800000     1.0212870000
   18      H       0.3226170000    -2.1973800000     1.8430870000
   19      H      -1.0180830000    -2.8722800000     1.5588870000
   20      H       0.3401170000    -2.7127800000     0.4082870000
   21      H       1.0578170000     2.3230200000     2.3427870000
 ----------------------------------------------------------------

   11   -1389.2406402838      4.87e-07  Convergence criterion met
 Total energy in the final basis set =    -1389.2406402838
        RIMP2         total energy =     -1391.7481238963 a.u.

                    Orbital Energies (a.u.)
 --------------------------------------------------------------

 Alpha MOs
 -- Occupied --
-92.0041 -91.9896 -26.3333 -20.6105 -20.5475 -11.4079 -11.3758 -11.3084
-11.2920 -11.2911 -11.2877 -11.2843 -11.2711 -11.2284  -9.0035  -8.9939
 -6.6843  -6.6836  -6.6831  -6.6752  -6.6745  -6.6731  -1.6462  -1.4701
 -1.3652  -1.2278  -1.1487  -1.0659  -1.0294  -1.0044  -0.9685  -0.9085
 -0.8644  -0.7967  -0.7844  -0.7680  -0.7266  -0.7143  -0.6956  -0.6772
 -0.6762  -0.6681  -0.6093  -0.6043  -0.5993  -0.5876  -0.5730  -0.5647
 -0.5429  -0.5251  -0.5095  -0.4874  -0.4793  -0.4606  -0.4588  -0.4534
 -0.3942  -0.3455  -0.2776

          Ground-State Mulliken Net Atomic Charges

     Atom                 Charge (a.u.)
  ----------------------------------------
      1 C                     0.050752
      2 S                     0.079093
      3 C                    -0.250224
      4 C                    -0.111435
      5 C                    -0.011853
      6 C                     0.381165
      7 C                    -0.165113
      8 S                     0.028914
      9 C                     0.458566
     10 O                    -0.453957
     11 O                    -0.298319
     12 F                    -0.211005
     13 C                    -0.054757
     14 H                     0.116245
     15 H                     0.084058
     16 H                     0.083865
     17 C                    -0.377938
     18 H                     0.136833
     19 H                     0.155707
     20 H                     0.148469
     21 H                     0.210937
  ----------------------------------------
  Sum of atomic charges =     0.000000

                    Cartesian Multipole Moments
 -----------------------------------------------------------------
    Charge (ESU x 10^10)
                -0.0000
    Dipole Moment (Debye)
         X       1.6800      Y       0.7940      Z       3.9686
       Tot       4.3821
    Quadrupole Moments (Debye-Ang)
        XX     -94.9318     XY       2.8589     YY     -84.2131
        XZ      -4.4408     YZ     -12.4096     ZZ     -95.0669

 Total job time:  52.47s(wall), 1885.50s(cpu)
        *  Thank you very much for using Q-Chem.  Have a nice day.  *
