 Q-Chem 5.4, Q-Chem, Inc., Pleasanton, CA (2021)
 Q-Chem 5.4.0 for Intel X86 EM64T Linux

User input:
--------------------------------------------------------------
$molecule
0 1
C	-0.003191	-0.836989	1.021016
S	-0.000991	0.062411	2.531716
C	-0.001991	1.637711	1.748616
C	-0.003191	0.071211	-0.043684
C	-0.004691	1.460011	0.342716
C	-0.001591	0.004811	-1.465084
C	-0.001691	1.269711	-2.085884
S	-0.004991	2.517211	-0.944684
C	0.003009	1.524111	-3.538984
O	0.006009	0.590611	-4.329284
O	0.006209	2.807311	-3.983384
F	0.002309	-1.109289	-2.225284
C	0.016409	3.166011	-5.313984
H	0.017009	4.271011	-5.349284
H	-0.874591	2.776711	-5.854584
H	0.915309	2.776111	-5.840884
C	-0.003191	-2.272189	1.021016
H	0.544109	-2.281189	1.952016
H	-0.726891	-2.956089	1.439216
H	0.810409	-2.796589	0.542016
H	-0.001991	2.557811	2.342516
$end

$rem
JOBTYPE		SP
EXCHANGE	HF
CORRELATION	pRIMP2
BASIS		cc-pvtz
METHOD		rimp2
AUX_BASIS	rimp2-cc-pvtz
SOLVENT_METHOD	PCM
PURECART	11111
SYMMETRY	false
MEM_TOTAL	110000
SCF_CONVERGENCE = 6
THRESH=10
GUI = 2
$end

$solvent
dielectric 4.90
$end
--------------------------------------------------------------

             Standard Nuclear Orientation (Angstroms)
    I     Atom           X                Y                Z
 ----------------------------------------------------------------
    1      C      -0.0031910000    -0.8369890000     1.0210160000
    2      S      -0.0009910000     0.0624110000     2.5317160000
    3      C      -0.0019910000     1.6377110000     1.7486160000
    4      C      -0.0031910000     0.0712110000    -0.0436840000
    5      C      -0.0046910000     1.4600110000     0.3427160000
    6      C      -0.0015910000     0.0048110000    -1.4650840000
    7      C      -0.0016910000     1.2697110000    -2.0858840000
    8      S      -0.0049910000     2.5172110000    -0.9446840000
    9      C       0.0030090000     1.5241110000    -3.5389840000
   10      O       0.0060090000     0.5906110000    -4.3292840000
   11      O       0.0062090000     2.8073110000    -3.9833840000
   12      F       0.0023090000    -1.1092890000    -2.2252840000
   13      C       0.0164090000     3.1660110000    -5.3139840000
   14      H       0.0170090000     4.2710110000    -5.3492840000
   15      H      -0.8745910000     2.7767110000    -5.8545840000
   16      H       0.9153090000     2.7761110000    -5.8408840000
   17      C      -0.0031910000    -2.2721890000     1.0210160000
   18      H       0.5441090000    -2.2811890000     1.9520160000
   19      H      -0.7268910000    -2.9560890000     1.4392160000
   20      H       0.8104090000    -2.7965890000     0.5420160000
   21      H      -0.0019910000     2.5578110000     2.3425160000
 ----------------------------------------------------------------

   11   -1389.2532683553      4.66e-07  Convergence criterion met
 Total energy in the final basis set =    -1389.2532683553
        RIMP2         total energy =     -1391.7583462586 a.u.

                    Orbital Energies (a.u.)
 --------------------------------------------------------------

 Alpha MOs
 -- Occupied --
-92.0081 -91.9892 -26.3331 -20.6101 -20.5468 -11.4073 -11.3755 -11.3106
-11.2912 -11.2905 -11.2875 -11.2819 -11.2689 -11.2297  -9.0069  -8.9934
 -6.6876  -6.6871  -6.6866  -6.6747  -6.6740  -6.6727  -1.6460  -1.4696
 -1.3646  -1.2265  -1.1466  -1.0654  -1.0292  -1.0056  -0.9682  -0.9104
 -0.8639  -0.7965  -0.7840  -0.7673  -0.7261  -0.7140  -0.6956  -0.6768
 -0.6762  -0.6676  -0.6091  -0.6038  -0.5974  -0.5869  -0.5793  -0.5643
 -0.5423  -0.5247  -0.5063  -0.4819  -0.4797  -0.4623  -0.4594  -0.4573
 -0.3947  -0.3463  -0.2795

          Ground-State Mulliken Net Atomic Charges

     Atom                 Charge (a.u.)
  ----------------------------------------
      1 C                     0.039542
      2 S                     0.082628
      3 C                    -0.259548
      4 C                    -0.084484
      5 C                    -0.012737
      6 C                     0.393670
      7 C                    -0.165537
      8 S                     0.026345
      9 C                     0.459618
     10 O                    -0.455589
     11 O                    -0.298509
     12 F                    -0.213711
     13 C                    -0.055004
     14 H                     0.116136
     15 H                     0.083939
     16 H                     0.083786
     17 C                    -0.371655
     18 H                     0.120169
     19 H                     0.153138
     20 H                     0.146287
     21 H                     0.211517
  ----------------------------------------
  Sum of atomic charges =     0.000000

                    Cartesian Multipole Moments
 -----------------------------------------------------------------
    Charge (ESU x 10^10)
                -0.0000
    Dipole Moment (Debye)
         X       0.3652      Y       0.9348      Z       4.1352
       Tot       4.2553
    Quadrupole Moments (Debye-Ang)
        XX     -96.0587     XY      -0.7675     YY     -82.1737
        XZ       0.0297     YZ     -13.5376     ZZ     -95.2306

 Total job time:  53.31s(wall), 1934.74s(cpu)
        *  Thank you very much for using Q-Chem.  Have a nice day.  *
