 Q-Chem 5.4, Q-Chem, Inc., Pleasanton, CA (2021)
 Q-Chem 5.4.0 for Intel X86 EM64T Linux

User input:
--------------------------------------------------------------
$molecule
0 1
C	-0.568859	-0.628442	1.023076
S	0.011041	0.059158	2.533776
C	1.022741	1.266558	1.750676
C	0.014941	0.067358	-0.041624
C	0.906441	1.132158	0.344776
C	-0.026459	0.015358	-1.463024
C	0.786441	0.984358	-2.083824
S	1.585741	1.942158	-0.942624
C	0.953541	1.176358	-3.536924
O	0.355841	0.459358	-4.327224
O	1.780841	2.157258	-3.981324
F	-0.739659	-0.840542	-2.223224
C	2.019241	2.425458	-5.311924
H	2.729941	3.271558	-5.347224
H	1.086441	2.699958	-5.852524
H	2.457141	1.548958	-5.838824
C	-0.568859	-2.063642	1.023076
H	-1.633859	-2.072642	0.843876
H	-0.424059	-2.747542	0.199876
H	-0.724959	-2.588042	1.954276
H	1.614241	1.971358	2.344576
$end

$rem
JOBTYPE		SP
EXCHANGE	HF
CORRELATION	pRIMP2
BASIS		cc-pvtz
METHOD		rimp2
AUX_BASIS	rimp2-cc-pvtz
SOLVENT_METHOD	PCM
PURECART	11111
SYMMETRY	false
MEM_TOTAL	110000
SCF_CONVERGENCE = 6
THRESH=10
GUI = 2
$end

$solvent
dielectric 4.90
$end
--------------------------------------------------------------

             Standard Nuclear Orientation (Angstroms)
    I     Atom           X                Y                Z
 ----------------------------------------------------------------
    1      C      -0.5688590000    -0.6284420000     1.0230760000
    2      S       0.0110410000     0.0591580000     2.5337760000
    3      C       1.0227410000     1.2665580000     1.7506760000
    4      C       0.0149410000     0.0673580000    -0.0416240000
    5      C       0.9064410000     1.1321580000     0.3447760000
    6      C      -0.0264590000     0.0153580000    -1.4630240000
    7      C       0.7864410000     0.9843580000    -2.0838240000
    8      S       1.5857410000     1.9421580000    -0.9426240000
    9      C       0.9535410000     1.1763580000    -3.5369240000
   10      O       0.3558410000     0.4593580000    -4.3272240000
   11      O       1.7808410000     2.1572580000    -3.9813240000
   12      F      -0.7396590000    -0.8405420000    -2.2232240000
   13      C       2.0192410000     2.4254580000    -5.3119240000
   14      H       2.7299410000     3.2715580000    -5.3472240000
   15      H       1.0864410000     2.6999580000    -5.8525240000
   16      H       2.4571410000     1.5489580000    -5.8388240000
   17      C      -0.5688590000    -2.0636420000     1.0230760000
   18      H      -1.6338590000    -2.0726420000     0.8438760000
   19      H      -0.4240590000    -2.7475420000     0.1998760000
   20      H      -0.7249590000    -2.5880420000     1.9542760000
   21      H       1.6142410000     1.9713580000     2.3445760000
 ----------------------------------------------------------------

   11   -1389.2163481847      5.92e-07  Convergence criterion met
 Total energy in the final basis set =    -1389.2163481847
        RIMP2         total energy =     -1391.7318734725 a.u.

                    Orbital Energies (a.u.)
 --------------------------------------------------------------

 Alpha MOs
 -- Occupied --
-92.0043 -91.9918 -26.3338 -20.6108 -20.5481 -11.4084 -11.3750 -11.2985
-11.2932 -11.2923 -11.2885 -11.2879 -11.2725 -11.2239  -9.0035  -8.9959
 -6.6842  -6.6834  -6.6831  -6.6772  -6.6765  -6.6752  -1.6469  -1.4705
 -1.3657  -1.2286  -1.1479  -1.0663  -1.0279  -1.0039  -0.9686  -0.9094
 -0.8642  -0.7960  -0.7854  -0.7680  -0.7265  -0.7151  -0.6952  -0.6775
 -0.6764  -0.6689  -0.6071  -0.6047  -0.5951  -0.5891  -0.5775  -0.5586
 -0.5354  -0.5218  -0.5165  -0.4948  -0.4806  -0.4608  -0.4590  -0.4482
 -0.3840  -0.3452  -0.2737

          Ground-State Mulliken Net Atomic Charges

     Atom                 Charge (a.u.)
  ----------------------------------------
      1 C                    -0.008552
      2 S                     0.096852
      3 C                    -0.240263
      4 C                    -0.082625
      5 C                    -0.009808
      6 C                     0.363783
      7 C                    -0.157033
      8 S                     0.038099
      9 C                     0.456444
     10 O                    -0.453425
     11 O                    -0.298367
     12 F                    -0.211314
     13 C                    -0.054649
     14 H                     0.116322
     15 H                     0.084081
     16 H                     0.083895
     17 C                    -0.383770
     18 H                     0.138983
     19 H                     0.166503
     20 H                     0.144303
     21 H                     0.210542
  ----------------------------------------
  Sum of atomic charges =     0.000000

                    Cartesian Multipole Moments
 -----------------------------------------------------------------
    Charge (ESU x 10^10)
                -0.0000
    Dipole Moment (Debye)
         X       1.3753      Y       0.7126      Z       3.3522
       Tot       3.6928
    Quadrupole Moments (Debye-Ang)
        XX     -92.1174     XY       6.7112     YY     -86.7728
        XZ      -7.3644     YZ      -9.0634     ZZ     -95.7376

 Total job time:  53.02s(wall), 1847.13s(cpu)
        *  Thank you very much for using Q-Chem.  Have a nice day.  *
