 Q-Chem 5.4, Q-Chem, Inc., Pleasanton, CA (2021)
 Q-Chem 5.4.0 for Intel X86 EM64T Linux

User input:
--------------------------------------------------------------
$molecule
0 1
C	-0.077343	-0.833466	1.024554
S	0.003257	0.062334	2.535254
C	0.139457	1.631734	1.752154
C	0.001757	0.071334	-0.040146
C	0.121357	1.454934	0.346254
C	-0.002343	0.005034	-1.461546
C	0.107757	1.265034	-2.082346
S	0.213157	2.508134	-0.941146
C	0.134557	1.518134	-3.535446
O	0.056157	0.587934	-4.325746
O	0.249657	2.796134	-3.979846
F	-0.095543	-1.105166	-2.221746
C	0.291057	3.152634	-5.310446
H	0.387957	4.253334	-5.345746
H	-0.630443	2.842434	-5.851046
H	1.152557	2.685834	-5.837346
C	-0.077343	-2.268666	1.024554
H	-0.777943	-2.277666	0.202754
H	0.562757	-2.952566	0.486954
H	-0.795443	-2.793066	1.637554
H	0.219757	2.548234	2.346054
$end

$rem
JOBTYPE		SP
EXCHANGE	HF
CORRELATION	pRIMP2
BASIS		cc-pvtz
METHOD		rimp2
AUX_BASIS	rimp2-cc-pvtz
SOLVENT_METHOD	PCM
PURECART	11111
SYMMETRY	false
MEM_TOTAL	110000
SCF_CONVERGENCE = 6
THRESH=10
GUI = 2
$end

$solvent
dielectric 4.90
$end
--------------------------------------------------------------

             Standard Nuclear Orientation (Angstroms)
    I     Atom           X                Y                Z
 ----------------------------------------------------------------
    1      C      -0.0773430000    -0.8334660000     1.0245540000
    2      S       0.0032570000     0.0623340000     2.5352540000
    3      C       0.1394570000     1.6317340000     1.7521540000
    4      C       0.0017570000     0.0713340000    -0.0401460000
    5      C       0.1213570000     1.4549340000     0.3462540000
    6      C      -0.0023430000     0.0050340000    -1.4615460000
    7      C       0.1077570000     1.2650340000    -2.0823460000
    8      S       0.2131570000     2.5081340000    -0.9411460000
    9      C       0.1345570000     1.5181340000    -3.5354460000
   10      O       0.0561570000     0.5879340000    -4.3257460000
   11      O       0.2496570000     2.7961340000    -3.9798460000
   12      F      -0.0955430000    -1.1051660000    -2.2217460000
   13      C       0.2910570000     3.1526340000    -5.3104460000
   14      H       0.3879570000     4.2533340000    -5.3457460000
   15      H      -0.6304430000     2.8424340000    -5.8510460000
   16      H       1.1525570000     2.6858340000    -5.8373460000
   17      C      -0.0773430000    -2.2686660000     1.0245540000
   18      H      -0.7779430000    -2.2776660000     0.2027540000
   19      H       0.5627570000    -2.9525660000     0.4869540000
   20      H      -0.7954430000    -2.7930660000     1.6375540000
   21      H       0.2197570000     2.5482340000     2.3460540000
 ----------------------------------------------------------------

   11   -1389.2550415069      4.70e-07  Convergence criterion met
 Total energy in the final basis set =    -1389.2550415069
        RIMP2         total energy =     -1391.7606546926 a.u.

                    Orbital Energies (a.u.)
 --------------------------------------------------------------

 Alpha MOs
 -- Occupied --
-92.0057 -91.9897 -26.3350 -20.6102 -20.5467 -11.4073 -11.3765 -11.3134
-11.2917 -11.2902 -11.2876 -11.2793 -11.2704 -11.2309  -9.0044  -8.9939
 -6.6852  -6.6846  -6.6841  -6.6752  -6.6745  -6.6732  -1.6480  -1.4697
 -1.3647  -1.2271  -1.1455  -1.0676  -1.0268  -1.0066  -0.9681  -0.9117
 -0.8631  -0.7956  -0.7854  -0.7663  -0.7261  -0.7158  -0.6974  -0.6786
 -0.6770  -0.6682  -0.6096  -0.6039  -0.5949  -0.5870  -0.5812  -0.5662
 -0.5433  -0.5240  -0.5060  -0.4846  -0.4786  -0.4624  -0.4596  -0.4562
 -0.3930  -0.3458  -0.2780

          Ground-State Mulliken Net Atomic Charges

     Atom                 Charge (a.u.)
  ----------------------------------------
      1 C                     0.051319
      2 S                     0.082508
      3 C                    -0.264685
      4 C                    -0.104046
      5 C                    -0.009983
      6 C                     0.389050
      7 C                    -0.161069
      8 S                     0.027162
      9 C                     0.459165
     10 O                    -0.456694
     11 O                    -0.298548
     12 F                    -0.214559
     13 C                    -0.055071
     14 H                     0.116224
     15 H                     0.083844
     16 H                     0.083779
     17 C                    -0.374111
     18 H                     0.127984
     19 H                     0.158747
     20 H                     0.149114
     21 H                     0.209870
  ----------------------------------------
  Sum of atomic charges =     0.000000

                    Cartesian Multipole Moments
 -----------------------------------------------------------------
    Charge (ESU x 10^10)
                -0.0000
    Dipole Moment (Debye)
         X      -0.2433      Y       0.7286      Z       3.0748
       Tot       3.1693
    Quadrupole Moments (Debye-Ang)
        XX     -96.0159     XY       2.0735     YY     -82.0412
        XZ      -1.7537     YZ     -10.9880     ZZ     -97.5941

 Total job time:  54.07s(wall), 1983.88s(cpu)
        *  Thank you very much for using Q-Chem.  Have a nice day.  *
