 Q-Chem 5.4, Q-Chem, Inc., Pleasanton, CA (2021)
 Q-Chem 5.4.0 for Intel X86 EM64T Linux

User input:
--------------------------------------------------------------
$molecule
0 1
C	-0.153591	-0.823218	1.021878
S	0.004809	0.062182	2.532578
C	0.277309	1.613782	1.749478
C	0.004109	0.071182	-0.042822
C	0.243809	1.439182	0.343578
C	-0.005791	0.005582	-1.464222
C	0.213709	1.251182	-2.085022
S	0.427009	2.480282	-0.943822
C	0.262509	1.500982	-3.538122
O	0.103309	0.581182	-4.328422
O	0.488509	2.764082	-3.982522
F	-0.195391	-1.092318	-2.224422
C	0.560809	3.115582	-5.313122
H	0.753209	4.203682	-5.348422
H	-0.384291	2.886882	-5.853722
H	1.378309	2.575482	-5.840022
C	-0.153591	-2.258418	1.021878
H	-1.165491	-2.267418	1.399178
H	-0.439791	-2.942318	0.236578
H	0.176809	-2.782818	1.906278
H	0.437109	2.519782	2.343378
$end

$rem
JOBTYPE		SP
EXCHANGE	HF
CORRELATION	pRIMP2
BASIS		cc-pvtz
METHOD		rimp2
AUX_BASIS	rimp2-cc-pvtz
SOLVENT_METHOD	PCM
PURECART	11111
SYMMETRY	false
MEM_TOTAL	110000
SCF_CONVERGENCE = 6
THRESH=10
GUI = 2
$end

$solvent
dielectric 4.90
$end
--------------------------------------------------------------

             Standard Nuclear Orientation (Angstroms)
    I     Atom           X                Y                Z
 ----------------------------------------------------------------
    1      C      -0.1535910000    -0.8232180000     1.0218780000
    2      S       0.0048090000     0.0621820000     2.5325780000
    3      C       0.2773090000     1.6137820000     1.7494780000
    4      C       0.0041090000     0.0711820000    -0.0428220000
    5      C       0.2438090000     1.4391820000     0.3435780000
    6      C      -0.0057910000     0.0055820000    -1.4642220000
    7      C       0.2137090000     1.2511820000    -2.0850220000
    8      S       0.4270090000     2.4802820000    -0.9438220000
    9      C       0.2625090000     1.5009820000    -3.5381220000
   10      O       0.1033090000     0.5811820000    -4.3284220000
   11      O       0.4885090000     2.7640820000    -3.9825220000
   12      F      -0.1953910000    -1.0923180000    -2.2244220000
   13      C       0.5608090000     3.1155820000    -5.3131220000
   14      H       0.7532090000     4.2036820000    -5.3484220000
   15      H      -0.3842910000     2.8868820000    -5.8537220000
   16      H       1.3783090000     2.5754820000    -5.8400220000
   17      C      -0.1535910000    -2.2584180000     1.0218780000
   18      H      -1.1654910000    -2.2674180000     1.3991780000
   19      H      -0.4397910000    -2.9423180000     0.2365780000
   20      H       0.1768090000    -2.7828180000     1.9062780000
   21      H       0.4371090000     2.5197820000     2.3433780000
 ----------------------------------------------------------------

   11   -1389.2530098563      4.30e-07  Convergence criterion met
 Total energy in the final basis set =    -1389.2530098563
        RIMP2         total energy =     -1391.7556783901 a.u.

                    Orbital Energies (a.u.)
 --------------------------------------------------------------

 Alpha MOs
 -- Occupied --
-92.0068 -91.9873 -26.3337 -20.6090 -20.5448 -11.4056 -11.3762 -11.3186
-11.2909 -11.2869 -11.2867 -11.2759 -11.2662 -11.2343  -9.0056  -8.9916
 -6.6865  -6.6859  -6.6853  -6.6729  -6.6723  -6.6709  -1.6466  -1.4685
 -1.3632  -1.2257  -1.1467  -1.0665  -1.0277  -1.0061  -0.9673  -0.9112
 -0.8625  -0.7959  -0.7839  -0.7658  -0.7256  -0.7143  -0.6959  -0.6773
 -0.6760  -0.6667  -0.6099  -0.6026  -0.5936  -0.5857  -0.5847  -0.5591
 -0.5339  -0.5271  -0.5168  -0.4932  -0.4784  -0.4615  -0.4582  -0.4563
 -0.3903  -0.3468  -0.2725

          Ground-State Mulliken Net Atomic Charges

     Atom                 Charge (a.u.)
  ----------------------------------------
      1 C                     0.029888
      2 S                     0.078734
      3 C                    -0.269996
      4 C                    -0.079632
      5 C                    -0.016468
      6 C                     0.395468
      7 C                    -0.171470
      8 S                     0.021815
      9 C                     0.459337
     10 O                    -0.458995
     11 O                    -0.298996
     12 F                    -0.213511
     13 C                    -0.054963
     14 H                     0.115868
     15 H                     0.083460
     16 H                     0.083517
     17 C                    -0.380097
     18 H                     0.143825
     19 H                     0.171379
     20 H                     0.150097
     21 H                     0.210740
  ----------------------------------------
  Sum of atomic charges =     0.000000

                    Cartesian Multipole Moments
 -----------------------------------------------------------------
    Charge (ESU x 10^10)
                -0.0000
    Dipole Moment (Debye)
         X      -0.3249      Y       0.2270      Z       4.0294
       Tot       4.0488
    Quadrupole Moments (Debye-Ang)
        XX     -96.0459     XY       3.5419     YY     -82.1254
        XZ      -2.4394     YZ     -12.8095     ZZ     -96.3064

 Total job time:  69.23s(wall), 2931.93s(cpu)
        *  Thank you very much for using Q-Chem.  Have a nice day.  *
