 Q-Chem 5.4, Q-Chem, Inc., Pleasanton, CA (2021)
 Q-Chem 5.4.0 for Intel X86 EM64T Linux

User input:
--------------------------------------------------------------
$molecule
0 1
C	-0.572527	-0.628442	1.024882
S	0.007373	0.059158	2.535582
C	1.019073	1.266558	1.752482
C	0.011273	0.067358	-0.039818
C	0.902773	1.132158	0.346582
C	-0.030127	0.015358	-1.461218
C	0.782773	0.984358	-2.082018
S	1.582073	1.942158	-0.940818
C	0.949873	1.176358	-3.535118
O	0.352173	0.459358	-4.325418
O	1.777173	2.157258	-3.979518
F	-0.743327	-0.840542	-2.221418
C	2.015573	2.425458	-5.310118
H	2.726273	3.271558	-5.345418
H	1.082773	2.699958	-5.850718
H	2.453473	1.548958	-5.837018
C	-0.572527	-2.063642	1.024882
H	0.115173	-2.072642	0.192182
H	0.067973	-2.747542	1.561882
H	-1.300927	-2.588042	0.424182
H	1.610573	1.971358	2.346382
$end

$rem
JOBTYPE		SP
EXCHANGE	HF
CORRELATION	pRIMP2
BASIS		cc-pvtz
METHOD		rimp2
AUX_BASIS	rimp2-cc-pvtz
SOLVENT_METHOD	PCM
PURECART	11111
SYMMETRY	false
MEM_TOTAL	110000
SCF_CONVERGENCE = 6
THRESH=10
GUI = 2
$end

$solvent
dielectric 4.90
$end
--------------------------------------------------------------

             Standard Nuclear Orientation (Angstroms)
    I     Atom           X                Y                Z
 ----------------------------------------------------------------
    1      C      -0.5725270000    -0.6284420000     1.0248820000
    2      S       0.0073730000     0.0591580000     2.5355820000
    3      C       1.0190730000     1.2665580000     1.7524820000
    4      C       0.0112730000     0.0673580000    -0.0398180000
    5      C       0.9027730000     1.1321580000     0.3465820000
    6      C      -0.0301270000     0.0153580000    -1.4612180000
    7      C       0.7827730000     0.9843580000    -2.0820180000
    8      S       1.5820730000     1.9421580000    -0.9408180000
    9      C       0.9498730000     1.1763580000    -3.5351180000
   10      O       0.3521730000     0.4593580000    -4.3254180000
   11      O       1.7771730000     2.1572580000    -3.9795180000
   12      F      -0.7433270000    -0.8405420000    -2.2214180000
   13      C       2.0155730000     2.4254580000    -5.3101180000
   14      H       2.7262730000     3.2715580000    -5.3454180000
   15      H       1.0827730000     2.6999580000    -5.8507180000
   16      H       2.4534730000     1.5489580000    -5.8370180000
   17      C      -0.5725270000    -2.0636420000     1.0248820000
   18      H       0.1151730000    -2.0726420000     0.1921820000
   19      H       0.0679730000    -2.7475420000     1.5618820000
   20      H      -1.3009270000    -2.5880420000     0.4241820000
   21      H       1.6105730000     1.9713580000     2.3463820000
 ----------------------------------------------------------------

   11   -1389.2177971885      6.13e-07  Convergence criterion met
 Total energy in the final basis set =    -1389.2177971885
        RIMP2         total energy =     -1391.7350642542 a.u.

                    Orbital Energies (a.u.)
 --------------------------------------------------------------

 Alpha MOs
 -- Occupied --
-92.0078 -91.9943 -26.3344 -20.6117 -20.5495 -11.4097 -11.3750 -11.2976
-11.2959 -11.2933 -11.2901 -11.2884 -11.2722 -11.2237  -9.0065  -8.9982
 -6.6872  -6.6865  -6.6863  -6.6794  -6.6788  -6.6775  -1.6475  -1.4714
 -1.3668  -1.2306  -1.1499  -1.0692  -1.0276  -1.0032  -0.9696  -0.9078
 -0.8647  -0.7956  -0.7864  -0.7686  -0.7271  -0.7159  -0.6968  -0.6783
 -0.6774  -0.6700  -0.6076  -0.6053  -0.5968  -0.5912  -0.5866  -0.5625
 -0.5334  -0.5261  -0.5068  -0.4851  -0.4727  -0.4634  -0.4604  -0.4589
 -0.3864  -0.3441  -0.2803

          Ground-State Mulliken Net Atomic Charges

     Atom                 Charge (a.u.)
  ----------------------------------------
      1 C                    -0.025520
      2 S                     0.103307
      3 C                    -0.239140
      4 C                    -0.060324
      5 C                    -0.010419
      6 C                     0.347494
      7 C                    -0.152728
      8 S                     0.044608
      9 C                     0.457479
     10 O                    -0.451518
     11 O                    -0.298156
     12 F                    -0.211770
     13 C                    -0.054614
     14 H                     0.116500
     15 H                     0.084381
     16 H                     0.084073
     17 C                    -0.374821
     18 H                     0.132872
     19 H                     0.164927
     20 H                     0.132461
     21 H                     0.210907
  ----------------------------------------
  Sum of atomic charges =     0.000000

                    Cartesian Multipole Moments
 -----------------------------------------------------------------
    Charge (ESU x 10^10)
                -0.0000
    Dipole Moment (Debye)
         X       2.6467      Y       1.0063      Z       2.9285
       Tot       4.0736
    Quadrupole Moments (Debye-Ang)
        XX     -92.9188     XY       4.1305     YY     -86.9827
        XZ      -5.6766     YZ      -8.3856     ZZ     -96.1086

 Total job time:  56.22s(wall), 1962.52s(cpu)
        *  Thank you very much for using Q-Chem.  Have a nice day.  *
