 Q-Chem 5.4, Q-Chem, Inc., Pleasanton, CA (2021)
 Q-Chem 5.4.0 for Intel X86 EM64T Linux

User input:
--------------------------------------------------------------
$molecule
0 1
C	-0.228904	-0.806326	1.022261
S	0.005996	0.061874	2.532961
C	0.412696	1.583774	1.749861
C	0.006096	0.070974	-0.042439
C	0.364096	1.412774	0.343961
C	-0.009404	0.006374	-1.463839
C	0.317796	1.228174	-2.084639
S	0.637396	2.434074	-0.943439
C	0.388196	1.472774	-3.537739
O	0.149396	0.570274	-4.328039
O	0.723396	2.711374	-3.982139
F	-0.294004	-1.070726	-2.224039
C	0.826096	3.055274	-5.312739
H	1.112596	4.122374	-5.348039
H	-0.135304	2.909774	-5.853339
H	1.593396	2.445874	-5.839639
C	-0.228904	-2.241526	1.022261
H	-1.291004	-2.250526	1.218161
H	-0.374404	-2.925426	0.199161
H	-0.057104	-2.765926	1.950661
H	0.650896	2.472474	2.343761
$end

$rem
JOBTYPE		SP
EXCHANGE	HF
CORRELATION	pRIMP2
BASIS		cc-pvtz
METHOD		rimp2
AUX_BASIS	rimp2-cc-pvtz
SOLVENT_METHOD	PCM
PURECART	11111
SYMMETRY	false
MEM_TOTAL	110000
SCF_CONVERGENCE = 6
THRESH=10
GUI = 2
$end

$solvent
dielectric 4.90
$end
--------------------------------------------------------------

             Standard Nuclear Orientation (Angstroms)
    I     Atom           X                Y                Z
 ----------------------------------------------------------------
    1      C      -0.2289040000    -0.8063260000     1.0222610000
    2      S       0.0059960000     0.0618740000     2.5329610000
    3      C       0.4126960000     1.5837740000     1.7498610000
    4      C       0.0060960000     0.0709740000    -0.0424390000
    5      C       0.3640960000     1.4127740000     0.3439610000
    6      C      -0.0094040000     0.0063740000    -1.4638390000
    7      C       0.3177960000     1.2281740000    -2.0846390000
    8      S       0.6373960000     2.4340740000    -0.9434390000
    9      C       0.3881960000     1.4727740000    -3.5377390000
   10      O       0.1493960000     0.5702740000    -4.3280390000
   11      O       0.7233960000     2.7113740000    -3.9821390000
   12      F      -0.2940040000    -1.0707260000    -2.2240390000
   13      C       0.8260960000     3.0552740000    -5.3127390000
   14      H       1.1125960000     4.1223740000    -5.3480390000
   15      H      -0.1353040000     2.9097740000    -5.8533390000
   16      H       1.5933960000     2.4458740000    -5.8396390000
   17      C      -0.2289040000    -2.2415260000     1.0222610000
   18      H      -1.2910040000    -2.2505260000     1.2181610000
   19      H      -0.3744040000    -2.9254260000     0.1991610000
   20      H      -0.0571040000    -2.7659260000     1.9506610000
   21      H       0.6508960000     2.4724740000     2.3437610000
 ----------------------------------------------------------------

   11   -1389.2498580103      4.39e-07  Convergence criterion met
 Total energy in the final basis set =    -1389.2498580103
        RIMP2         total energy =     -1391.7535061881 a.u.

                    Orbital Energies (a.u.)
 --------------------------------------------------------------

 Alpha MOs
 -- Occupied --
-92.0067 -91.9875 -26.3339 -20.6090 -20.5447 -11.4056 -11.3762 -11.3181
-11.2911 -11.2869 -11.2867 -11.2759 -11.2663 -11.2340  -9.0055  -8.9918
 -6.6863  -6.6857  -6.6852  -6.6731  -6.6724  -6.6711  -1.6469  -1.4684
 -1.3631  -1.2258  -1.1467  -1.0667  -1.0274  -1.0061  -0.9673  -0.9113
 -0.8625  -0.7959  -0.7840  -0.7658  -0.7256  -0.7146  -0.6959  -0.6773
 -0.6760  -0.6668  -0.6095  -0.6026  -0.5920  -0.5871  -0.5854  -0.5584
 -0.5311  -0.5277  -0.5188  -0.4944  -0.4785  -0.4609  -0.4578  -0.4563
 -0.3892  -0.3466  -0.2718

          Ground-State Mulliken Net Atomic Charges

     Atom                 Charge (a.u.)
  ----------------------------------------
      1 C                     0.034602
      2 S                     0.083615
      3 C                    -0.272852
      4 C                    -0.087646
      5 C                    -0.012875
      6 C                     0.388963
      7 C                    -0.171288
      8 S                     0.023464
      9 C                     0.458646
     10 O                    -0.459083
     11 O                    -0.299048
     12 F                    -0.213027
     13 C                    -0.054914
     14 H                     0.115899
     15 H                     0.083481
     16 H                     0.083440
     17 C                    -0.379866
     18 H                     0.145978
     19 H                     0.171883
     20 H                     0.150275
     21 H                     0.210353
  ----------------------------------------
  Sum of atomic charges =     0.000000

                    Cartesian Multipole Moments
 -----------------------------------------------------------------
    Charge (ESU x 10^10)
                -0.0000
    Dipole Moment (Debye)
         X      -0.1771      Y       0.1903      Z       3.9169
       Tot       3.9255
    Quadrupole Moments (Debye-Ang)
        XX     -95.6624     XY       4.3967     YY     -82.5255
        XZ      -3.4781     YZ     -12.3011     ZZ     -96.5209

 Total job time:  55.27s(wall), 1925.84s(cpu)
        *  Thank you very much for using Q-Chem.  Have a nice day.  *
