 Q-Chem 5.4, Q-Chem, Inc., Pleasanton, CA (2021)
 Q-Chem 5.4.0 for Intel X86 EM64T Linux

User input:
--------------------------------------------------------------
$molecule
0 1
C	-0.001953	-0.836989	1.025276
S	0.000247	0.062411	2.535976
C	-0.000753	1.637711	1.752876
C	-0.001953	0.071211	-0.039424
C	-0.003453	1.460011	0.346976
C	-0.000353	0.004811	-1.460824
C	-0.000453	1.269711	-2.081624
S	-0.003753	2.517211	-0.940424
C	0.004247	1.524111	-3.534724
O	0.007247	0.590611	-4.325024
O	0.007447	2.807311	-3.979124
F	0.003547	-1.109289	-2.221024
C	0.017647	3.166011	-5.309724
H	0.018247	4.271011	-5.345024
H	-0.873353	2.776711	-5.850324
H	0.916547	2.776111	-5.836624
C	-0.001953	-2.272189	1.025276
H	0.177247	-2.281189	-0.039724
H	0.821247	-2.956089	1.170076
H	-0.933153	-2.796589	0.869176
H	-0.000753	2.557811	2.346776
$end

$rem
JOBTYPE		SP
EXCHANGE	HF
CORRELATION	pRIMP2
BASIS		cc-pvtz
METHOD		rimp2
AUX_BASIS	rimp2-cc-pvtz
SOLVENT_METHOD	PCM
PURECART	11111
SYMMETRY	false
MEM_TOTAL	110000
SCF_CONVERGENCE = 6
THRESH=10
GUI = 2
$end

$solvent
dielectric 4.90
$end
--------------------------------------------------------------

             Standard Nuclear Orientation (Angstroms)
    I     Atom           X                Y                Z
 ----------------------------------------------------------------
    1      C      -0.0019530000    -0.8369890000     1.0252760000
    2      S       0.0002470000     0.0624110000     2.5359760000
    3      C      -0.0007530000     1.6377110000     1.7528760000
    4      C      -0.0019530000     0.0712110000    -0.0394240000
    5      C      -0.0034530000     1.4600110000     0.3469760000
    6      C      -0.0003530000     0.0048110000    -1.4608240000
    7      C      -0.0004530000     1.2697110000    -2.0816240000
    8      S      -0.0037530000     2.5172110000    -0.9404240000
    9      C       0.0042470000     1.5241110000    -3.5347240000
   10      O       0.0072470000     0.5906110000    -4.3250240000
   11      O       0.0074470000     2.8073110000    -3.9791240000
   12      F       0.0035470000    -1.1092890000    -2.2210240000
   13      C       0.0176470000     3.1660110000    -5.3097240000
   14      H       0.0182470000     4.2710110000    -5.3450240000
   15      H      -0.8733530000     2.7767110000    -5.8503240000
   16      H       0.9165470000     2.7761110000    -5.8366240000
   17      C      -0.0019530000    -2.2721890000     1.0252760000
   18      H       0.1772470000    -2.2811890000    -0.0397240000
   19      H       0.8212470000    -2.9560890000     1.1700760000
   20      H      -0.9331530000    -2.7965890000     0.8691760000
   21      H      -0.0007530000     2.5578110000     2.3467760000
 ----------------------------------------------------------------

   11   -1389.2546168931      4.97e-07  Convergence criterion met
 Total energy in the final basis set =    -1389.2546168931
        RIMP2         total energy =     -1391.7617130424 a.u.

                    Orbital Energies (a.u.)
 --------------------------------------------------------------

 Alpha MOs
 -- Occupied --
-92.0038 -91.9908 -26.3358 -20.6110 -20.5482 -11.4086 -11.3768 -11.3092
-11.2930 -11.2916 -11.2880 -11.2834 -11.2740 -11.2279  -9.0027  -8.9950
 -6.6834  -6.6828  -6.6825  -6.6762  -6.6756  -6.6742  -1.6491  -1.4707
 -1.3658  -1.2280  -1.1451  -1.0680  -1.0270  -1.0064  -0.9687  -0.9117
 -0.8638  -0.7960  -0.7867  -0.7672  -0.7268  -0.7168  -0.6975  -0.6784
 -0.6777  -0.6694  -0.6090  -0.6048  -0.5980  -0.5880  -0.5791  -0.5699
 -0.5446  -0.5248  -0.5046  -0.4814  -0.4714  -0.4634  -0.4605  -0.4532
 -0.3975  -0.3453  -0.2825

          Ground-State Mulliken Net Atomic Charges

     Atom                 Charge (a.u.)
  ----------------------------------------
      1 C                     0.047488
      2 S                     0.081080
      3 C                    -0.252545
      4 C                    -0.102155
      5 C                    -0.012119
      6 C                     0.380037
      7 C                    -0.146340
      8 S                     0.029799
      9 C                     0.458123
     10 O                    -0.454240
     11 O                    -0.298179
     12 F                    -0.214484
     13 C                    -0.055015
     14 H                     0.116474
     15 H                     0.084086
     16 H                     0.083990
     17 C                    -0.368616
     18 H                     0.115979
     19 H                     0.158073
     20 H                     0.138165
     21 H                     0.210400
  ----------------------------------------
  Sum of atomic charges =     0.000000

                    Cartesian Multipole Moments
 -----------------------------------------------------------------
    Charge (ESU x 10^10)
                -0.0000
    Dipole Moment (Debye)
         X       0.0999      Y       1.1143      Z       2.7744
       Tot       2.9915
    Quadrupole Moments (Debye-Ang)
        XX     -95.8699     XY      -0.3310     YY     -82.0438
        XZ       0.1795     YZ     -10.6207     ZZ     -97.6822

 Total job time:  55.31s(wall), 1995.34s(cpu)
        *  Thank you very much for using Q-Chem.  Have a nice day.  *
