 Q-Chem 5.4, Q-Chem, Inc., Pleasanton, CA (2021)
 Q-Chem 5.4.0 for Intel X86 EM64T Linux

User input:
--------------------------------------------------------------
$molecule
0 1
C	-0.766376	-0.392188	1.022261
S	0.013624	0.055612	2.532961
C	1.377424	0.844212	1.749861
C	0.020124	0.061912	-0.042439
C	1.222124	0.757612	0.343961
C	-0.036476	0.027312	-1.463839
C	1.058824	0.659812	-2.084639
S	2.137524	1.286512	-0.943439
C	1.281524	0.783012	-3.537739
O	0.474624	0.313712	-4.328039
O	2.394424	1.421812	-3.982139
F	-0.999376	-0.533088	-2.224039
C	2.710124	1.592412	-5.312739
H	3.667324	2.144312	-5.348039
H	1.927424	2.169312	-5.853339
H	2.821824	0.618912	-5.839639
C	-0.766376	-1.827388	1.022261
H	-1.828476	-1.836388	1.218161
H	-0.911876	-2.511288	0.199161
H	-0.594576	-2.351788	1.950661
H	2.174224	1.304112	2.343761
$end

$rem
JOBTYPE		SP
EXCHANGE	HF
CORRELATION	pRIMP2
BASIS		cc-pvtz
METHOD		rimp2
AUX_BASIS	rimp2-cc-pvtz
SOLVENT_METHOD	PCM
PURECART	11111
SYMMETRY	false
MEM_TOTAL	110000
SCF_CONVERGENCE = 6
THRESH=10
GUI = 2
$end

$solvent
dielectric 4.90
$end
--------------------------------------------------------------

             Standard Nuclear Orientation (Angstroms)
    I     Atom           X                Y                Z
 ----------------------------------------------------------------
    1      C      -0.7663760000    -0.3921880000     1.0222610000
    2      S       0.0136240000     0.0556120000     2.5329610000
    3      C       1.3774240000     0.8442120000     1.7498610000
    4      C       0.0201240000     0.0619120000    -0.0424390000
    5      C       1.2221240000     0.7576120000     0.3439610000
    6      C      -0.0364760000     0.0273120000    -1.4638390000
    7      C       1.0588240000     0.6598120000    -2.0846390000
    8      S       2.1375240000     1.2865120000    -0.9434390000
    9      C       1.2815240000     0.7830120000    -3.5377390000
   10      O       0.4746240000     0.3137120000    -4.3280390000
   11      O       2.3944240000     1.4218120000    -3.9821390000
   12      F      -0.9993760000    -0.5330880000    -2.2240390000
   13      C       2.7101240000     1.5924120000    -5.3127390000
   14      H       3.6673240000     2.1443120000    -5.3480390000
   15      H       1.9274240000     2.1693120000    -5.8533390000
   16      H       2.8218240000     0.6189120000    -5.8396390000
   17      C      -0.7663760000    -1.8273880000     1.0222610000
   18      H      -1.8284760000    -1.8363880000     1.2181610000
   19      H      -0.9118760000    -2.5112880000     0.1991610000
   20      H      -0.5945760000    -2.3517880000     1.9506610000
   21      H       2.1742240000     1.3041120000     2.3437610000
 ----------------------------------------------------------------

   11   -1389.1685916031      9.80e-07  Convergence criterion met
 Total energy in the final basis set =    -1389.1685916031
        RIMP2         total energy =     -1391.6947000852 a.u.

                    Orbital Energies (a.u.)
 --------------------------------------------------------------

 Alpha MOs
 -- Occupied --
-92.0034 -91.9987 -26.3326 -20.6136 -20.5535 -11.4129 -11.3726 -11.3116
-11.3041 -11.2933 -11.2893 -11.2811 -11.2651 -11.2116  -9.0031  -9.0024
 -6.6837  -6.6836  -6.6830  -6.6827  -6.6827  -6.6818  -1.6457  -1.4737
 -1.3696  -1.2335  -1.1527  -1.0676  -1.0310  -1.0007  -0.9712  -0.9047
 -0.8678  -0.7974  -0.7870  -0.7725  -0.7289  -0.7147  -0.6963  -0.6798
 -0.6736  -0.6722  -0.6088  -0.6084  -0.5955  -0.5929  -0.5718  -0.5603
 -0.5326  -0.5212  -0.5126  -0.4936  -0.4829  -0.4629  -0.4628  -0.4385
 -0.3728  -0.3433  -0.2780

          Ground-State Mulliken Net Atomic Charges

     Atom                 Charge (a.u.)
  ----------------------------------------
      1 C                    -0.147691
      2 S                     0.104498
      3 C                    -0.173235
      4 C                     0.009404
      5 C                    -0.034810
      6 C                     0.356488
      7 C                    -0.137045
      8 S                     0.054903
      9 C                     0.456637
     10 O                    -0.444048
     11 O                    -0.296962
     12 F                    -0.211839
     13 C                    -0.054764
     14 H                     0.117011
     15 H                     0.085119
     16 H                     0.084791
     17 C                    -0.402026
     18 H                     0.133078
     19 H                     0.153530
     20 H                     0.131212
     21 H                     0.215749
  ----------------------------------------
  Sum of atomic charges =     0.000000

                    Cartesian Multipole Moments
 -----------------------------------------------------------------
    Charge (ESU x 10^10)
                -0.0000
    Dipole Moment (Debye)
         X       3.6879      Y       0.9852      Z       3.0464
       Tot       4.8838
    Quadrupole Moments (Debye-Ang)
        XX     -88.7517     XY       6.3114     YY     -91.2530
        XZ      -8.5365     YZ      -6.0886     ZZ     -92.9223

 Total job time:  64.75s(wall), 1964.71s(cpu)
        *  Thank you very much for using Q-Chem.  Have a nice day.  *
