 Q-Chem 5.4, Q-Chem, Inc., Pleasanton, CA (2021)
 Q-Chem 5.4.0 for Intel X86 EM64T Linux

User input:
--------------------------------------------------------------
$molecule
0 1
C	-0.230129	-0.806326	1.025038
S	0.004771	0.061874	2.535738
C	0.411471	1.583774	1.752638
C	0.004871	0.070974	-0.039662
C	0.362871	1.412774	0.346738
C	-0.010629	0.006374	-1.461062
C	0.316571	1.228174	-2.081862
S	0.636171	2.434074	-0.940662
C	0.386971	1.472774	-3.534962
O	0.148171	0.570274	-4.325262
O	0.722171	2.711374	-3.979362
F	-0.295229	-1.070726	-2.221262
C	0.824871	3.055274	-5.309962
H	1.111371	4.122374	-5.345262
H	-0.136529	2.909774	-5.850562
H	1.592171	2.445874	-5.836862
C	-0.230129	-2.241526	1.025038
H	-0.607429	-2.250526	0.013138
H	0.555171	-2.925426	0.738838
H	-1.114529	-2.765926	1.355438
H	0.649671	2.472474	2.346538
$end

$rem
JOBTYPE		SP
EXCHANGE	HF
CORRELATION	pRIMP2
BASIS		cc-pvtz
METHOD		rimp2
AUX_BASIS	rimp2-cc-pvtz
SOLVENT_METHOD	PCM
PURECART	11111
SYMMETRY	false
MEM_TOTAL	110000
SCF_CONVERGENCE = 6
THRESH=10
GUI = 2
$end

$solvent
dielectric 4.90
$end
--------------------------------------------------------------

             Standard Nuclear Orientation (Angstroms)
    I     Atom           X                Y                Z
 ----------------------------------------------------------------
    1      C      -0.2301290000    -0.8063260000     1.0250380000
    2      S       0.0047710000     0.0618740000     2.5357380000
    3      C       0.4114710000     1.5837740000     1.7526380000
    4      C       0.0048710000     0.0709740000    -0.0396620000
    5      C       0.3628710000     1.4127740000     0.3467380000
    6      C      -0.0106290000     0.0063740000    -1.4610620000
    7      C       0.3165710000     1.2281740000    -2.0818620000
    8      S       0.6361710000     2.4340740000    -0.9406620000
    9      C       0.3869710000     1.4727740000    -3.5349620000
   10      O       0.1481710000     0.5702740000    -4.3252620000
   11      O       0.7221710000     2.7113740000    -3.9793620000
   12      F      -0.2952290000    -1.0707260000    -2.2212620000
   13      C       0.8248710000     3.0552740000    -5.3099620000
   14      H       1.1113710000     4.1223740000    -5.3452620000
   15      H      -0.1365290000     2.9097740000    -5.8505620000
   16      H       1.5921710000     2.4458740000    -5.8368620000
   17      C      -0.2301290000    -2.2415260000     1.0250380000
   18      H      -0.6074290000    -2.2505260000     0.0131380000
   19      H       0.5551710000    -2.9254260000     0.7388380000
   20      H      -1.1145290000    -2.7659260000     1.3554380000
   21      H       0.6496710000     2.4724740000     2.3465380000
 ----------------------------------------------------------------

   11   -1389.2504122827      5.13e-07  Convergence criterion met
 Total energy in the final basis set =    -1389.2504122827
        RIMP2         total energy =     -1391.7588158931 a.u.

                    Orbital Energies (a.u.)
 --------------------------------------------------------------

 Alpha MOs
 -- Occupied --
-92.0037 -91.9912 -26.3353 -20.6111 -20.5484 -11.4088 -11.3765 -11.3064
-11.2934 -11.2918 -11.2880 -11.2850 -11.2741 -11.2270  -9.0027  -8.9953
 -6.6834  -6.6828  -6.6824  -6.6766  -6.6760  -6.6746  -1.6486  -1.4707
 -1.3659  -1.2282  -1.1453  -1.0676  -1.0272  -1.0060  -0.9687  -0.9114
 -0.8639  -0.7959  -0.7865  -0.7673  -0.7268  -0.7164  -0.6973  -0.6783
 -0.6777  -0.6694  -0.6081  -0.6049  -0.5975  -0.5886  -0.5771  -0.5690
 -0.5442  -0.5248  -0.5055  -0.4815  -0.4751  -0.4618  -0.4604  -0.4519
 -0.3962  -0.3452  -0.2822

          Ground-State Mulliken Net Atomic Charges

     Atom                 Charge (a.u.)
  ----------------------------------------
      1 C                     0.031119
      2 S                     0.084124
      3 C                    -0.248931
      4 C                    -0.100860
      5 C                    -0.011108
      6 C                     0.377754
      7 C                    -0.152666
      8 S                     0.032140
      9 C                     0.458224
     10 O                    -0.453672
     11 O                    -0.298075
     12 F                    -0.213628
     13 C                    -0.054889
     14 H                     0.116459
     15 H                     0.084124
     16 H                     0.083994
     17 C                    -0.359370
     18 H                     0.116048
     19 H                     0.154305
     20 H                     0.144456
     21 H                     0.210452
  ----------------------------------------
  Sum of atomic charges =     0.000000

                    Cartesian Multipole Moments
 -----------------------------------------------------------------
    Charge (ESU x 10^10)
                -0.0000
    Dipole Moment (Debye)
         X       0.5254      Y       1.1502      Z       2.7871
       Tot       3.0605
    Quadrupole Moments (Debye-Ang)
        XX     -95.1891     XY       3.1512     YY     -82.8436
        XZ      -3.1047     YZ     -10.1948     ZZ     -97.4497

 Total job time:  54.00s(wall), 1931.72s(cpu)
        *  Thank you very much for using Q-Chem.  Have a nice day.  *
