 Q-Chem 5.4, Q-Chem, Inc., Pleasanton, CA (2021)
 Q-Chem 5.4.0 for Intel X86 EM64T Linux

User input:
--------------------------------------------------------------
$molecule
0 1
C	-0.303943	-0.782911	1.020760
S	0.005757	0.061489	2.531460
C	0.543557	1.542189	1.748360
C	0.006657	0.070589	-0.043940
C	0.480257	1.376089	0.342460
C	-0.014443	0.007589	-1.465340
C	0.417957	1.196189	-2.086140
S	0.841557	2.369589	-0.944940
C	0.509457	1.433689	-3.539240
O	0.192957	0.555489	-4.329540
O	0.951357	2.638389	-3.983640
F	-0.391843	-1.040711	-2.225540
C	1.083557	2.971989	-5.314240
H	1.462057	4.010189	-5.349540
H	0.113157	2.910889	-5.854840
H	1.794857	2.298089	-5.841140
C	-0.303943	-2.218111	1.020760
H	-0.836543	-2.227111	1.960260
H	-1.028043	-2.902011	0.603160
H	0.517657	-2.742511	1.485860
H	0.858257	2.406689	2.342260
$end

$rem
JOBTYPE		SP
EXCHANGE	HF
CORRELATION	pRIMP2
BASIS		cc-pvtz
METHOD		rimp2
AUX_BASIS	rimp2-cc-pvtz
SOLVENT_METHOD	PCM
PURECART	11111
SYMMETRY	false
MEM_TOTAL	110000
SCF_CONVERGENCE = 6
THRESH=10
GUI = 2
$end

$solvent
dielectric 4.90
$end
--------------------------------------------------------------

             Standard Nuclear Orientation (Angstroms)
    I     Atom           X                Y                Z
 ----------------------------------------------------------------
    1      C      -0.3039430000    -0.7829110000     1.0207600000
    2      S       0.0057570000     0.0614890000     2.5314600000
    3      C       0.5435570000     1.5421890000     1.7483600000
    4      C       0.0066570000     0.0705890000    -0.0439400000
    5      C       0.4802570000     1.3760890000     0.3424600000
    6      C      -0.0144430000     0.0075890000    -1.4653400000
    7      C       0.4179570000     1.1961890000    -2.0861400000
    8      S       0.8415570000     2.3695890000    -0.9449400000
    9      C       0.5094570000     1.4336890000    -3.5392400000
   10      O       0.1929570000     0.5554890000    -4.3295400000
   11      O       0.9513570000     2.6383890000    -3.9836400000
   12      F      -0.3918430000    -1.0407110000    -2.2255400000
   13      C       1.0835570000     2.9719890000    -5.3142400000
   14      H       1.4620570000     4.0101890000    -5.3495400000
   15      H       0.1131570000     2.9108890000    -5.8548400000
   16      H       1.7948570000     2.2980890000    -5.8411400000
   17      C      -0.3039430000    -2.2181110000     1.0207600000
   18      H      -0.8365430000    -2.2271110000     1.9602600000
   19      H      -1.0280430000    -2.9020110000     0.6031600000
   20      H       0.5176570000    -2.7425110000     1.4858600000
   21      H       0.8582570000     2.4066890000     2.3422600000
 ----------------------------------------------------------------

   11   -1389.2454509879      5.03e-07  Convergence criterion met
 Total energy in the final basis set =    -1389.2454509879
        RIMP2         total energy =     -1391.7532529432 a.u.

                    Orbital Energies (a.u.)
 --------------------------------------------------------------

 Alpha MOs
 -- Occupied --
-92.0091 -91.9900 -26.3329 -20.6104 -20.5474 -11.4078 -11.3749 -11.3056
-11.2918 -11.2915 -11.2876 -11.2853 -11.2690 -11.2279  -9.0078  -8.9942
 -6.6885  -6.6880  -6.6875  -6.6755  -6.6748  -6.6735  -1.6458  -1.4700
 -1.3650  -1.2270  -1.1472  -1.0651  -1.0295  -1.0050  -0.9684  -0.9097
 -0.8643  -0.7965  -0.7841  -0.7677  -0.7262  -0.7138  -0.6952  -0.6770
 -0.6758  -0.6680  -0.6096  -0.6042  -0.5955  -0.5874  -0.5795  -0.5640
 -0.5406  -0.5251  -0.5063  -0.4806  -0.4785  -0.4628  -0.4596  -0.4580
 -0.3931  -0.3463  -0.2804

          Ground-State Mulliken Net Atomic Charges

     Atom                 Charge (a.u.)
  ----------------------------------------
      1 C                     0.008037
      2 S                     0.086880
      3 C                    -0.249586
      4 C                    -0.070093
      5 C                    -0.010298
      6 C                     0.368766
      7 C                    -0.159690
      8 S                     0.030031
      9 C                     0.457522
     10 O                    -0.454021
     11 O                    -0.298350
     12 F                    -0.211766
     13 C                    -0.054825
     14 H                     0.116169
     15 H                     0.084017
     16 H                     0.083868
     17 C                    -0.360962
     18 H                     0.116620
     19 H                     0.162968
     20 H                     0.142813
     21 H                     0.211900
  ----------------------------------------
  Sum of atomic charges =     0.000000

                    Cartesian Multipole Moments
 -----------------------------------------------------------------
    Charge (ESU x 10^10)
                -0.0000
    Dipole Moment (Debye)
         X       0.6962      Y       1.0538      Z       4.0786
       Tot       4.2697
    Quadrupole Moments (Debye-Ang)
        XX     -94.7920     XY       4.2060     YY     -83.5228
        XZ      -3.7370     YZ     -12.4900     ZZ     -94.9547

 Total job time:  54.18s(wall), 1951.95s(cpu)
        *  Thank you very much for using Q-Chem.  Have a nice day.  *
