 Q-Chem 5.4, Q-Chem, Inc., Pleasanton, CA (2021)
 Q-Chem 5.4.0 for Intel X86 EM64T Linux

User input:
--------------------------------------------------------------
$molecule
0 1
C	-0.229054	-0.806326	1.021878
S	0.005846	0.061874	2.532578
C	0.412546	1.583774	1.749478
C	0.005946	0.070974	-0.042822
C	0.363946	1.412774	0.343578
C	-0.009554	0.006374	-1.464222
C	0.317646	1.228174	-2.085022
S	0.637246	2.434074	-0.943822
C	0.388046	1.472774	-3.538122
O	0.149246	0.570274	-4.328422
O	0.723246	2.711374	-3.982522
F	-0.294154	-1.070726	-2.224422
C	0.825946	3.055274	-5.313122
H	1.112446	4.122374	-5.348422
H	-0.135454	2.909774	-5.853722
H	1.593246	2.445874	-5.840022
C	-0.229054	-2.241526	1.021878
H	-1.240954	-2.250526	1.399178
H	-0.515254	-2.925426	0.236578
H	0.101346	-2.765926	1.906278
H	0.650746	2.472474	2.343378
$end

$rem
JOBTYPE		SP
EXCHANGE	HF
CORRELATION	pRIMP2
BASIS		cc-pvtz
METHOD		rimp2
AUX_BASIS	rimp2-cc-pvtz
SOLVENT_METHOD	PCM
PURECART	11111
SYMMETRY	false
MEM_TOTAL	110000
SCF_CONVERGENCE = 6
THRESH=10
GUI = 2
$end

$solvent
dielectric 4.90
$end
--------------------------------------------------------------

             Standard Nuclear Orientation (Angstroms)
    I     Atom           X                Y                Z
 ----------------------------------------------------------------
    1      C      -0.2290540000    -0.8063260000     1.0218780000
    2      S       0.0058460000     0.0618740000     2.5325780000
    3      C       0.4125460000     1.5837740000     1.7494780000
    4      C       0.0059460000     0.0709740000    -0.0428220000
    5      C       0.3639460000     1.4127740000     0.3435780000
    6      C      -0.0095540000     0.0063740000    -1.4642220000
    7      C       0.3176460000     1.2281740000    -2.0850220000
    8      S       0.6372460000     2.4340740000    -0.9438220000
    9      C       0.3880460000     1.4727740000    -3.5381220000
   10      O       0.1492460000     0.5702740000    -4.3284220000
   11      O       0.7232460000     2.7113740000    -3.9825220000
   12      F      -0.2941540000    -1.0707260000    -2.2244220000
   13      C       0.8259460000     3.0552740000    -5.3131220000
   14      H       1.1124460000     4.1223740000    -5.3484220000
   15      H      -0.1354540000     2.9097740000    -5.8537220000
   16      H       1.5932460000     2.4458740000    -5.8400220000
   17      C      -0.2290540000    -2.2415260000     1.0218780000
   18      H      -1.2409540000    -2.2505260000     1.3991780000
   19      H      -0.5152540000    -2.9254260000     0.2365780000
   20      H       0.1013460000    -2.7659260000     1.9062780000
   21      H       0.6507460000     2.4724740000     2.3433780000
 ----------------------------------------------------------------

   11   -1389.2496099659      4.43e-07  Convergence criterion met
 Total energy in the final basis set =    -1389.2496099659
        RIMP2         total energy =     -1391.7534997719 a.u.

                    Orbital Energies (a.u.)
 --------------------------------------------------------------

 Alpha MOs
 -- Occupied --
-92.0068 -91.9877 -26.3337 -20.6091 -20.5450 -11.4059 -11.3760 -11.3168
-11.2910 -11.2873 -11.2870 -11.2771 -11.2666 -11.2331  -9.0056  -8.9919
 -6.6865  -6.6859  -6.6853  -6.6732  -6.6725  -6.6712  -1.6466  -1.4686
 -1.3633  -1.2259  -1.1467  -1.0663  -1.0278  -1.0059  -0.9674  -0.9111
 -0.8626  -0.7959  -0.7840  -0.7660  -0.7256  -0.7143  -0.6956  -0.6770
 -0.6761  -0.6669  -0.6096  -0.6028  -0.5928  -0.5862  -0.5853  -0.5590
 -0.5329  -0.5269  -0.5166  -0.4932  -0.4786  -0.4610  -0.4579  -0.4565
 -0.3898  -0.3466  -0.2727

          Ground-State Mulliken Net Atomic Charges

     Atom                 Charge (a.u.)
  ----------------------------------------
      1 C                     0.022740
      2 S                     0.080051
      3 C                    -0.266529
      4 C                    -0.074186
      5 C                    -0.016606
      6 C                     0.388571
      7 C                    -0.170457
      8 S                     0.023060
      9 C                     0.458587
     10 O                    -0.458476
     11 O                    -0.298935
     12 F                    -0.212823
     13 C                    -0.054913
     14 H                     0.115928
     15 H                     0.083544
     16 H                     0.083500
     17 C                    -0.378147
     18 H                     0.142698
     19 H                     0.170623
     20 H                     0.150984
     21 H                     0.210784
  ----------------------------------------
  Sum of atomic charges =     0.000000

                    Cartesian Multipole Moments
 -----------------------------------------------------------------
    Charge (ESU x 10^10)
                -0.0000
    Dipole Moment (Debye)
         X      -0.1086      Y       0.2928      Z       4.0027
       Tot       4.0148
    Quadrupole Moments (Debye-Ang)
        XX     -95.6164     XY       4.3074     YY     -82.5846
        XZ      -3.3373     YZ     -12.5200     ZZ     -96.1984

 Total job time:  55.44s(wall), 2068.76s(cpu)
        *  Thank you very much for using Q-Chem.  Have a nice day.  *
