 Q-Chem 5.4, Q-Chem, Inc., Pleasanton, CA (2021)
 Q-Chem 5.4.0 for Intel X86 EM64T Linux

User input:
--------------------------------------------------------------
$molecule
0 1
C	-0.374161	-0.753180	1.021878
S	0.007939	0.061020	2.532578
C	0.672739	1.489220	1.749478
C	0.009639	0.069920	-0.042822
C	0.595239	1.329320	0.343578
C	-0.016961	0.009120	-1.464222
C	0.517539	1.155520	-2.085022
S	1.041739	2.287520	-0.943822
C	0.629339	1.384120	-3.538122
O	0.237439	0.536820	-4.328422
O	1.174539	2.545720	-3.982522
F	-0.484261	-1.002280	-2.224422
C	1.335339	2.866520	-5.313122
H	1.802839	3.867720	-5.348422
H	0.363239	2.890220	-5.853722
H	1.985239	2.133220	-5.840022
C	-0.374161	-2.188380	1.021878
H	-1.386061	-2.197380	1.399178
H	-0.660361	-2.872280	0.236578
H	-0.043761	-2.712780	1.906278
H	1.061639	2.323020	2.343378
$end

$rem
JOBTYPE		SP
EXCHANGE	HF
CORRELATION	pRIMP2
BASIS		cc-pvtz
METHOD		rimp2
AUX_BASIS	rimp2-cc-pvtz
SOLVENT_METHOD	PCM
PURECART	11111
SYMMETRY	false
MEM_TOTAL	110000
SCF_CONVERGENCE = 6
THRESH=10
GUI = 2
$end

$solvent
dielectric 4.90
$end
--------------------------------------------------------------

             Standard Nuclear Orientation (Angstroms)
    I     Atom           X                Y                Z
 ----------------------------------------------------------------
    1      C      -0.3741610000    -0.7531800000     1.0218780000
    2      S       0.0079390000     0.0610200000     2.5325780000
    3      C       0.6727390000     1.4892200000     1.7494780000
    4      C       0.0096390000     0.0699200000    -0.0428220000
    5      C       0.5952390000     1.3293200000     0.3435780000
    6      C      -0.0169610000     0.0091200000    -1.4642220000
    7      C       0.5175390000     1.1555200000    -2.0850220000
    8      S       1.0417390000     2.2875200000    -0.9438220000
    9      C       0.6293390000     1.3841200000    -3.5381220000
   10      O       0.2374390000     0.5368200000    -4.3284220000
   11      O       1.1745390000     2.5457200000    -3.9825220000
   12      F      -0.4842610000    -1.0022800000    -2.2244220000
   13      C       1.3353390000     2.8665200000    -5.3131220000
   14      H       1.8028390000     3.8677200000    -5.3484220000
   15      H       0.3632390000     2.8902200000    -5.8537220000
   16      H       1.9852390000     2.1332200000    -5.8400220000
   17      C      -0.3741610000    -2.1883800000     1.0218780000
   18      H      -1.3860610000    -2.1973800000     1.3991780000
   19      H      -0.6603610000    -2.8722800000     0.2365780000
   20      H      -0.0437610000    -2.7127800000     1.9062780000
   21      H       1.0616390000     2.3230200000     2.3433780000
 ----------------------------------------------------------------

   11   -1389.2394693143      4.84e-07  Convergence criterion met
 Total energy in the final basis set =    -1389.2394693143
        RIMP2         total energy =     -1391.7468919881 a.u.

                    Orbital Energies (a.u.)
 --------------------------------------------------------------

 Alpha MOs
 -- Occupied --
-92.0066 -91.9887 -26.3335 -20.6096 -20.5459 -11.4066 -11.3755 -11.3114
-11.2912 -11.2890 -11.2872 -11.2807 -11.2679 -11.2300  -9.0055  -8.9929
 -6.6863  -6.6857  -6.6852  -6.6742  -6.6735  -6.6722  -1.6464  -1.4691
 -1.3640  -1.2265  -1.1471  -1.0659  -1.0280  -1.0053  -0.9677  -0.9105
 -0.8632  -0.7960  -0.7842  -0.7666  -0.7258  -0.7143  -0.6951  -0.6765
 -0.6764  -0.6674  -0.6091  -0.6033  -0.5919  -0.5863  -0.5862  -0.5589
 -0.5311  -0.5263  -0.5158  -0.4932  -0.4793  -0.4604  -0.4572  -0.4566
 -0.3882  -0.3463  -0.2732

          Ground-State Mulliken Net Atomic Charges

     Atom                 Charge (a.u.)
  ----------------------------------------
      1 C                     0.003474
      2 S                     0.084075
      3 C                    -0.257531
      4 C                    -0.066462
      5 C                    -0.015246
      6 C                     0.377810
      7 C                    -0.166902
      8 S                     0.026952
      9 C                     0.457460
     10 O                    -0.456825
     11 O                    -0.298762
     12 F                    -0.211893
     13 C                    -0.054787
     14 H                     0.116020
     15 H                     0.083661
     16 H                     0.083638
     17 C                    -0.376735
     18 H                     0.140574
     19 H                     0.168167
     20 H                     0.152155
     21 H                     0.211156
  ----------------------------------------
  Sum of atomic charges =     0.000000

                    Cartesian Multipole Moments
 -----------------------------------------------------------------
    Charge (ESU x 10^10)
                -0.0000
    Dipole Moment (Debye)
         X       0.4050      Y       0.4677      Z       3.9140
       Tot       3.9626
    Quadrupole Moments (Debye-Ang)
        XX     -94.4391     XY       5.5868     YY     -83.9491
        XZ      -5.0103     YZ     -11.6398     ZZ     -95.8527

 Total job time:  53.05s(wall), 1920.70s(cpu)
        *  Thank you very much for using Q-Chem.  Have a nice day.  *
