 Q-Chem 5.4, Q-Chem, Inc., Pleasanton, CA (2021)
 Q-Chem 5.4.0 for Intel X86 EM64T Linux

User input:
--------------------------------------------------------------
$molecule
0 1
C	-0.229267	-0.806326	1.021526
S	0.005633	0.061874	2.532226
C	0.412333	1.583774	1.749126
C	0.005733	0.070974	-0.043174
C	0.363733	1.412774	0.343226
C	-0.009767	0.006374	-1.464574
C	0.317433	1.228174	-2.085374
S	0.637033	2.434074	-0.944174
C	0.387833	1.472774	-3.538474
O	0.149033	0.570274	-4.328774
O	0.723033	2.711374	-3.982874
F	-0.294367	-1.070726	-2.224774
C	0.825733	3.055274	-5.313474
H	1.112233	4.122374	-5.348774
H	-0.135667	2.909774	-5.854074
H	1.593033	2.445874	-5.840374
C	-0.229267	-2.241526	1.021526
H	-1.160267	-2.250526	1.568826
H	-0.647467	-2.925426	0.297826
H	0.249733	-2.765926	1.835126
H	0.650533	2.472474	2.343026
$end

$rem
JOBTYPE		SP
EXCHANGE	HF
CORRELATION	pRIMP2
BASIS		cc-pvtz
METHOD		rimp2
AUX_BASIS	rimp2-cc-pvtz
SOLVENT_METHOD	PCM
PURECART	11111
SYMMETRY	false
MEM_TOTAL	110000
SCF_CONVERGENCE = 6
THRESH=10
GUI = 2
$end

$solvent
dielectric 4.90
$end
--------------------------------------------------------------

             Standard Nuclear Orientation (Angstroms)
    I     Atom           X                Y                Z
 ----------------------------------------------------------------
    1      C      -0.2292670000    -0.8063260000     1.0215260000
    2      S       0.0056330000     0.0618740000     2.5322260000
    3      C       0.4123330000     1.5837740000     1.7491260000
    4      C       0.0057330000     0.0709740000    -0.0431740000
    5      C       0.3637330000     1.4127740000     0.3432260000
    6      C      -0.0097670000     0.0063740000    -1.4645740000
    7      C       0.3174330000     1.2281740000    -2.0853740000
    8      S       0.6370330000     2.4340740000    -0.9441740000
    9      C       0.3878330000     1.4727740000    -3.5384740000
   10      O       0.1490330000     0.5702740000    -4.3287740000
   11      O       0.7230330000     2.7113740000    -3.9828740000
   12      F      -0.2943670000    -1.0707260000    -2.2247740000
   13      C       0.8257330000     3.0552740000    -5.3134740000
   14      H       1.1122330000     4.1223740000    -5.3487740000
   15      H      -0.1356670000     2.9097740000    -5.8540740000
   16      H       1.5930330000     2.4458740000    -5.8403740000
   17      C      -0.2292670000    -2.2415260000     1.0215260000
   18      H      -1.1602670000    -2.2505260000     1.5688260000
   19      H      -0.6474670000    -2.9254260000     0.2978260000
   20      H       0.2497330000    -2.7659260000     1.8351260000
   21      H       0.6505330000     2.4724740000     2.3430260000
 ----------------------------------------------------------------

   11   -1389.2493967041      4.51e-07  Convergence criterion met
 Total energy in the final basis set =    -1389.2493967041
        RIMP2         total energy =     -1391.7537965253 a.u.

                    Orbital Energies (a.u.)
 --------------------------------------------------------------

 Alpha MOs
 -- Occupied --
-92.0071 -91.9880 -26.3334 -20.6094 -20.5455 -11.4062 -11.3758 -11.3148
-11.2910 -11.2881 -11.2871 -11.2787 -11.2671 -11.2320  -9.0059  -8.9922
 -6.6868  -6.6862  -6.6857  -6.6735  -6.6729  -6.6715  -1.6464  -1.4688
 -1.3637  -1.2260  -1.1467  -1.0660  -1.0282  -1.0058  -0.9676  -0.9108
 -0.8629  -0.7960  -0.7839  -0.7663  -0.7257  -0.7141  -0.6954  -0.6768
 -0.6763  -0.6671  -0.6098  -0.6030  -0.5936  -0.5862  -0.5839  -0.5601
 -0.5357  -0.5258  -0.5134  -0.4913  -0.4789  -0.4613  -0.4582  -0.4567
 -0.3905  -0.3466  -0.2741

          Ground-State Mulliken Net Atomic Charges

     Atom                 Charge (a.u.)
  ----------------------------------------
      1 C                     0.011674
      2 S                     0.078676
      3 C                    -0.260511
      4 C                    -0.063305
      5 C                    -0.018164
      6 C                     0.385548
      7 C                    -0.168572
      8 S                     0.023393
      9 C                     0.458590
     10 O                    -0.457603
     11 O                    -0.298789
     12 F                    -0.212590
     13 C                    -0.054912
     14 H                     0.115984
     15 H                     0.083635
     16 H                     0.083586
     17 C                    -0.374888
     18 H                     0.137642
     19 H                     0.169208
     20 H                     0.150350
     21 H                     0.211047
  ----------------------------------------
  Sum of atomic charges =     0.000000

                    Cartesian Multipole Moments
 -----------------------------------------------------------------
    Charge (ESU x 10^10)
                -0.0000
    Dipole Moment (Debye)
         X      -0.0031      Y       0.4487      Z       4.0597
       Tot       4.0844
    Quadrupole Moments (Debye-Ang)
        XX     -95.5443     XY       4.1616     YY     -82.6678
        XZ      -3.1881     YZ     -12.6816     ZZ     -95.8682

 Total job time:  100.24s(wall), 1938.85s(cpu)
        *  Thank you very much for using Q-Chem.  Have a nice day.  *
