 Q-Chem 5.4, Q-Chem, Inc., Pleasanton, CA (2021)
 Q-Chem 5.4.0 for Intel X86 EM64T Linux

User input:
--------------------------------------------------------------
$molecule
0 1
C	-0.682380	-0.518946	1.023963
S	0.008020	0.057454	2.534663
C	1.214120	1.070954	1.751563
C	0.013320	0.064854	-0.040737
C	1.076220	0.958754	0.345663
C	-0.036480	0.020954	-1.462137
C	0.932420	0.834054	-2.082937
S	1.885920	1.638454	-0.941737
C	1.130320	0.994054	-3.536037
O	0.417120	0.391754	-4.326337
O	2.115420	1.816354	-3.980437
F	-0.887380	-0.698246	-2.222337
C	2.396720	2.039154	-5.311037
H	3.243520	2.748954	-5.346337
H	1.525720	2.471454	-5.851637
H	2.675720	1.099854	-5.837937
C	-0.682380	-1.954146	1.023963
H	0.329520	-1.963146	0.646663
H	-0.396180	-2.638046	1.809263
H	-1.012780	-2.478546	0.139563
H	1.918920	1.662254	2.345463
$end

$rem
JOBTYPE		SP
EXCHANGE	HF
CORRELATION	pRIMP2
BASIS		cc-pvtz
METHOD		rimp2
AUX_BASIS	rimp2-cc-pvtz
SOLVENT_METHOD	PCM
PURECART	11111
SYMMETRY	false
MEM_TOTAL	110000
SCF_CONVERGENCE = 6
THRESH=10
GUI = 2
$end

$solvent
dielectric 4.90
$end
--------------------------------------------------------------

             Standard Nuclear Orientation (Angstroms)
    I     Atom           X                Y                Z
 ----------------------------------------------------------------
    1      C      -0.6823800000    -0.5189460000     1.0239630000
    2      S       0.0080200000     0.0574540000     2.5346630000
    3      C       1.2141200000     1.0709540000     1.7515630000
    4      C       0.0133200000     0.0648540000    -0.0407370000
    5      C       1.0762200000     0.9587540000     0.3456630000
    6      C      -0.0364800000     0.0209540000    -1.4621370000
    7      C       0.9324200000     0.8340540000    -2.0829370000
    8      S       1.8859200000     1.6384540000    -0.9417370000
    9      C       1.1303200000     0.9940540000    -3.5360370000
   10      O       0.4171200000     0.3917540000    -4.3263370000
   11      O       2.1154200000     1.8163540000    -3.9804370000
   12      F      -0.8873800000    -0.6982460000    -2.2223370000
   13      C       2.3967200000     2.0391540000    -5.3110370000
   14      H       3.2435200000     2.7489540000    -5.3463370000
   15      H       1.5257200000     2.4714540000    -5.8516370000
   16      H       2.6757200000     1.0998540000    -5.8379370000
   17      C      -0.6823800000    -1.9541460000     1.0239630000
   18      H       0.3295200000    -1.9631460000     0.6466630000
   19      H      -0.3961800000    -2.6380460000     1.8092630000
   20      H      -1.0127800000    -2.4785460000     0.1395630000
   21      H       1.9189200000     1.6622540000     2.3454630000
 ----------------------------------------------------------------

   11   -1389.2031515001      6.47e-07  Convergence criterion met
 Total energy in the final basis set =    -1389.2031515001
        RIMP2         total energy =     -1391.7238078452 a.u.

                    Orbital Energies (a.u.)
 --------------------------------------------------------------

 Alpha MOs
 -- Occupied --
-92.0085 -91.9952 -26.3338 -20.6115 -20.5491 -11.4094 -11.3750 -11.2963
-11.2955 -11.2955 -11.2944 -11.2883 -11.2718 -11.2267  -9.0074  -8.9991
 -6.6881  -6.6874  -6.6871  -6.6803  -6.6797  -6.6784  -1.6469  -1.4712
 -1.3665  -1.2327  -1.1542  -1.0701  -1.0284  -1.0023  -0.9701  -0.9059
 -0.8652  -0.7963  -0.7863  -0.7698  -0.7277  -0.7153  -0.6966  -0.6782
 -0.6770  -0.6703  -0.6088  -0.6056  -0.6020  -0.5911  -0.5816  -0.5613
 -0.5283  -0.5247  -0.5105  -0.4951  -0.4813  -0.4616  -0.4601  -0.4546
 -0.3825  -0.3461  -0.2763

          Ground-State Mulliken Net Atomic Charges

     Atom                 Charge (a.u.)
  ----------------------------------------
      1 C                    -0.053373
      2 S                     0.111040
      3 C                    -0.232633
      4 C                    -0.052415
      5 C                    -0.016080
      6 C                     0.364486
      7 C                    -0.156996
      8 S                     0.047805
      9 C                     0.458061
     10 O                    -0.451900
     11 O                    -0.298460
     12 F                    -0.211233
     13 C                    -0.054625
     14 H                     0.116421
     15 H                     0.084340
     16 H                     0.084056
     17 C                    -0.372464
     18 H                     0.130348
     19 H                     0.161360
     20 H                     0.129900
     21 H                     0.212362
  ----------------------------------------
  Sum of atomic charges =     0.000000

                    Cartesian Multipole Moments
 -----------------------------------------------------------------
    Charge (ESU x 10^10)
                -0.0000
    Dipole Moment (Debye)
         X       3.3322      Y       0.6657      Z       3.2723
       Tot       4.7175
    Quadrupole Moments (Debye-Ang)
        XX     -92.0295     XY       4.3454     YY     -88.8018
        XZ      -6.8447     YZ      -7.5962     ZZ     -95.2228

 Total job time:  86.35s(wall), 2163.30s(cpu)
        *  Thank you very much for using Q-Chem.  Have a nice day.  *
