 Q-Chem 5.4, Q-Chem, Inc., Pleasanton, CA (2021)
 Q-Chem 5.4.0 for Intel X86 EM64T Linux

User input:
--------------------------------------------------------------
$molecule
0 1
C	-0.678867	-0.518946	1.024825
S	0.011533	0.057454	2.535525
C	1.217633	1.070954	1.752425
C	0.016833	0.064854	-0.039875
C	1.079733	0.958754	0.346525
C	-0.032967	0.020954	-1.461275
C	0.935933	0.834054	-2.082075
S	1.889433	1.638454	-0.940875
C	1.133833	0.994054	-3.535175
O	0.420633	0.391754	-4.325475
O	2.118933	1.816354	-3.979575
F	-0.883867	-0.698246	-2.221475
C	2.400233	2.039154	-5.310175
H	3.247033	2.748954	-5.345475
H	1.529233	2.471454	-5.850775
H	2.679233	1.099854	-5.837075
C	-0.678867	-1.954146	1.024825
H	-1.226167	-1.963146	0.093825
H	0.044833	-2.638046	0.606625
H	-1.492467	-2.478546	1.503825
H	1.922433	1.662254	2.346325
$end

$rem
JOBTYPE		SP
EXCHANGE	HF
CORRELATION	pRIMP2
BASIS		cc-pvtz
METHOD		rimp2
AUX_BASIS	rimp2-cc-pvtz
SOLVENT_METHOD	PCM
PURECART	11111
SYMMETRY	false
MEM_TOTAL	110000
SCF_CONVERGENCE = 6
THRESH=10
GUI = 2
$end

$solvent
dielectric 4.90
$end
--------------------------------------------------------------

             Standard Nuclear Orientation (Angstroms)
    I     Atom           X                Y                Z
 ----------------------------------------------------------------
    1      C      -0.6788670000    -0.5189460000     1.0248250000
    2      S       0.0115330000     0.0574540000     2.5355250000
    3      C       1.2176330000     1.0709540000     1.7524250000
    4      C       0.0168330000     0.0648540000    -0.0398750000
    5      C       1.0797330000     0.9587540000     0.3465250000
    6      C      -0.0329670000     0.0209540000    -1.4612750000
    7      C       0.9359330000     0.8340540000    -2.0820750000
    8      S       1.8894330000     1.6384540000    -0.9408750000
    9      C       1.1338330000     0.9940540000    -3.5351750000
   10      O       0.4206330000     0.3917540000    -4.3254750000
   11      O       2.1189330000     1.8163540000    -3.9795750000
   12      F      -0.8838670000    -0.6982460000    -2.2214750000
   13      C       2.4002330000     2.0391540000    -5.3101750000
   14      H       3.2470330000     2.7489540000    -5.3454750000
   15      H       1.5292330000     2.4714540000    -5.8507750000
   16      H       2.6792330000     1.0998540000    -5.8370750000
   17      C      -0.6788670000    -1.9541460000     1.0248250000
   18      H      -1.2261670000    -1.9631460000     0.0938250000
   19      H       0.0448330000    -2.6380460000     0.6066250000
   20      H      -1.4924670000    -2.4785460000     1.5038250000
   21      H       1.9224330000     1.6622540000     2.3463250000
 ----------------------------------------------------------------

   11   -1389.2058444979      7.34e-07  Convergence criterion met
 Total energy in the final basis set =    -1389.2058444979
        RIMP2         total energy =     -1391.7265706840 a.u.

                    Orbital Energies (a.u.)
 --------------------------------------------------------------

 Alpha MOs
 -- Occupied --
-92.0014 -91.9982 -26.3342 -20.6136 -20.5529 -11.4126 -11.3750 -11.3058
-11.3026 -11.2942 -11.2893 -11.2815 -11.2764 -11.2177  -9.0020  -9.0010
 -6.6832  -6.6826  -6.6817  -6.6813  -6.6807  -6.6806  -1.6475  -1.4735
 -1.3693  -1.2330  -1.1498  -1.0692  -1.0292  -1.0023  -0.9708  -0.9079
 -0.8664  -0.7966  -0.7879  -0.7708  -0.7285  -0.7161  -0.6973  -0.6798
 -0.6765  -0.6724  -0.6082  -0.6055  -0.6014  -0.5918  -0.5716  -0.5638
 -0.5386  -0.5263  -0.5104  -0.4844  -0.4785  -0.4630  -0.4624  -0.4340
 -0.3898  -0.3438  -0.2872

          Ground-State Mulliken Net Atomic Charges

     Atom                 Charge (a.u.)
  ----------------------------------------
      1 C                    -0.079417
      2 S                     0.099371
      3 C                    -0.190454
      4 C                    -0.047744
      5 C                    -0.028458
      6 C                     0.364848
      7 C                    -0.139330
      8 S                     0.052345
      9 C                     0.456872
     10 O                    -0.445700
     11 O                    -0.297225
     12 F                    -0.211640
     13 C                    -0.054585
     14 H                     0.116981
     15 H                     0.084914
     16 H                     0.084727
     17 C                    -0.374462
     18 H                     0.110626
     19 H                     0.150942
     20 H                     0.134083
     21 H                     0.213304
  ----------------------------------------
  Sum of atomic charges =     0.000000

                    Cartesian Multipole Moments
 -----------------------------------------------------------------
    Charge (ESU x 10^10)
                -0.0000
    Dipole Moment (Debye)
         X       3.1470      Y       1.4483      Z       2.4475
       Tot       4.2416
    Quadrupole Moments (Debye-Ang)
        XX     -90.0837     XY       6.2001     YY     -89.0884
        XZ      -7.7351     YZ      -6.4511     ZZ     -95.3469

 Total job time:  56.14s(wall), 1988.04s(cpu)
        *  Thank you very much for using Q-Chem.  Have a nice day.  *
