 Q-Chem 5.4, Q-Chem, Inc., Pleasanton, CA (2021)
 Q-Chem 5.4.0 for Intel X86 EM64T Linux

User input:
--------------------------------------------------------------
$molecule
0 1
C	-0.444551	-0.717327	1.025267
S	0.007049	0.060473	2.535967
C	0.793849	1.425273	1.752867
C	0.009549	0.069273	-0.039433
C	0.702649	1.272673	0.346967
C	-0.022251	0.010873	-1.460833
C	0.610049	1.106373	-2.081633
S	1.230949	2.188373	-0.940433
C	0.741349	1.324373	-3.534733
O	0.277149	0.514473	-4.325033
O	1.385749	2.434073	-3.979133
F	-0.575851	-0.955927	-2.221033
C	1.573949	2.739673	-5.309733
H	2.126949	3.696273	-5.345033
H	0.607649	2.847873	-5.850333
H	2.157349	1.952473	-5.836633
C	-0.444551	-2.152527	1.025267
H	-0.453051	-2.161527	-0.054633
H	0.391349	-2.836427	1.024867
H	-1.388651	-2.676927	1.033267
H	1.253849	2.221973	2.346767
$end

$rem
JOBTYPE		SP
EXCHANGE	HF
CORRELATION	pRIMP2
BASIS		cc-pvtz
METHOD		rimp2
AUX_BASIS	rimp2-cc-pvtz
SOLVENT_METHOD	PCM
PURECART	11111
SYMMETRY	false
MEM_TOTAL	110000
SCF_CONVERGENCE = 6
THRESH=10
GUI = 2
$end

$solvent
dielectric 4.90
$end
--------------------------------------------------------------

             Standard Nuclear Orientation (Angstroms)
    I     Atom           X                Y                Z
 ----------------------------------------------------------------
    1      C      -0.4445510000    -0.7173270000     1.0252670000
    2      S       0.0070490000     0.0604730000     2.5359670000
    3      C       0.7938490000     1.4252730000     1.7528670000
    4      C       0.0095490000     0.0692730000    -0.0394330000
    5      C       0.7026490000     1.2726730000     0.3469670000
    6      C      -0.0222510000     0.0108730000    -1.4608330000
    7      C       0.6100490000     1.1063730000    -2.0816330000
    8      S       1.2309490000     2.1883730000    -0.9404330000
    9      C       0.7413490000     1.3243730000    -3.5347330000
   10      O       0.2771490000     0.5144730000    -4.3250330000
   11      O       1.3857490000     2.4340730000    -3.9791330000
   12      F      -0.5758510000    -0.9559270000    -2.2210330000
   13      C       1.5739490000     2.7396730000    -5.3097330000
   14      H       2.1269490000     3.6962730000    -5.3450330000
   15      H       0.6076490000     2.8478730000    -5.8503330000
   16      H       2.1573490000     1.9524730000    -5.8366330000
   17      C      -0.4445510000    -2.1525270000     1.0252670000
   18      H      -0.4530510000    -2.1615270000    -0.0546330000
   19      H       0.3913490000    -2.8364270000     1.0248670000
   20      H      -1.3886510000    -2.6769270000     1.0332670000
   21      H       1.2538490000     2.2219730000     2.3467670000
 ----------------------------------------------------------------

   11   -1389.2358182613      5.79e-07  Convergence criterion met
 Total energy in the final basis set =    -1389.2358182613
        RIMP2         total energy =     -1391.7490036895 a.u.

                    Orbital Energies (a.u.)
 --------------------------------------------------------------

 Alpha MOs
 -- Occupied --
-92.0033 -91.9935 -26.3354 -20.6120 -20.5501 -11.4102 -11.3760 -11.2969
-11.2969 -11.2926 -11.2914 -11.2885 -11.2766 -11.2232  -9.0024  -8.9975
 -6.6831  -6.6824  -6.6821  -6.6787  -6.6781  -6.6767  -1.6487  -1.4718
 -1.3672  -1.2298  -1.1466  -1.0683  -1.0277  -1.0045  -0.9695  -0.9101
 -0.8648  -0.7962  -0.7873  -0.7686  -0.7274  -0.7169  -0.6971  -0.6786
 -0.6777  -0.6706  -0.6066  -0.6055  -0.5994  -0.5900  -0.5803  -0.5657
 -0.5412  -0.5258  -0.5064  -0.4826  -0.4703  -0.4624  -0.4611  -0.4477
 -0.3964  -0.3444  -0.2853

          Ground-State Mulliken Net Atomic Charges

     Atom                 Charge (a.u.)
  ----------------------------------------
      1 C                    -0.005986
      2 S                     0.090259
      3 C                    -0.231451
      4 C                    -0.083014
      5 C                    -0.012318
      6 C                     0.351932
      7 C                    -0.139276
      8 S                     0.040482
      9 C                     0.456418
     10 O                    -0.450548
     11 O                    -0.297777
     12 F                    -0.211756
     13 C                    -0.054825
     14 H                     0.116705
     15 H                     0.084416
     16 H                     0.084296
     17 C                    -0.350181
     18 H                     0.112048
     19 H                     0.158571
     20 H                     0.130808
     21 H                     0.211197
  ----------------------------------------
  Sum of atomic charges =     0.000000

                    Cartesian Multipole Moments
 -----------------------------------------------------------------
    Charge (ESU x 10^10)
                -0.0000
    Dipole Moment (Debye)
         X       1.7385      Y       1.4014      Z       2.6157
       Tot       3.4392
    Quadrupole Moments (Debye-Ang)
        XX     -93.5322     XY       4.4488     YY     -85.0691
        XZ      -4.9109     YZ      -8.8854     ZZ     -96.8481

 Total job time:  61.31s(wall), 2437.61s(cpu)
        *  Thank you very much for using Q-Chem.  Have a nice day.  *
