 Q-Chem 5.4, Q-Chem, Inc., Pleasanton, CA (2021)
 Q-Chem 5.4.0 for Intel X86 EM64T Linux

User input:
--------------------------------------------------------------
$molecule
0 1
C	-0.766483	-0.392188	1.023873
S	0.013517	0.055612	2.534573
C	1.377317	0.844212	1.751473
C	0.020017	0.061912	-0.040827
C	1.222017	0.757612	0.345573
C	-0.036583	0.027312	-1.462227
C	1.058717	0.659812	-2.083027
S	2.137417	1.286512	-0.941827
C	1.281417	0.783012	-3.536127
O	0.474517	0.313712	-4.326427
O	2.394317	1.421812	-3.980527
F	-0.999483	-0.533088	-2.222427
C	2.710017	1.592412	-5.311127
H	3.667217	2.144312	-5.346427
H	1.927317	2.169312	-5.851727
H	2.821717	0.618912	-5.838027
C	-0.766483	-1.827388	1.023873
H	-1.705983	-1.836388	0.491273
H	-0.348883	-2.511288	0.299773
H	-1.231583	-2.351788	1.845473
H	2.174117	1.304112	2.345373
$end

$rem
JOBTYPE		SP
EXCHANGE	HF
CORRELATION	pRIMP2
BASIS		cc-pvtz
METHOD		rimp2
AUX_BASIS	rimp2-cc-pvtz
SOLVENT_METHOD	PCM
PURECART	11111
SYMMETRY	false
MEM_TOTAL	110000
SCF_CONVERGENCE = 6
THRESH=10
GUI = 2
$end

$solvent
dielectric 4.90
$end
--------------------------------------------------------------

             Standard Nuclear Orientation (Angstroms)
    I     Atom           X                Y                Z
 ----------------------------------------------------------------
    1      C      -0.7664830000    -0.3921880000     1.0238730000
    2      S       0.0135170000     0.0556120000     2.5345730000
    3      C       1.3773170000     0.8442120000     1.7514730000
    4      C       0.0200170000     0.0619120000    -0.0408270000
    5      C       1.2220170000     0.7576120000     0.3455730000
    6      C      -0.0365830000     0.0273120000    -1.4622270000
    7      C       1.0587170000     0.6598120000    -2.0830270000
    8      S       2.1374170000     1.2865120000    -0.9418270000
    9      C       1.2814170000     0.7830120000    -3.5361270000
   10      O       0.4745170000     0.3137120000    -4.3264270000
   11      O       2.3943170000     1.4218120000    -3.9805270000
   12      F      -0.9994830000    -0.5330880000    -2.2224270000
   13      C       2.7100170000     1.5924120000    -5.3111270000
   14      H       3.6672170000     2.1443120000    -5.3464270000
   15      H       1.9273170000     2.1693120000    -5.8517270000
   16      H       2.8217170000     0.6189120000    -5.8380270000
   17      C      -0.7664830000    -1.8273880000     1.0238730000
   18      H      -1.7059830000    -1.8363880000     0.4912730000
   19      H      -0.3488830000    -2.5112880000     0.2997730000
   20      H      -1.2315830000    -2.3517880000     1.8454730000
   21      H       2.1741170000     1.3041120000     2.3453730000
 ----------------------------------------------------------------

   11   -1389.1764084210      9.14e-07  Convergence criterion met
 Total energy in the final basis set =    -1389.1764084210
        RIMP2         total energy =     -1391.7019173650 a.u.

                    Orbital Energies (a.u.)
 --------------------------------------------------------------

 Alpha MOs
 -- Occupied --
-92.0010 -92.0006 -26.3332 -20.6141 -20.5542 -11.4136 -11.3736 -11.3128
-11.3055 -11.2947 -11.2896 -11.2838 -11.2637 -11.2131  -9.0043  -9.0008
 -6.6854  -6.6848  -6.6836  -6.6814  -6.6804  -6.6803  -1.6464  -1.4742
 -1.3702  -1.2346  -1.1522  -1.0693  -1.0303  -1.0010  -0.9714  -0.9058
 -0.8675  -0.7971  -0.7878  -0.7724  -0.7292  -0.7155  -0.6973  -0.6803
 -0.6755  -0.6730  -0.6091  -0.6073  -0.6000  -0.5927  -0.5650  -0.5608
 -0.5377  -0.5234  -0.5142  -0.4908  -0.4840  -0.4637  -0.4631  -0.4317
 -0.3764  -0.3432  -0.2825

          Ground-State Mulliken Net Atomic Charges

     Atom                 Charge (a.u.)
  ----------------------------------------
      1 C                    -0.120230
      2 S                     0.109129
      3 C                    -0.169678
      4 C                    -0.030135
      5 C                    -0.032451
      6 C                     0.359249
      7 C                    -0.133683
      8 S                     0.060214
      9 C                     0.456545
     10 O                    -0.443226
     11 O                    -0.296966
     12 F                    -0.211241
     13 C                    -0.054752
     14 H                     0.117147
     15 H                     0.085256
     16 H                     0.084907
     17 C                    -0.404215
     18 H                     0.127733
     19 H                     0.147415
     20 H                     0.135038
     21 H                     0.213944
  ----------------------------------------
  Sum of atomic charges =     0.000000

                    Cartesian Multipole Moments
 -----------------------------------------------------------------
    Charge (ESU x 10^10)
                -0.0000
    Dipole Moment (Debye)
         X       3.8696      Y       1.1202      Z       2.5611
       Tot       4.7737
    Quadrupole Moments (Debye-Ang)
        XX     -88.5064     XY       6.2420     YY     -91.2069
        XZ      -8.7900     YZ      -5.4454     ZZ     -93.8320

 Total job time:  54.26s(wall), 1976.27s(cpu)
        *  Thank you very much for using Q-Chem.  Have a nice day.  *
