 Q-Chem 5.4, Q-Chem, Inc., Pleasanton, CA (2021)
 Q-Chem 5.4.0 for Intel X86 EM64T Linux

User input:
--------------------------------------------------------------
$molecule
0 1
C	-0.233076	-0.806326	1.024315
S	0.001824	0.061874	2.535015
C	0.408524	1.583774	1.751915
C	0.001924	0.070974	-0.040385
C	0.359924	1.412774	0.346015
C	-0.013576	0.006374	-1.461785
C	0.313624	1.228174	-2.082585
S	0.633224	2.434074	-0.941385
C	0.384024	1.472774	-3.535685
O	0.145224	0.570274	-4.325985
O	0.719224	2.711374	-3.980085
F	-0.298176	-1.070726	-2.221985
C	0.821924	3.055274	-5.310685
H	1.108424	4.122374	-5.345985
H	-0.139476	2.909774	-5.851285
H	1.589224	2.445874	-5.837585
C	-0.233076	-2.241526	1.024315
H	0.697924	-2.250526	0.477015
H	0.185124	-2.925426	1.748015
H	-0.712076	-2.765926	0.210715
H	0.646724	2.472474	2.345815
$end

$rem
JOBTYPE		SP
EXCHANGE	HF
CORRELATION	pRIMP2
BASIS		cc-pvtz
METHOD		rimp2
AUX_BASIS	rimp2-cc-pvtz
SOLVENT_METHOD	PCM
PURECART	11111
SYMMETRY	false
MEM_TOTAL	110000
SCF_CONVERGENCE = 6
THRESH=10
GUI = 2
$end

$solvent
dielectric 4.90
$end
--------------------------------------------------------------

             Standard Nuclear Orientation (Angstroms)
    I     Atom           X                Y                Z
 ----------------------------------------------------------------
    1      C      -0.2330760000    -0.8063260000     1.0243150000
    2      S       0.0018240000     0.0618740000     2.5350150000
    3      C       0.4085240000     1.5837740000     1.7519150000
    4      C       0.0019240000     0.0709740000    -0.0403850000
    5      C       0.3599240000     1.4127740000     0.3460150000
    6      C      -0.0135760000     0.0063740000    -1.4617850000
    7      C       0.3136240000     1.2281740000    -2.0825850000
    8      S       0.6332240000     2.4340740000    -0.9413850000
    9      C       0.3840240000     1.4727740000    -3.5356850000
   10      O       0.1452240000     0.5702740000    -4.3259850000
   11      O       0.7192240000     2.7113740000    -3.9800850000
   12      F      -0.2981760000    -1.0707260000    -2.2219850000
   13      C       0.8219240000     3.0552740000    -5.3106850000
   14      H       1.1084240000     4.1223740000    -5.3459850000
   15      H      -0.1394760000     2.9097740000    -5.8512850000
   16      H       1.5892240000     2.4458740000    -5.8375850000
   17      C      -0.2330760000    -2.2415260000     1.0243150000
   18      H       0.6979240000    -2.2505260000     0.4770150000
   19      H       0.1851240000    -2.9254260000     1.7480150000
   20      H      -0.7120760000    -2.7659260000     0.2107150000
   21      H       0.6467240000     2.4724740000     2.3458150000
 ----------------------------------------------------------------

   11   -1389.2522896882      4.47e-07  Convergence criterion met
 Total energy in the final basis set =    -1389.2522896882
        RIMP2         total energy =     -1391.7570642437 a.u.

                    Orbital Energies (a.u.)
 --------------------------------------------------------------

 Alpha MOs
 -- Occupied --
-92.0071 -91.9889 -26.3348 -20.6094 -20.5453 -11.4062 -11.3766 -11.3188
-11.2921 -11.2877 -11.2872 -11.2752 -11.2672 -11.2344  -9.0057  -8.9931
 -6.6865  -6.6859  -6.6854  -6.6744  -6.6737  -6.6724  -1.6478  -1.4688
 -1.3636  -1.2268  -1.1470  -1.0682  -1.0264  -1.0062  -0.9677  -0.9109
 -0.8626  -0.7955  -0.7848  -0.7657  -0.7259  -0.7155  -0.6970  -0.6777
 -0.6764  -0.6675  -0.6102  -0.6030  -0.5936  -0.5922  -0.5851  -0.5618
 -0.5369  -0.5235  -0.5081  -0.4923  -0.4779  -0.4644  -0.4591  -0.4566
 -0.3899  -0.3464  -0.2740

          Ground-State Mulliken Net Atomic Charges

     Atom                 Charge (a.u.)
  ----------------------------------------
      1 C                     0.050210
      2 S                     0.087930
      3 C                    -0.277304
      4 C                    -0.097070
      5 C                    -0.007891
      6 C                     0.379534
      7 C                    -0.169473
      8 S                     0.027598
      9 C                     0.458648
     10 O                    -0.458704
     11 O                    -0.299021
     12 F                    -0.213001
     13 C                    -0.054885
     14 H                     0.116003
     15 H                     0.083665
     16 H                     0.083410
     17 C                    -0.382516
     18 H                     0.145042
     19 H                     0.170402
     20 H                     0.148497
     21 H                     0.208928
  ----------------------------------------
  Sum of atomic charges =     0.000000

                    Cartesian Multipole Moments
 -----------------------------------------------------------------
    Charge (ESU x 10^10)
                -0.0000
    Dipole Moment (Debye)
         X       1.2200      Y       0.2702      Z       3.3790
       Tot       3.6027
    Quadrupole Moments (Debye-Ang)
        XX     -96.1136     XY       0.9560     YY     -82.5601
        XZ      -1.8519     YZ     -11.4267     ZZ     -97.5175

 Total job time:  53.50s(wall), 1897.31s(cpu)
        *  Thank you very much for using Q-Chem.  Have a nice day.  *
