 Q-Chem 5.4, Q-Chem, Inc., Pleasanton, CA (2021)
 Q-Chem 5.4.0 for Intel X86 EM64T Linux

User input:
--------------------------------------------------------------
$molecule
0 1
C	-0.002749	-0.836989	1.025081
S	-0.000549	0.062411	2.535781
C	-0.001549	1.637711	1.752681
C	-0.002749	0.071211	-0.039619
C	-0.004249	1.460011	0.346781
C	-0.001149	0.004811	-1.461019
C	-0.001249	1.269711	-2.081819
S	-0.004549	2.517211	-0.940619
C	0.003451	1.524111	-3.534919
O	0.006451	0.590611	-4.325219
O	0.006651	2.807311	-3.979319
F	0.002751	-1.109289	-2.221219
C	0.016851	3.166011	-5.309919
H	0.017451	4.271011	-5.345219
H	-0.874149	2.776711	-5.850519
H	0.915751	2.776111	-5.836819
C	-0.002749	-2.272189	1.025081
H	0.529851	-2.281189	0.085581
H	0.721351	-2.956089	1.442681
H	-0.824349	-2.796589	0.559981
H	-0.001549	2.557811	2.346581
$end

$rem
JOBTYPE		SP
EXCHANGE	HF
CORRELATION	pRIMP2
BASIS		cc-pvtz
METHOD		rimp2
AUX_BASIS	rimp2-cc-pvtz
SOLVENT_METHOD	PCM
PURECART	11111
SYMMETRY	false
MEM_TOTAL	110000
SCF_CONVERGENCE = 6
THRESH=10
GUI = 2
$end

$solvent
dielectric 4.90
$end
--------------------------------------------------------------

             Standard Nuclear Orientation (Angstroms)
    I     Atom           X                Y                Z
 ----------------------------------------------------------------
    1      C      -0.0027490000    -0.8369890000     1.0250810000
    2      S      -0.0005490000     0.0624110000     2.5357810000
    3      C      -0.0015490000     1.6377110000     1.7526810000
    4      C      -0.0027490000     0.0712110000    -0.0396190000
    5      C      -0.0042490000     1.4600110000     0.3467810000
    6      C      -0.0011490000     0.0048110000    -1.4610190000
    7      C      -0.0012490000     1.2697110000    -2.0818190000
    8      S      -0.0045490000     2.5172110000    -0.9406190000
    9      C       0.0034510000     1.5241110000    -3.5349190000
   10      O       0.0064510000     0.5906110000    -4.3252190000
   11      O       0.0066510000     2.8073110000    -3.9793190000
   12      F       0.0027510000    -1.1092890000    -2.2212190000
   13      C       0.0168510000     3.1660110000    -5.3099190000
   14      H       0.0174510000     4.2710110000    -5.3452190000
   15      H      -0.8741490000     2.7767110000    -5.8505190000
   16      H       0.9157510000     2.7761110000    -5.8368190000
   17      C      -0.0027490000    -2.2721890000     1.0250810000
   18      H       0.5298510000    -2.2811890000     0.0855810000
   19      H       0.7213510000    -2.9560890000     1.4426810000
   20      H      -0.8243490000    -2.7965890000     0.5599810000
   21      H      -0.0015490000     2.5578110000     2.3465810000
 ----------------------------------------------------------------

   11   -1389.2549621723      4.79e-07  Convergence criterion met
 Total energy in the final basis set =    -1389.2549621723
        RIMP2         total energy =     -1391.7611630690 a.u.

                    Orbital Energies (a.u.)
 --------------------------------------------------------------

 Alpha MOs
 -- Occupied --
-92.0048 -91.9901 -26.3353 -20.6105 -20.5473 -11.4078 -11.3767 -11.3126
-11.2917 -11.2912 -11.2877 -11.2803 -11.2719 -11.2300  -9.0036  -8.9943
 -6.6844  -6.6837  -6.6833  -6.6756  -6.6749  -6.6736  -1.6485  -1.4701
 -1.3651  -1.2275  -1.1453  -1.0680  -1.0267  -1.0066  -0.9683  -0.9117
 -0.8633  -0.7957  -0.7859  -0.7665  -0.7264  -0.7163  -0.6974  -0.6782
 -0.6773  -0.6686  -0.6097  -0.6042  -0.5970  -0.5873  -0.5827  -0.5670
 -0.5433  -0.5244  -0.5047  -0.4826  -0.4753  -0.4633  -0.4600  -0.4557
 -0.3946  -0.3456  -0.2796

          Ground-State Mulliken Net Atomic Charges

     Atom                 Charge (a.u.)
  ----------------------------------------
      1 C                     0.051184
      2 S                     0.081926
      3 C                    -0.261607
      4 C                    -0.100468
      5 C                    -0.011222
      6 C                     0.386725
      7 C                    -0.156860
      8 S                     0.028371
      9 C                     0.458574
     10 O                    -0.455892
     11 O                    -0.298447
     12 F                    -0.214499
     13 C                    -0.055003
     14 H                     0.116300
     15 H                     0.083938
     16 H                     0.083814
     17 C                    -0.377148
     18 H                     0.123954
     19 H                     0.165036
     20 H                     0.141476
     21 H                     0.209848
  ----------------------------------------
  Sum of atomic charges =     0.000000

                    Cartesian Multipole Moments
 -----------------------------------------------------------------
    Charge (ESU x 10^10)
                -0.0000
    Dipole Moment (Debye)
         X       0.3343      Y       0.8405      Z       2.9412
       Tot       3.0772
    Quadrupole Moments (Debye-Ang)
        XX     -96.0388     XY      -0.9303     YY     -81.9588
        XZ       0.6013     YZ     -10.9750     ZZ     -97.7229

 Total job time:  54.32s(wall), 1969.14s(cpu)
        *  Thank you very much for using Q-Chem.  Have a nice day.  *
