 Q-Chem 5.4, Q-Chem, Inc., Pleasanton, CA (2021)
 Q-Chem 5.4.0 for Intel X86 EM64T Linux

User input:
--------------------------------------------------------------
$molecule
0 1
C	-0.157671	-0.823218	1.021608
S	0.000729	0.062182	2.532308
C	0.273229	1.613782	1.749208
C	0.000029	0.071182	-0.043092
C	0.239729	1.439182	0.343308
C	-0.009871	0.005582	-1.464492
C	0.209629	1.251182	-2.085292
S	0.422929	2.480282	-0.944092
C	0.258429	1.500982	-3.538392
O	0.099229	0.581182	-4.328692
O	0.484429	2.764082	-3.982792
F	-0.199471	-1.092318	-2.224692
C	0.556729	3.115582	-5.313392
H	0.749129	4.203682	-5.348692
H	-0.388371	2.886882	-5.853992
H	1.374229	2.575482	-5.840292
C	-0.157671	-2.258418	1.021608
H	0.675029	-2.267418	1.709308
H	-0.694671	-2.942318	1.662108
H	0.443029	-2.782818	0.293208
H	0.433029	2.519782	2.343108
$end

$rem
JOBTYPE		SP
EXCHANGE	HF
CORRELATION	pRIMP2
BASIS		cc-pvtz
METHOD		rimp2
AUX_BASIS	rimp2-cc-pvtz
SOLVENT_METHOD	PCM
PURECART	11111
SYMMETRY	false
MEM_TOTAL	110000
SCF_CONVERGENCE = 6
THRESH=10
GUI = 2
$end

$solvent
dielectric 4.90
$end
--------------------------------------------------------------

             Standard Nuclear Orientation (Angstroms)
    I     Atom           X                Y                Z
 ----------------------------------------------------------------
    1      C      -0.1576710000    -0.8232180000     1.0216080000
    2      S       0.0007290000     0.0621820000     2.5323080000
    3      C       0.2732290000     1.6137820000     1.7492080000
    4      C       0.0000290000     0.0711820000    -0.0430920000
    5      C       0.2397290000     1.4391820000     0.3433080000
    6      C      -0.0098710000     0.0055820000    -1.4644920000
    7      C       0.2096290000     1.2511820000    -2.0852920000
    8      S       0.4229290000     2.4802820000    -0.9440920000
    9      C       0.2584290000     1.5009820000    -3.5383920000
   10      O       0.0992290000     0.5811820000    -4.3286920000
   11      O       0.4844290000     2.7640820000    -3.9827920000
   12      F      -0.1994710000    -1.0923180000    -2.2246920000
   13      C       0.5567290000     3.1155820000    -5.3133920000
   14      H       0.7491290000     4.2036820000    -5.3486920000
   15      H      -0.3883710000     2.8868820000    -5.8539920000
   16      H       1.3742290000     2.5754820000    -5.8402920000
   17      C      -0.1576710000    -2.2584180000     1.0216080000
   18      H       0.6750290000    -2.2674180000     1.7093080000
   19      H      -0.6946710000    -2.9423180000     1.6621080000
   20      H       0.4430290000    -2.7828180000     0.2932080000
   21      H       0.4330290000     2.5197820000     2.3431080000
 ----------------------------------------------------------------

   11   -1389.2533742069      4.39e-07  Convergence criterion met
 Total energy in the final basis set =    -1389.2533742069
        RIMP2         total energy =     -1391.7567879459 a.u.

                    Orbital Energies (a.u.)
 --------------------------------------------------------------

 Alpha MOs
 -- Occupied --
-92.0052 -91.9881 -26.3335 -20.6096 -20.5459 -11.4066 -11.3762 -11.3157
-11.2909 -11.2889 -11.2873 -11.2788 -11.2686 -11.2326  -9.0043  -8.9924
 -6.6852  -6.6846  -6.6840  -6.6737  -6.6730  -6.6717  -1.6464  -1.4692
 -1.3640  -1.2265  -1.1472  -1.0663  -1.0285  -1.0057  -0.9678  -0.9103
 -0.8632  -0.7963  -0.7841  -0.7667  -0.7261  -0.7143  -0.6957  -0.6766
 -0.6765  -0.6673  -0.6099  -0.6033  -0.5983  -0.5862  -0.5801  -0.5618
 -0.5403  -0.5249  -0.5110  -0.4895  -0.4787  -0.4611  -0.4585  -0.4565
 -0.3933  -0.3464  -0.2754

          Ground-State Mulliken Net Atomic Charges

     Atom                 Charge (a.u.)
  ----------------------------------------
      1 C                     0.051973
      2 S                     0.077864
      3 C                    -0.265168
      4 C                    -0.103340
      5 C                    -0.014382
      6 C                     0.396030
      7 C                    -0.168679
      8 S                     0.024067
      9 C                     0.459961
     10 O                    -0.456967
     11 O                    -0.298692
     12 F                    -0.213022
     13 C                    -0.054925
     14 H                     0.116028
     15 H                     0.083777
     16 H                     0.083630
     17 C                    -0.376364
     18 H                     0.137839
     19 H                     0.162177
     20 H                     0.147597
     21 H                     0.210596
  ----------------------------------------
  Sum of atomic charges =     0.000000

                    Cartesian Multipole Moments
 -----------------------------------------------------------------
    Charge (ESU x 10^10)
                -0.0000
    Dipole Moment (Debye)
         X       1.0005      Y       0.5062      Z       4.0650
       Tot       4.2168
    Quadrupole Moments (Debye-Ang)
        XX     -96.2146     XY       0.4282     YY     -82.2978
        XZ      -1.6685     YZ     -13.3788     ZZ     -95.7455

 Total job time:  58.24s(wall), 2248.51s(cpu)
        *  Thank you very much for using Q-Chem.  Have a nice day.  *
