 Q-Chem 5.4, Q-Chem, Inc., Pleasanton, CA (2021)
 Q-Chem 5.4.0 for Intel X86 EM64T Linux

User input:
--------------------------------------------------------------
$molecule
0 1
C	-0.374575	-0.753180	1.024554
S	0.007525	0.061020	2.535254
C	0.672325	1.489220	1.752154
C	0.009225	0.069920	-0.040146
C	0.594825	1.329320	0.346254
C	-0.017375	0.009120	-1.461546
C	0.517125	1.155520	-2.082346
S	1.041325	2.287520	-0.941146
C	0.628925	1.384120	-3.535446
O	0.237025	0.536820	-4.325746
O	1.174125	2.545720	-3.979846
F	-0.484675	-1.002280	-2.221746
C	1.334925	2.866520	-5.310446
H	1.802425	3.867720	-5.345746
H	0.362825	2.890220	-5.851046
H	1.984825	2.133220	-5.837346
C	-0.374575	-2.188380	1.024554
H	-1.075175	-2.197380	0.202754
H	0.265525	-2.872280	0.486954
H	-1.092675	-2.712780	1.637554
H	1.061225	2.323020	2.346054
$end

$rem
JOBTYPE		SP
EXCHANGE	HF
CORRELATION	pRIMP2
BASIS		cc-pvtz
METHOD		rimp2
AUX_BASIS	rimp2-cc-pvtz
SOLVENT_METHOD	PCM
PURECART	11111
SYMMETRY	false
MEM_TOTAL	110000
SCF_CONVERGENCE = 6
THRESH=10
GUI = 2
$end

$solvent
dielectric 4.90
$end
--------------------------------------------------------------

             Standard Nuclear Orientation (Angstroms)
    I     Atom           X                Y                Z
 ----------------------------------------------------------------
    1      C      -0.3745750000    -0.7531800000     1.0245540000
    2      S       0.0075250000     0.0610200000     2.5352540000
    3      C       0.6723250000     1.4892200000     1.7521540000
    4      C       0.0092250000     0.0699200000    -0.0401460000
    5      C       0.5948250000     1.3293200000     0.3462540000
    6      C      -0.0173750000     0.0091200000    -1.4615460000
    7      C       0.5171250000     1.1555200000    -2.0823460000
    8      S       1.0413250000     2.2875200000    -0.9411460000
    9      C       0.6289250000     1.3841200000    -3.5354460000
   10      O       0.2370250000     0.5368200000    -4.3257460000
   11      O       1.1741250000     2.5457200000    -3.9798460000
   12      F      -0.4846750000    -1.0022800000    -2.2217460000
   13      C       1.3349250000     2.8665200000    -5.3104460000
   14      H       1.8024250000     3.8677200000    -5.3457460000
   15      H       0.3628250000     2.8902200000    -5.8510460000
   16      H       1.9848250000     2.1332200000    -5.8373460000
   17      C      -0.3745750000    -2.1883800000     1.0245540000
   18      H      -1.0751750000    -2.1973800000     0.2027540000
   19      H       0.2655250000    -2.8722800000     0.4869540000
   20      H      -1.0926750000    -2.7127800000     1.6375540000
   21      H       1.0612250000     2.3230200000     2.3460540000
 ----------------------------------------------------------------

   11   -1389.2423129754      5.29e-07  Convergence criterion met
 Total energy in the final basis set =    -1389.2423129754
        RIMP2         total energy =     -1391.7525187070 a.u.

                    Orbital Energies (a.u.)
 --------------------------------------------------------------

 Alpha MOs
 -- Occupied --
-92.0039 -91.9915 -26.3346 -20.6109 -20.5481 -11.4085 -11.3761 -11.3045
-11.2930 -11.2923 -11.2880 -11.2856 -11.2734 -11.2269  -9.0030  -8.9956
 -6.6837  -6.6830  -6.6826  -6.6769  -6.6762  -6.6749  -1.6478  -1.4706
 -1.3657  -1.2282  -1.1459  -1.0673  -1.0272  -1.0055  -0.9686  -0.9111
 -0.8638  -0.7957  -0.7859  -0.7673  -0.7265  -0.7158  -0.6967  -0.6780
 -0.6776  -0.6691  -0.6078  -0.6047  -0.5968  -0.5888  -0.5762  -0.5654
 -0.5431  -0.5245  -0.5073  -0.4845  -0.4802  -0.4610  -0.4595  -0.4511
 -0.3922  -0.3454  -0.2795

          Ground-State Mulliken Net Atomic Charges

     Atom                 Charge (a.u.)
  ----------------------------------------
      1 C                     0.019461
      2 S                     0.089210
      3 C                    -0.245911
      4 C                    -0.097412
      5 C                    -0.014267
      6 C                     0.372091
      7 C                    -0.156921
      8 S                     0.033584
      9 C                     0.457687
     10 O                    -0.453819
     11 O                    -0.298257
     12 F                    -0.212659
     13 C                    -0.054748
     14 H                     0.116376
     15 H                     0.084036
     16 H                     0.083965
     17 C                    -0.368091
     18 H                     0.126785
     19 H                     0.163745
     20 H                     0.145077
     21 H                     0.210068
  ----------------------------------------
  Sum of atomic charges =     0.000000

                    Cartesian Multipole Moments
 -----------------------------------------------------------------
    Charge (ESU x 10^10)
                -0.0000
    Dipole Moment (Debye)
         X       0.8235      Y       0.9935      Z       2.9263
       Tot       3.1982
    Quadrupole Moments (Debye-Ang)
        XX     -94.1692     XY       5.0466     YY     -84.0607
        XZ      -5.0930     YZ      -9.7957     ZZ     -97.0911

 Total job time:  53.50s(wall), 1919.32s(cpu)
        *  Thank you very much for using Q-Chem.  Have a nice day.  *
