 Q-Chem 5.4, Q-Chem, Inc., Pleasanton, CA (2021)
 Q-Chem 5.4.0 for Intel X86 EM64T Linux

User input:
--------------------------------------------------------------
$molecule
0 1
C	-0.770910	-0.392188	1.023580
S	0.009090	0.055612	2.534280
C	1.372890	0.844212	1.751180
C	0.015590	0.061912	-0.041120
C	1.217590	0.757612	0.345280
C	-0.041010	0.027312	-1.462520
C	1.054290	0.659812	-2.083320
S	2.132990	1.286512	-0.942120
C	1.276990	0.783012	-3.536420
O	0.470090	0.313712	-4.326720
O	2.389890	1.421812	-3.980820
F	-1.003910	-0.533088	-2.222720
C	2.705590	1.592412	-5.311420
H	3.662790	2.144312	-5.346720
H	1.922890	2.169312	-5.852020
H	2.817290	0.618912	-5.838320
C	-0.770910	-1.827388	1.023580
H	0.291190	-1.836388	0.827680
H	-0.625410	-2.511288	1.846680
H	-0.942710	-2.351788	0.095180
H	2.169690	1.304112	2.345080
$end

$rem
JOBTYPE		SP
EXCHANGE	HF
CORRELATION	pRIMP2
BASIS		cc-pvtz
METHOD		rimp2
AUX_BASIS	rimp2-cc-pvtz
SOLVENT_METHOD	PCM
PURECART	11111
SYMMETRY	false
MEM_TOTAL	110000
SCF_CONVERGENCE = 6
THRESH=10
GUI = 2
$end

$solvent
dielectric 4.90
$end
--------------------------------------------------------------

             Standard Nuclear Orientation (Angstroms)
    I     Atom           X                Y                Z
 ----------------------------------------------------------------
    1      C      -0.7709100000    -0.3921880000     1.0235800000
    2      S       0.0090900000     0.0556120000     2.5342800000
    3      C       1.3728900000     0.8442120000     1.7511800000
    4      C       0.0155900000     0.0619120000    -0.0411200000
    5      C       1.2175900000     0.7576120000     0.3452800000
    6      C      -0.0410100000     0.0273120000    -1.4625200000
    7      C       1.0542900000     0.6598120000    -2.0833200000
    8      S       2.1329900000     1.2865120000    -0.9421200000
    9      C       1.2769900000     0.7830120000    -3.5364200000
   10      O       0.4700900000     0.3137120000    -4.3267200000
   11      O       2.3898900000     1.4218120000    -3.9808200000
   12      F      -1.0039100000    -0.5330880000    -2.2227200000
   13      C       2.7055900000     1.5924120000    -5.3114200000
   14      H       3.6627900000     2.1443120000    -5.3467200000
   15      H       1.9228900000     2.1693120000    -5.8520200000
   16      H       2.8172900000     0.6189120000    -5.8383200000
   17      C      -0.7709100000    -1.8273880000     1.0235800000
   18      H       0.2911900000    -1.8363880000     0.8276800000
   19      H      -0.6254100000    -2.5112880000     1.8466800000
   20      H      -0.9427100000    -2.3517880000     0.0951800000
   21      H       2.1696900000     1.3041120000     2.3450800000
 ----------------------------------------------------------------

   11   -1389.1809343021      7.65e-07  Convergence criterion met
 Total energy in the final basis set =    -1389.1809343021
        RIMP2         total energy =     -1391.7071926050 a.u.

                    Orbital Energies (a.u.)
 --------------------------------------------------------------

 Alpha MOs
 -- Occupied --
-92.0076 -91.9988 -26.3335 -20.6127 -20.5514 -11.4114 -11.3747 -11.3081
-11.3002 -11.2970 -11.2890 -11.2830 -11.2768 -11.2248  -9.0070  -9.0025
 -6.6876  -6.6868  -6.6866  -6.6837  -6.6831  -6.6818  -1.6466  -1.4726
 -1.3682  -1.2368  -1.1585  -1.0722  -1.0303  -1.0012  -0.9716  -0.9039
 -0.8669  -0.7976  -0.7874  -0.7726  -0.7293  -0.7153  -0.6975  -0.6792
 -0.6771  -0.6724  -0.6102  -0.6081  -0.6047  -0.5933  -0.5750  -0.5621
 -0.5292  -0.5229  -0.5138  -0.4974  -0.4832  -0.4623  -0.4619  -0.4470
 -0.3799  -0.3464  -0.2791

          Ground-State Mulliken Net Atomic Charges

     Atom                 Charge (a.u.)
  ----------------------------------------
      1 C                    -0.111077
      2 S                     0.117696
      3 C                    -0.200606
      4 C                    -0.023205
      5 C                    -0.029395
      6 C                     0.367249
      7 C                    -0.147329
      8 S                     0.057549
      9 C                     0.457825
     10 O                    -0.447834
     11 O                    -0.297988
     12 F                    -0.211193
     13 C                    -0.054771
     14 H                     0.116716
     15 H                     0.084885
     16 H                     0.084431
     17 C                    -0.361518
     18 H                     0.104386
     19 H                     0.154492
     20 H                     0.124530
     21 H                     0.215158
  ----------------------------------------
  Sum of atomic charges =     0.000000

                    Cartesian Multipole Moments
 -----------------------------------------------------------------
    Charge (ESU x 10^10)
                -0.0000
    Dipole Moment (Debye)
         X       4.3465      Y       0.6865      Z       3.1633
       Tot       5.4194
    Quadrupole Moments (Debye-Ang)
        XX     -90.4385     XY       4.4912     YY     -90.8958
        XZ      -7.5885     YZ      -6.0405     ZZ     -93.8960

 Total job time:  55.36s(wall), 1970.47s(cpu)
        *  Thank you very much for using Q-Chem.  Have a nice day.  *
