 Q-Chem 5.4, Q-Chem, Inc., Pleasanton, CA (2021)
 Q-Chem 5.4.0 for Intel X86 EM64T Linux

User input:
--------------------------------------------------------------
$molecule
0 1
C	-0.003110	-0.836989	1.024882
S	-0.000910	0.062411	2.535582
C	-0.001910	1.637711	1.752482
C	-0.003110	0.071211	-0.039818
C	-0.004610	1.460011	0.346582
C	-0.001510	0.004811	-1.461218
C	-0.001610	1.269711	-2.082018
S	-0.004910	2.517211	-0.940818
C	0.003090	1.524111	-3.535118
O	0.006090	0.590611	-4.325418
O	0.006290	2.807311	-3.979518
F	0.002390	-1.109289	-2.221418
C	0.016490	3.166011	-5.310118
H	0.017090	4.271011	-5.345418
H	-0.874510	2.776711	-5.850718
H	0.915390	2.776111	-5.837018
C	-0.003110	-2.272189	1.024882
H	0.684590	-2.281189	0.192182
H	0.637390	-2.956089	1.561882
H	-0.731510	-2.796589	0.424182
H	-0.001910	2.557811	2.346382
$end

$rem
JOBTYPE		SP
EXCHANGE	HF
CORRELATION	pRIMP2
BASIS		cc-pvtz
METHOD		rimp2
AUX_BASIS	rimp2-cc-pvtz
SOLVENT_METHOD	PCM
PURECART	11111
SYMMETRY	false
MEM_TOTAL	110000
SCF_CONVERGENCE = 6
THRESH=10
GUI = 2
$end

$solvent
dielectric 4.90
$end
--------------------------------------------------------------

             Standard Nuclear Orientation (Angstroms)
    I     Atom           X                Y                Z
 ----------------------------------------------------------------
    1      C      -0.0031100000    -0.8369890000     1.0248820000
    2      S      -0.0009100000     0.0624110000     2.5355820000
    3      C      -0.0019100000     1.6377110000     1.7524820000
    4      C      -0.0031100000     0.0712110000    -0.0398180000
    5      C      -0.0046100000     1.4600110000     0.3465820000
    6      C      -0.0015100000     0.0048110000    -1.4612180000
    7      C      -0.0016100000     1.2697110000    -2.0820180000
    8      S      -0.0049100000     2.5172110000    -0.9408180000
    9      C       0.0030900000     1.5241110000    -3.5351180000
   10      O       0.0060900000     0.5906110000    -4.3254180000
   11      O       0.0062900000     2.8073110000    -3.9795180000
   12      F       0.0023900000    -1.1092890000    -2.2214180000
   13      C       0.0164900000     3.1660110000    -5.3101180000
   14      H       0.0170900000     4.2710110000    -5.3454180000
   15      H      -0.8745100000     2.7767110000    -5.8507180000
   16      H       0.9153900000     2.7761110000    -5.8370180000
   17      C      -0.0031100000    -2.2721890000     1.0248820000
   18      H       0.6845900000    -2.2811890000     0.1921820000
   19      H       0.6373900000    -2.9560890000     1.5618820000
   20      H      -0.7315100000    -2.7965890000     0.4241820000
   21      H      -0.0019100000     2.5578110000     2.3463820000
 ----------------------------------------------------------------

   11   -1389.2553564485      4.64e-07  Convergence criterion met
 Total energy in the final basis set =    -1389.2553564485
        RIMP2         total energy =     -1391.7607637101 a.u.

                    Orbital Energies (a.u.)
 --------------------------------------------------------------

 Alpha MOs
 -- Occupied --
-92.0054 -91.9896 -26.3351 -20.6101 -20.5466 -11.4072 -11.3767 -11.3150
-11.2918 -11.2898 -11.2876 -11.2782 -11.2704 -11.2315  -9.0042  -8.9938
 -6.6849  -6.6843  -6.6839  -6.6751  -6.6744  -6.6731  -1.6482  -1.4696
 -1.3646  -1.2271  -1.1455  -1.0680  -1.0266  -1.0067  -0.9680  -0.9117
 -0.8630  -0.7955  -0.7855  -0.7661  -0.7262  -0.7160  -0.6973  -0.6781
 -0.6769  -0.6682  -0.6101  -0.6037  -0.5961  -0.5871  -0.5846  -0.5654
 -0.5422  -0.5240  -0.5051  -0.4850  -0.4771  -0.4633  -0.4596  -0.4563
 -0.3930  -0.3458  -0.2776

          Ground-State Mulliken Net Atomic Charges

     Atom                 Charge (a.u.)
  ----------------------------------------
      1 C                     0.053943
      2 S                     0.082049
      3 C                    -0.267738
      4 C                    -0.101130
      5 C                    -0.009829
      6 C                     0.389290
      7 C                    -0.161506
      8 S                     0.026984
      9 C                     0.458960
     10 O                    -0.457077
     11 O                    -0.298652
     12 F                    -0.214583
     13 C                    -0.055004
     14 H                     0.116190
     15 H                     0.083827
     16 H                     0.083688
     17 C                    -0.380219
     18 H                     0.129176
     19 H                     0.167428
     20 H                     0.144734
     21 H                     0.209470
  ----------------------------------------
  Sum of atomic charges =     0.000000

                    Cartesian Multipole Moments
 -----------------------------------------------------------------
    Charge (ESU x 10^10)
                -0.0000
    Dipole Moment (Debye)
         X       0.4471      Y       0.6422      Z       3.0717
       Tot       3.1698
    Quadrupole Moments (Debye-Ang)
        XX     -96.1660     XY      -1.1922     YY     -81.8949
        XZ       0.7542     YZ     -11.2344     ZZ     -97.7379

 Total job time:  54.37s(wall), 1967.69s(cpu)
        *  Thank you very much for using Q-Chem.  Have a nice day.  *
