 Q-Chem 5.4, Q-Chem, Inc., Pleasanton, CA (2021)
 Q-Chem 5.4.0 for Intel X86 EM64T Linux

User input:
--------------------------------------------------------------
$molecule
0 1
C	-0.680417	-0.518946	1.025276
S	0.009983	0.057454	2.535976
C	1.216083	1.070954	1.752876
C	0.015283	0.064854	-0.039424
C	1.078183	0.958754	0.346976
C	-0.034517	0.020954	-1.460824
C	0.934383	0.834054	-2.081624
S	1.887883	1.638454	-0.940424
C	1.132283	0.994054	-3.534724
O	0.419083	0.391754	-4.325024
O	2.117383	1.816354	-3.979124
F	-0.885417	-0.698246	-2.221024
C	2.398683	2.039154	-5.309724
H	3.245483	2.748954	-5.345024
H	1.527683	2.471454	-5.850324
H	2.677683	1.099854	-5.836624
C	-0.680417	-1.954146	1.025276
H	-0.501217	-1.963146	-0.039724
H	0.142783	-2.638046	1.170076
H	-1.611617	-2.478546	0.869176
H	1.920883	1.662254	2.346776
$end

$rem
JOBTYPE		SP
EXCHANGE	HF
CORRELATION	pRIMP2
BASIS		cc-pvtz
METHOD		rimp2
AUX_BASIS	rimp2-cc-pvtz
SOLVENT_METHOD	PCM
PURECART	11111
SYMMETRY	false
MEM_TOTAL	110000
SCF_CONVERGENCE = 6
THRESH=10
GUI = 2
$end

$solvent
dielectric 4.90
$end
--------------------------------------------------------------

             Standard Nuclear Orientation (Angstroms)
    I     Atom           X                Y                Z
 ----------------------------------------------------------------
    1      C      -0.6804170000    -0.5189460000     1.0252760000
    2      S       0.0099830000     0.0574540000     2.5359760000
    3      C       1.2160830000     1.0709540000     1.7528760000
    4      C       0.0152830000     0.0648540000    -0.0394240000
    5      C       1.0781830000     0.9587540000     0.3469760000
    6      C      -0.0345170000     0.0209540000    -1.4608240000
    7      C       0.9343830000     0.8340540000    -2.0816240000
    8      S       1.8878830000     1.6384540000    -0.9404240000
    9      C       1.1322830000     0.9940540000    -3.5347240000
   10      O       0.4190830000     0.3917540000    -4.3250240000
   11      O       2.1173830000     1.8163540000    -3.9791240000
   12      F      -0.8854170000    -0.6982460000    -2.2210240000
   13      C       2.3986830000     2.0391540000    -5.3097240000
   14      H       3.2454830000     2.7489540000    -5.3450240000
   15      H       1.5276830000     2.4714540000    -5.8503240000
   16      H       2.6776830000     1.0998540000    -5.8366240000
   17      C      -0.6804170000    -1.9541460000     1.0252760000
   18      H      -0.5012170000    -1.9631460000    -0.0397240000
   19      H       0.1427830000    -2.6380460000     1.1700760000
   20      H      -1.6116170000    -2.4785460000     0.8691760000
   21      H       1.9208830000     1.6622540000     2.3467760000
 ----------------------------------------------------------------

   11   -1389.2001482859      7.63e-07  Convergence criterion met
 Total energy in the final basis set =    -1389.2001482859
        RIMP2         total energy =     -1391.7222986189 a.u.

                    Orbital Energies (a.u.)
 --------------------------------------------------------------

 Alpha MOs
 -- Occupied --
-92.0041 -91.9985 -26.3347 -20.6138 -20.5533 -11.4129 -11.3745 -11.3053
-11.3035 -11.2935 -11.2895 -11.2802 -11.2768 -11.2169  -9.0034  -9.0023
 -6.6840  -6.6835  -6.6831  -6.6830  -6.6828  -6.6816  -1.6480  -1.4738
 -1.3696  -1.2336  -1.1510  -1.0709  -1.0293  -1.0017  -0.9711  -0.9068
 -0.8665  -0.7966  -0.7883  -0.7712  -0.7288  -0.7169  -0.6976  -0.6800
 -0.6768  -0.6727  -0.6085  -0.6049  -0.6020  -0.5896  -0.5829  -0.5632
 -0.5342  -0.5275  -0.5095  -0.4852  -0.4684  -0.4634  -0.4620  -0.4418
 -0.3899  -0.3418  -0.2897

          Ground-State Mulliken Net Atomic Charges

     Atom                 Charge (a.u.)
  ----------------------------------------
      1 C                    -0.086824
      2 S                     0.103195
      3 C                    -0.195772
      4 C                    -0.032453
      5 C                    -0.023316
      6 C                     0.338110
      7 C                    -0.131486
      8 S                     0.055285
      9 C                     0.456308
     10 O                    -0.445140
     11 O                    -0.297123
     12 F                    -0.211180
     13 C                    -0.054565
     14 H                     0.117045
     15 H                     0.084988
     16 H                     0.084746
     17 C                    -0.354776
     18 H                     0.112493
     19 H                     0.148624
     20 H                     0.118182
     21 H                     0.213661
  ----------------------------------------
  Sum of atomic charges =     0.000000

                    Cartesian Multipole Moments
 -----------------------------------------------------------------
    Charge (ESU x 10^10)
                -0.0000
    Dipole Moment (Debye)
         X       3.5997      Y       1.4808      Z       2.4063
       Tot       4.5762
    Quadrupole Moments (Debye-Ang)
        XX     -90.5553     XY       5.1081     YY     -89.2342
        XZ      -6.8860     YZ      -6.3955     ZZ     -95.2478

 Total job time:  57.09s(wall), 2007.70s(cpu)
        *  Thank you very much for using Q-Chem.  Have a nice day.  *
