 Q-Chem 5.4, Q-Chem, Inc., Pleasanton, CA (2021)
 Q-Chem 5.4.0 for Intel X86 EM64T Linux

User input:
--------------------------------------------------------------
$molecule
0 1
C	-0.767600	-0.392188	1.025038
S	0.012400	0.055612	2.535738
C	1.376200	0.844212	1.752638
C	0.018900	0.061912	-0.039662
C	1.220900	0.757612	0.346738
C	-0.037700	0.027312	-1.461062
C	1.057600	0.659812	-2.081862
S	2.136300	1.286512	-0.940662
C	1.280300	0.783012	-3.534962
O	0.473400	0.313712	-4.325262
O	2.393200	1.421812	-3.979362
F	-1.000600	-0.533088	-2.221262
C	2.708900	1.592412	-5.309962
H	3.666100	2.144312	-5.345262
H	1.926200	2.169312	-5.850562
H	2.820600	0.618912	-5.836862
C	-0.767600	-1.827388	1.025038
H	-1.144900	-1.836388	0.013138
H	0.017700	-2.511288	0.738838
H	-1.652000	-2.351788	1.355438
H	2.173000	1.304112	2.346538
$end

$rem
JOBTYPE		SP
EXCHANGE	HF
CORRELATION	pRIMP2
BASIS		cc-pvtz
METHOD		rimp2
AUX_BASIS	rimp2-cc-pvtz
SOLVENT_METHOD	PCM
PURECART	11111
SYMMETRY	false
MEM_TOTAL	110000
SCF_CONVERGENCE = 6
THRESH=10
GUI = 2
$end

$solvent
dielectric 4.90
$end
--------------------------------------------------------------

             Standard Nuclear Orientation (Angstroms)
    I     Atom           X                Y                Z
 ----------------------------------------------------------------
    1      C      -0.7676000000    -0.3921880000     1.0250380000
    2      S       0.0124000000     0.0556120000     2.5357380000
    3      C       1.3762000000     0.8442120000     1.7526380000
    4      C       0.0189000000     0.0619120000    -0.0396620000
    5      C       1.2209000000     0.7576120000     0.3467380000
    6      C      -0.0377000000     0.0273120000    -1.4610620000
    7      C       1.0576000000     0.6598120000    -2.0818620000
    8      S       2.1363000000     1.2865120000    -0.9406620000
    9      C       1.2803000000     0.7830120000    -3.5349620000
   10      O       0.4734000000     0.3137120000    -4.3252620000
   11      O       2.3932000000     1.4218120000    -3.9793620000
   12      F      -1.0006000000    -0.5330880000    -2.2212620000
   13      C       2.7089000000     1.5924120000    -5.3099620000
   14      H       3.6661000000     2.1443120000    -5.3452620000
   15      H       1.9262000000     2.1693120000    -5.8505620000
   16      H       2.8206000000     0.6189120000    -5.8368620000
   17      C      -0.7676000000    -1.8273880000     1.0250380000
   18      H      -1.1449000000    -1.8363880000     0.0131380000
   19      H       0.0177000000    -2.5112880000     0.7388380000
   20      H      -1.6520000000    -2.3517880000     1.3554380000
   21      H       2.1730000000     1.3041120000     2.3465380000
 ----------------------------------------------------------------

   11   -1389.1848009339      8.57e-07  Convergence criterion met
 Total energy in the final basis set =    -1389.1848009339
        RIMP2         total energy =     -1391.7090284221 a.u.

                    Orbital Energies (a.u.)
 --------------------------------------------------------------

 Alpha MOs
 -- Occupied --
-92.0022 -92.0014 -26.3342 -20.6149 -20.5554 -11.4147 -11.3743 -11.3167
-11.3079 -11.2953 -11.2900 -11.2856 -11.2612 -11.2145  -9.0058  -9.0013
 -6.6869  -6.6863  -6.6851  -6.6818  -6.6809  -6.6808  -1.6475  -1.4751
 -1.3711  -1.2363  -1.1533  -1.0720  -1.0306  -1.0010  -0.9722  -0.9059
 -0.8678  -0.7974  -0.7892  -0.7730  -0.7300  -0.7165  -0.6985  -0.6810
 -0.6764  -0.6744  -0.6101  -0.6060  -0.6048  -0.5914  -0.5733  -0.5630
 -0.5355  -0.5266  -0.5125  -0.4862  -0.4746  -0.4646  -0.4635  -0.4250
 -0.3886  -0.3421  -0.2936

          Ground-State Mulliken Net Atomic Charges

     Atom                 Charge (a.u.)
  ----------------------------------------
      1 C                    -0.136495
      2 S                     0.105261
      3 C                    -0.161641
      4 C                    -0.018343
      5 C                    -0.035425
      6 C                     0.360289
      7 C                    -0.128449
      8 S                     0.063782
      9 C                     0.456856
     10 O                    -0.441368
     11 O                    -0.296646
     12 F                    -0.211379
     13 C                    -0.054714
     14 H                     0.117311
     15 H                     0.085498
     16 H                     0.085113
     17 C                    -0.369603
     18 H                     0.100341
     19 H                     0.139020
     20 H                     0.124865
     21 H                     0.215726
  ----------------------------------------
  Sum of atomic charges =     0.000000

                    Cartesian Multipole Moments
 -----------------------------------------------------------------
    Charge (ESU x 10^10)
                -0.0000
    Dipole Moment (Debye)
         X       4.4330      Y       1.3726      Z       2.1947
       Tot       5.1335
    Quadrupole Moments (Debye-Ang)
        XX     -88.4287     XY       5.6137     YY     -91.2634
        XZ      -8.0845     YZ      -4.8212     ZZ     -94.3205

 Total job time:  63.34s(wall), 2552.73s(cpu)
        *  Thank you very much for using Q-Chem.  Have a nice day.  *
