 Q-Chem 5.4, Q-Chem, Inc., Pleasanton, CA (2021)
 Q-Chem 5.4.0 for Intel X86 EM64T Linux

User input:
--------------------------------------------------------------
$molecule
0 1
C	-0.154667	-0.823218	1.025038
S	0.003733	0.062182	2.535738
C	0.276233	1.613782	1.752638
C	0.003033	0.071182	-0.039662
C	0.242733	1.439182	0.346738
C	-0.006867	0.005582	-1.461062
C	0.212633	1.251182	-2.081862
S	0.425933	2.480282	-0.940662
C	0.261433	1.500982	-3.534962
O	0.102233	0.581182	-4.325262
O	0.487433	2.764082	-3.979362
F	-0.196467	-1.092318	-2.221262
C	0.559733	3.115582	-5.309962
H	0.752133	4.203682	-5.345262
H	-0.385367	2.886882	-5.850562
H	1.377233	2.575482	-5.836862
C	-0.154667	-2.258418	1.025038
H	-0.531967	-2.267418	0.013138
H	0.630633	-2.942318	0.738838
H	-1.039067	-2.782818	1.355438
H	0.436033	2.519782	2.346538
$end

$rem
JOBTYPE		SP
EXCHANGE	HF
CORRELATION	pRIMP2
BASIS		cc-pvtz
METHOD		rimp2
AUX_BASIS	rimp2-cc-pvtz
SOLVENT_METHOD	PCM
PURECART	11111
SYMMETRY	false
MEM_TOTAL	110000
SCF_CONVERGENCE = 6
THRESH=10
GUI = 2
$end

$solvent
dielectric 4.90
$end
--------------------------------------------------------------

             Standard Nuclear Orientation (Angstroms)
    I     Atom           X                Y                Z
 ----------------------------------------------------------------
    1      C      -0.1546670000    -0.8232180000     1.0250380000
    2      S       0.0037330000     0.0621820000     2.5357380000
    3      C       0.2762330000     1.6137820000     1.7526380000
    4      C       0.0030330000     0.0711820000    -0.0396620000
    5      C       0.2427330000     1.4391820000     0.3467380000
    6      C      -0.0068670000     0.0055820000    -1.4610620000
    7      C       0.2126330000     1.2511820000    -2.0818620000
    8      S       0.4259330000     2.4802820000    -0.9406620000
    9      C       0.2614330000     1.5009820000    -3.5349620000
   10      O       0.1022330000     0.5811820000    -4.3252620000
   11      O       0.4874330000     2.7640820000    -3.9793620000
   12      F      -0.1964670000    -1.0923180000    -2.2212620000
   13      C       0.5597330000     3.1155820000    -5.3099620000
   14      H       0.7521330000     4.2036820000    -5.3452620000
   15      H      -0.3853670000     2.8868820000    -5.8505620000
   16      H       1.3772330000     2.5754820000    -5.8368620000
   17      C      -0.1546670000    -2.2584180000     1.0250380000
   18      H      -0.5319670000    -2.2674180000     0.0131380000
   19      H       0.6306330000    -2.9423180000     0.7388380000
   20      H      -1.0390670000    -2.7828180000     1.3554380000
   21      H       0.4360330000     2.5197820000     2.3465380000
 ----------------------------------------------------------------

   11   -1389.2528970447      5.02e-07  Convergence criterion met
 Total energy in the final basis set =    -1389.2528970447
        RIMP2         total energy =     -1391.7604141288 a.u.

                    Orbital Energies (a.u.)
 --------------------------------------------------------------

 Alpha MOs
 -- Occupied --
-92.0040 -91.9909 -26.3354 -20.6109 -20.5481 -11.4085 -11.3766 -11.3082
-11.2929 -11.2917 -11.2880 -11.2838 -11.2736 -11.2277  -9.0029  -8.9950
 -6.6837  -6.6830  -6.6827  -6.6763  -6.6756  -6.6743  -1.6486  -1.4706
 -1.3657  -1.2280  -1.1451  -1.0677  -1.0271  -1.0063  -0.9686  -0.9116
 -0.8638  -0.7959  -0.7864  -0.7671  -0.7267  -0.7164  -0.6974  -0.6785
 -0.6776  -0.6692  -0.6086  -0.6047  -0.5972  -0.5883  -0.5775  -0.5695
 -0.5445  -0.5247  -0.5052  -0.4814  -0.4748  -0.4622  -0.4603  -0.4531
 -0.3963  -0.3453  -0.2819

          Ground-State Mulliken Net Atomic Charges

     Atom                 Charge (a.u.)
  ----------------------------------------
      1 C                     0.039424
      2 S                     0.082423
      3 C                    -0.252338
      4 C                    -0.101807
      5 C                    -0.010964
      6 C                     0.381621
      7 C                    -0.152832
      8 S                     0.030704
      9 C                     0.458480
     10 O                    -0.454177
     11 O                    -0.298133
     12 F                    -0.214146
     13 C                    -0.054936
     14 H                     0.116402
     15 H                     0.084035
     16 H                     0.084003
     17 C                    -0.363724
     18 H                     0.116857
     19 H                     0.152802
     20 H                     0.145835
     21 H                     0.210471
  ----------------------------------------
  Sum of atomic charges =     0.000000

                    Cartesian Multipole Moments
 -----------------------------------------------------------------
    Charge (ESU x 10^10)
                -0.0000
    Dipole Moment (Debye)
         X       0.2550      Y       1.1008      Z       2.8143
       Tot       3.0326
    Quadrupole Moments (Debye-Ang)
        XX     -95.5665     XY       2.3542     YY     -82.4085
        XZ      -2.2674     YZ     -10.4435     ZZ     -97.5482

 Total job time:  53.21s(wall), 1939.88s(cpu)
        *  Thank you very much for using Q-Chem.  Have a nice day.  *
