 Q-Chem 5.4, Q-Chem, Inc., Pleasanton, CA (2021)
 Q-Chem 5.4.0 for Intel X86 EM64T Linux

User input:
--------------------------------------------------------------
$molecule
0 1
C	-0.374119	-0.753180	1.023873
S	0.007981	0.061020	2.534573
C	0.672781	1.489220	1.751473
C	0.009681	0.069920	-0.040827
C	0.595281	1.329320	0.345573
C	-0.016919	0.009120	-1.462227
C	0.517581	1.155520	-2.083027
S	1.041781	2.287520	-0.941827
C	0.629381	1.384120	-3.536127
O	0.237481	0.536820	-4.326427
O	1.174581	2.545720	-3.980527
F	-0.484219	-1.002280	-2.222427
C	1.335381	2.866520	-5.311127
H	1.802881	3.867720	-5.346427
H	0.363281	2.890220	-5.851727
H	1.985281	2.133220	-5.838027
C	-0.374119	-2.188380	1.023873
H	-1.313619	-2.197380	0.491273
H	0.043481	-2.872280	0.299773
H	-0.839219	-2.712780	1.845473
H	1.061681	2.323020	2.345373
$end

$rem
JOBTYPE		SP
EXCHANGE	HF
CORRELATION	pRIMP2
BASIS		cc-pvtz
METHOD		rimp2
AUX_BASIS	rimp2-cc-pvtz
SOLVENT_METHOD	PCM
PURECART	11111
SYMMETRY	false
MEM_TOTAL	110000
SCF_CONVERGENCE = 6
THRESH=10
GUI = 2
$end

$solvent
dielectric 4.90
$end
--------------------------------------------------------------

             Standard Nuclear Orientation (Angstroms)
    I     Atom           X                Y                Z
 ----------------------------------------------------------------
    1      C      -0.3741190000    -0.7531800000     1.0238730000
    2      S       0.0079810000     0.0610200000     2.5345730000
    3      C       0.6727810000     1.4892200000     1.7514730000
    4      C       0.0096810000     0.0699200000    -0.0408270000
    5      C       0.5952810000     1.3293200000     0.3455730000
    6      C      -0.0169190000     0.0091200000    -1.4622270000
    7      C       0.5175810000     1.1555200000    -2.0830270000
    8      S       1.0417810000     2.2875200000    -0.9418270000
    9      C       0.6293810000     1.3841200000    -3.5361270000
   10      O       0.2374810000     0.5368200000    -4.3264270000
   11      O       1.1745810000     2.5457200000    -3.9805270000
   12      F      -0.4842190000    -1.0022800000    -2.2224270000
   13      C       1.3353810000     2.8665200000    -5.3111270000
   14      H       1.8028810000     3.8677200000    -5.3464270000
   15      H       0.3632810000     2.8902200000    -5.8517270000
   16      H       1.9852810000     2.1332200000    -5.8380270000
   17      C      -0.3741190000    -2.1883800000     1.0238730000
   18      H      -1.3136190000    -2.1973800000     0.4912730000
   19      H       0.0434810000    -2.8722800000     0.2997730000
   20      H      -0.8392190000    -2.7127800000     1.8454730000
   21      H       1.0616810000     2.3230200000     2.3453730000
 ----------------------------------------------------------------

   11   -1389.2411991943      5.02e-07  Convergence criterion met
 Total energy in the final basis set =    -1389.2411991943
        RIMP2         total energy =     -1391.7501270049 a.u.

                    Orbital Energies (a.u.)
 --------------------------------------------------------------

 Alpha MOs
 -- Occupied --
-92.0051 -91.9901 -26.3344 -20.6101 -20.5467 -11.4073 -11.3760 -11.3092
-11.2921 -11.2904 -11.2876 -11.2815 -11.2705 -11.2292  -9.0040  -8.9943
 -6.6848  -6.6841  -6.6837  -6.6756  -6.6749  -6.6736  -1.6474  -1.4697
 -1.3646  -1.2273  -1.1462  -1.0669  -1.0270  -1.0057  -0.9680  -0.9111
 -0.8632  -0.7956  -0.7851  -0.7666  -0.7260  -0.7153  -0.6963  -0.6778
 -0.6769  -0.6681  -0.6081  -0.6038  -0.5952  -0.5876  -0.5794  -0.5614
 -0.5410  -0.5235  -0.5107  -0.4916  -0.4798  -0.4605  -0.4582  -0.4535
 -0.3891  -0.3458  -0.2752

          Ground-State Mulliken Net Atomic Charges

     Atom                 Charge (a.u.)
  ----------------------------------------
      1 C                     0.031515
      2 S                     0.092234
      3 C                    -0.258641
      4 C                    -0.103925
      5 C                    -0.009539
      6 C                     0.371413
      7 C                    -0.162164
      8 S                     0.031274
      9 C                     0.457535
     10 O                    -0.456032
     11 O                    -0.298668
     12 F                    -0.212174
     13 C                    -0.054764
     14 H                     0.116191
     15 H                     0.083779
     16 H                     0.083730
     17 C                    -0.375034
     18 H                     0.139110
     19 H                     0.169806
     20 H                     0.145145
     21 H                     0.209209
  ----------------------------------------
  Sum of atomic charges =     0.000000

                    Cartesian Multipole Moments
 -----------------------------------------------------------------
    Charge (ESU x 10^10)
                -0.0000
    Dipole Moment (Debye)
         X       0.5125      Y       0.6269      Z       3.2423
       Tot       3.3419
    Quadrupole Moments (Debye-Ang)
        XX     -94.3307     XY       5.4395     YY     -83.9562
        XZ      -5.3356     YZ     -10.3271     ZZ     -96.9908

 Total job time:  56.42s(wall), 2045.75s(cpu)
        *  Thank you very much for using Q-Chem.  Have a nice day.  *
