 Q-Chem 5.4, Q-Chem, Inc., Pleasanton, CA (2021)
 Q-Chem 5.4.0 for Intel X86 EM64T Linux

User input:
--------------------------------------------------------------
$molecule
0 1
C	-0.077414	-0.833466	1.021216
S	0.003186	0.062334	2.531916
C	0.139386	1.631734	1.748816
C	0.001686	0.071334	-0.043484
C	0.121286	1.454934	0.342916
C	-0.002414	0.005034	-1.464884
C	0.107686	1.265034	-2.085684
S	0.213086	2.508134	-0.944484
C	0.134486	1.518134	-3.538784
O	0.056086	0.587934	-4.329084
O	0.249586	2.796134	-3.983184
F	-0.095614	-1.105166	-2.225084
C	0.290986	3.152634	-5.313784
H	0.387886	4.253334	-5.349084
H	-0.630514	2.842434	-5.854384
H	1.152486	2.685834	-5.840684
C	-0.077414	-2.268666	1.021216
H	-0.899214	-2.277666	1.721816
H	-0.615014	-2.952566	0.381116
H	0.535586	-2.793066	1.739316
H	0.219686	2.548234	2.342716
$end

$rem
JOBTYPE		SP
EXCHANGE	HF
CORRELATION	pRIMP2
BASIS		cc-pvtz
METHOD		rimp2
AUX_BASIS	rimp2-cc-pvtz
SOLVENT_METHOD	PCM
PURECART	11111
SYMMETRY	false
MEM_TOTAL	110000
SCF_CONVERGENCE = 6
THRESH=10
GUI = 2
$end

$solvent
dielectric 4.90
$end
--------------------------------------------------------------

             Standard Nuclear Orientation (Angstroms)
    I     Atom           X                Y                Z
 ----------------------------------------------------------------
    1      C      -0.0774140000    -0.8334660000     1.0212160000
    2      S       0.0031860000     0.0623340000     2.5319160000
    3      C       0.1393860000     1.6317340000     1.7488160000
    4      C       0.0016860000     0.0713340000    -0.0434840000
    5      C       0.1212860000     1.4549340000     0.3429160000
    6      C      -0.0024140000     0.0050340000    -1.4648840000
    7      C       0.1076860000     1.2650340000    -2.0856840000
    8      S       0.2130860000     2.5081340000    -0.9444840000
    9      C       0.1344860000     1.5181340000    -3.5387840000
   10      O       0.0560860000     0.5879340000    -4.3290840000
   11      O       0.2495860000     2.7961340000    -3.9831840000
   12      F      -0.0956140000    -1.1051660000    -2.2250840000
   13      C       0.2909860000     3.1526340000    -5.3137840000
   14      H       0.3878860000     4.2533340000    -5.3490840000
   15      H      -0.6305140000     2.8424340000    -5.8543840000
   16      H       1.1524860000     2.6858340000    -5.8406840000
   17      C      -0.0774140000    -2.2686660000     1.0212160000
   18      H      -0.8992140000    -2.2776660000     1.7218160000
   19      H      -0.6150140000    -2.9525660000     0.3811160000
   20      H       0.5355860000    -2.7930660000     1.7393160000
   21      H       0.2196860000     2.5482340000     2.3427160000
 ----------------------------------------------------------------

   11   -1389.2539441163      4.40e-07  Convergence criterion met
 Total energy in the final basis set =    -1389.2539441163
        RIMP2         total energy =     -1391.7572068444 a.u.

                    Orbital Energies (a.u.)
 --------------------------------------------------------------

 Alpha MOs
 -- Occupied --
-92.0073 -91.9879 -26.3333 -20.6095 -20.5457 -11.4064 -11.3759 -11.3154
-11.2909 -11.2884 -11.2872 -11.2787 -11.2672 -11.2323  -9.0061  -8.9922
 -6.6869  -6.6864  -6.6858  -6.6735  -6.6728  -6.6715  -1.6463  -1.4690
 -1.3638  -1.2260  -1.1467  -1.0659  -1.0286  -1.0059  -0.9677  -0.9108
 -0.8631  -0.7962  -0.7839  -0.7664  -0.7258  -0.7140  -0.6957  -0.6769
 -0.6763  -0.6671  -0.6100  -0.6032  -0.5956  -0.5862  -0.5802  -0.5622
 -0.5401  -0.5251  -0.5108  -0.4890  -0.4789  -0.4619  -0.4587  -0.4567
 -0.3924  -0.3467  -0.2755

          Ground-State Mulliken Net Atomic Charges

     Atom                 Charge (a.u.)
  ----------------------------------------
      1 C                     0.028143
      2 S                     0.078352
      3 C                    -0.263334
      4 C                    -0.077323
      5 C                    -0.016601
      6 C                     0.394740
      7 C                    -0.167748
      8 S                     0.022685
      9 C                     0.459675
     10 O                    -0.457539
     11 O                    -0.298749
     12 F                    -0.213529
     13 C                    -0.055089
     14 H                     0.116016
     15 H                     0.083699
     16 H                     0.083671
     17 C                    -0.374895
     18 H                     0.132418
     19 H                     0.168132
     20 H                     0.146123
     21 H                     0.211151
  ----------------------------------------
  Sum of atomic charges =     0.000000

                    Cartesian Multipole Moments
 -----------------------------------------------------------------
    Charge (ESU x 10^10)
                -0.0000
    Dipole Moment (Debye)
         X      -0.3332      Y       0.5341      Z       4.1374
       Tot       4.1851
    Quadrupole Moments (Debye-Ang)
        XX     -96.1538     XY       2.3706     YY     -82.0419
        XZ      -1.2185     YZ     -13.2810     ZZ     -95.7179

 Total job time:  54.43s(wall), 1929.30s(cpu)
        *  Thank you very much for using Q-Chem.  Have a nice day.  *
