 Q-Chem 5.4, Q-Chem, Inc., Pleasanton, CA (2021)
 Q-Chem 5.4.0 for Intel X86 EM64T Linux

User input:
--------------------------------------------------------------
$molecule
0 1
C	-0.153354	-0.823218	1.023076
S	0.005046	0.062182	2.533776
C	0.277546	1.613782	1.750676
C	0.004346	0.071182	-0.041624
C	0.244046	1.439182	0.344776
C	-0.005554	0.005582	-1.463024
C	0.213946	1.251182	-2.083824
S	0.427246	2.480282	-0.942624
C	0.262746	1.500982	-3.536924
O	0.103546	0.581182	-4.327224
O	0.488746	2.764082	-3.981324
F	-0.195154	-1.092318	-2.223224
C	0.561046	3.115582	-5.311924
H	0.753446	4.203682	-5.347224
H	-0.384054	2.886882	-5.852524
H	1.378546	2.575482	-5.838824
C	-0.153354	-2.258418	1.023076
H	-1.218354	-2.267418	0.843876
H	-0.008554	-2.942318	0.199876
H	-0.309454	-2.782818	1.954276
H	0.437346	2.519782	2.344576
$end

$rem
JOBTYPE		SP
EXCHANGE	HF
CORRELATION	pRIMP2
BASIS		cc-pvtz
METHOD		rimp2
AUX_BASIS	rimp2-cc-pvtz
SOLVENT_METHOD	PCM
PURECART	11111
SYMMETRY	false
MEM_TOTAL	110000
SCF_CONVERGENCE = 6
THRESH=10
GUI = 2
$end

$solvent
dielectric 4.90
$end
--------------------------------------------------------------

             Standard Nuclear Orientation (Angstroms)
    I     Atom           X                Y                Z
 ----------------------------------------------------------------
    1      C      -0.1533540000    -0.8232180000     1.0230760000
    2      S       0.0050460000     0.0621820000     2.5337760000
    3      C       0.2775460000     1.6137820000     1.7506760000
    4      C       0.0043460000     0.0711820000    -0.0416240000
    5      C       0.2440460000     1.4391820000     0.3447760000
    6      C      -0.0055540000     0.0055820000    -1.4630240000
    7      C       0.2139460000     1.2511820000    -2.0838240000
    8      S       0.4272460000     2.4802820000    -0.9426240000
    9      C       0.2627460000     1.5009820000    -3.5369240000
   10      O       0.1035460000     0.5811820000    -4.3272240000
   11      O       0.4887460000     2.7640820000    -3.9813240000
   12      F      -0.1951540000    -1.0923180000    -2.2232240000
   13      C       0.5610460000     3.1155820000    -5.3119240000
   14      H       0.7534460000     4.2036820000    -5.3472240000
   15      H      -0.3840540000     2.8868820000    -5.8525240000
   16      H       1.3785460000     2.5754820000    -5.8388240000
   17      C      -0.1533540000    -2.2584180000     1.0230760000
   18      H      -1.2183540000    -2.2674180000     0.8438760000
   19      H      -0.0085540000    -2.9423180000     0.1998760000
   20      H      -0.3094540000    -2.7828180000     1.9542760000
   21      H       0.4373460000     2.5197820000     2.3445760000
 ----------------------------------------------------------------

   11   -1389.2538107270      4.30e-07  Convergence criterion met
 Total energy in the final basis set =    -1389.2538107270
        RIMP2         total energy =     -1391.7566742853 a.u.

                    Orbital Energies (a.u.)
 --------------------------------------------------------------

 Alpha MOs
 -- Occupied --
-92.0069 -91.9876 -26.3344 -20.6089 -20.5445 -11.4055 -11.3765 -11.3200
-11.2914 -11.2869 -11.2862 -11.2741 -11.2662 -11.2353  -9.0056  -8.9919
 -6.6865  -6.6858  -6.6853  -6.6732  -6.6725  -6.6712  -1.6473  -1.4683
 -1.3630  -1.2258  -1.1464  -1.0673  -1.0269  -1.0065  -0.9672  -0.9116
 -0.8623  -0.7957  -0.7842  -0.7655  -0.7256  -0.7150  -0.6967  -0.6780
 -0.6759  -0.6668  -0.6096  -0.6025  -0.5918  -0.5873  -0.5852  -0.5591
 -0.5364  -0.5233  -0.5182  -0.4948  -0.4784  -0.4614  -0.4581  -0.4561
 -0.3894  -0.3467  -0.2719

          Ground-State Mulliken Net Atomic Charges

     Atom                 Charge (a.u.)
  ----------------------------------------
      1 C                     0.049827
      2 S                     0.088906
      3 C                    -0.281854
      4 C                    -0.107113
      5 C                    -0.005166
      6 C                     0.391151
      7 C                    -0.172106
      8 S                     0.023449
      9 C                     0.459932
     10 O                    -0.459788
     11 O                    -0.299156
     12 F                    -0.213910
     13 C                    -0.054960
     14 H                     0.115873
     15 H                     0.083388
     16 H                     0.083444
     17 C                    -0.380100
     18 H                     0.148681
     19 H                     0.173003
     20 H                     0.147162
     21 H                     0.209340
  ----------------------------------------
  Sum of atomic charges =     0.000000

                    Cartesian Multipole Moments
 -----------------------------------------------------------------
    Charge (ESU x 10^10)
                -0.0000
    Dipole Moment (Debye)
         X      -0.3914      Y       0.1215      Z       3.6916
       Tot       3.7143
    Quadrupole Moments (Debye-Ang)
        XX     -96.0912     XY       3.6174     YY     -82.0566
        XZ      -2.7852     YZ     -12.0018     ZZ     -97.1642

 Total job time:  57.52s(wall), 2161.04s(cpu)
        *  Thank you very much for using Q-Chem.  Have a nice day.  *
