 Q-Chem 5.4, Q-Chem, Inc., Pleasanton, CA (2021)
 Q-Chem 5.4.0 for Intel X86 EM64T Linux

User input:
--------------------------------------------------------------
$molecule
0 1
C	-0.232566	-0.806326	1.021016
S	0.002334	0.061874	2.531716
C	0.409034	1.583774	1.748616
C	0.002434	0.070974	-0.043684
C	0.360434	1.412774	0.342716
C	-0.013066	0.006374	-1.465084
C	0.314134	1.228174	-2.085884
S	0.633734	2.434074	-0.944684
C	0.384534	1.472774	-3.538984
O	0.145734	0.570274	-4.329284
O	0.719734	2.711374	-3.983384
F	-0.297666	-1.070726	-2.225284
C	0.822434	3.055274	-5.313984
H	1.108934	4.122374	-5.349284
H	-0.138966	2.909774	-5.854584
H	1.589734	2.445874	-5.840884
C	-0.232566	-2.241526	1.021016
H	0.314734	-2.250526	1.952016
H	-0.956266	-2.925426	1.439216
H	0.581034	-2.765926	0.542016
H	0.647234	2.472474	2.342516
$end

$rem
JOBTYPE		SP
EXCHANGE	HF
CORRELATION	pRIMP2
BASIS		cc-pvtz
METHOD		rimp2
AUX_BASIS	rimp2-cc-pvtz
SOLVENT_METHOD	PCM
PURECART	11111
SYMMETRY	false
MEM_TOTAL	110000
SCF_CONVERGENCE = 6
THRESH=10
GUI = 2
$end

$solvent
dielectric 4.90
$end
--------------------------------------------------------------

             Standard Nuclear Orientation (Angstroms)
    I     Atom           X                Y                Z
 ----------------------------------------------------------------
    1      C      -0.2325660000    -0.8063260000     1.0210160000
    2      S       0.0023340000     0.0618740000     2.5317160000
    3      C       0.4090340000     1.5837740000     1.7486160000
    4      C       0.0024340000     0.0709740000    -0.0436840000
    5      C       0.3604340000     1.4127740000     0.3427160000
    6      C      -0.0130660000     0.0063740000    -1.4650840000
    7      C       0.3141340000     1.2281740000    -2.0858840000
    8      S       0.6337340000     2.4340740000    -0.9446840000
    9      C       0.3845340000     1.4727740000    -3.5389840000
   10      O       0.1457340000     0.5702740000    -4.3292840000
   11      O       0.7197340000     2.7113740000    -3.9833840000
   12      F      -0.2976660000    -1.0707260000    -2.2252840000
   13      C       0.8224340000     3.0552740000    -5.3139840000
   14      H       1.1089340000     4.1223740000    -5.3492840000
   15      H      -0.1389660000     2.9097740000    -5.8545840000
   16      H       1.5897340000     2.4458740000    -5.8408840000
   17      C      -0.2325660000    -2.2415260000     1.0210160000
   18      H       0.3147340000    -2.2505260000     1.9520160000
   19      H      -0.9562660000    -2.9254260000     1.4392160000
   20      H       0.5810340000    -2.7659260000     0.5420160000
   21      H       0.6472340000     2.4724740000     2.3425160000
 ----------------------------------------------------------------

   11   -1389.2485010295      4.73e-07  Convergence criterion met
 Total energy in the final basis set =    -1389.2485010295
        RIMP2         total energy =     -1391.7545563413 a.u.

                    Orbital Energies (a.u.)
 --------------------------------------------------------------

 Alpha MOs
 -- Occupied --
-92.0067 -91.9894 -26.3332 -20.6103 -20.5471 -11.4076 -11.3755 -11.3093
-11.2913 -11.2911 -11.2876 -11.2831 -11.2698 -11.2289  -9.0057  -8.9936
 -6.6865  -6.6859  -6.6854  -6.6749  -6.6743  -6.6729  -1.6461  -1.4699
 -1.3649  -1.2270  -1.1474  -1.0655  -1.0294  -1.0051  -0.9684  -0.9095
 -0.8642  -0.7966  -0.7842  -0.7677  -0.7263  -0.7141  -0.6956  -0.6770
 -0.6762  -0.6678  -0.6092  -0.6041  -0.5982  -0.5871  -0.5748  -0.5661
 -0.5435  -0.5248  -0.5069  -0.4838  -0.4791  -0.4608  -0.4590  -0.4563
 -0.3950  -0.3458  -0.2794

          Ground-State Mulliken Net Atomic Charges

     Atom                 Charge (a.u.)
  ----------------------------------------
      1 C                     0.049018
      2 S                     0.081771
      3 C                    -0.255660
      4 C                    -0.100025
      5 C                    -0.012114
      6 C                     0.388731
      7 C                    -0.166694
      8 S                     0.028041
      9 C                     0.459159
     10 O                    -0.454665
     11 O                    -0.298380
     12 F                    -0.212370
     13 C                    -0.054874
     14 H                     0.116198
     15 H                     0.084019
     16 H                     0.083808
     17 C                    -0.374577
     18 H                     0.125766
     19 H                     0.154903
     20 H                     0.146546
     21 H                     0.211398
  ----------------------------------------
  Sum of atomic charges =     0.000000

                    Cartesian Multipole Moments
 -----------------------------------------------------------------
    Charge (ESU x 10^10)
                -0.0000
    Dipole Moment (Debye)
         X       1.0881      Y       0.9275      Z       4.0870
       Tot       4.3299
    Quadrupole Moments (Debye-Ang)
        XX     -95.6143     XY       1.7322     YY     -82.9966
        XZ      -2.7859     YZ     -13.1575     ZZ     -95.0811

 Total job time:  53.28s(wall), 1929.83s(cpu)
        *  Thank you very much for using Q-Chem.  Have a nice day.  *
