 Q-Chem 5.4, Q-Chem, Inc., Pleasanton, CA (2021)
 Q-Chem 5.4.0 for Intel X86 EM64T Linux

User input:
--------------------------------------------------------------
$molecule
0 1
C	-0.442514	-0.717327	1.023483
S	0.009086	0.060473	2.534183
C	0.795886	1.425273	1.751083
C	0.011586	0.069273	-0.041217
C	0.704686	1.272673	0.345183
C	-0.020214	0.010873	-1.462617
C	0.612086	1.106373	-2.083417
S	1.232986	2.188373	-0.942217
C	0.743386	1.324373	-3.536517
O	0.279186	0.514473	-4.326817
O	1.387786	2.434073	-3.980917
F	-0.573814	-0.955927	-2.222817
C	1.575986	2.739673	-5.311517
H	2.128986	3.696273	-5.346817
H	0.609686	2.847873	-5.852117
H	2.159386	1.952473	-5.838417
C	-0.442514	-2.152527	1.023483
H	-1.460214	-2.161527	0.662083
H	-0.157014	-2.836427	0.237883
H	-0.757914	-2.676927	1.913383
H	1.255886	2.221973	2.344983
$end

$rem
JOBTYPE		SP
EXCHANGE	HF
CORRELATION	pRIMP2
BASIS		cc-pvtz
METHOD		rimp2
AUX_BASIS	rimp2-cc-pvtz
SOLVENT_METHOD	PCM
PURECART	11111
SYMMETRY	false
MEM_TOTAL	110000
SCF_CONVERGENCE = 6
THRESH=10
GUI = 2
$end

$solvent
dielectric 4.90
$end
--------------------------------------------------------------

             Standard Nuclear Orientation (Angstroms)
    I     Atom           X                Y                Z
 ----------------------------------------------------------------
    1      C      -0.4425140000    -0.7173270000     1.0234830000
    2      S       0.0090860000     0.0604730000     2.5341830000
    3      C       0.7958860000     1.4252730000     1.7510830000
    4      C       0.0115860000     0.0692730000    -0.0412170000
    5      C       0.7046860000     1.2726730000     0.3451830000
    6      C      -0.0202140000     0.0108730000    -1.4626170000
    7      C       0.6120860000     1.1063730000    -2.0834170000
    8      S       1.2329860000     2.1883730000    -0.9422170000
    9      C       0.7433860000     1.3243730000    -3.5365170000
   10      O       0.2791860000     0.5144730000    -4.3268170000
   11      O       1.3877860000     2.4340730000    -3.9809170000
   12      F      -0.5738140000    -0.9559270000    -2.2228170000
   13      C       1.5759860000     2.7396730000    -5.3115170000
   14      H       2.1289860000     3.6962730000    -5.3468170000
   15      H       0.6096860000     2.8478730000    -5.8521170000
   16      H       2.1593860000     1.9524730000    -5.8384170000
   17      C      -0.4425140000    -2.1525270000     1.0234830000
   18      H      -1.4602140000    -2.1615270000     0.6620830000
   19      H      -0.1570140000    -2.8364270000     0.2378830000
   20      H      -0.7579140000    -2.6769270000     1.9133830000
   21      H       1.2558860000     2.2219730000     2.3449830000
 ----------------------------------------------------------------

   11   -1389.2339832592      5.19e-07  Convergence criterion met
 Total energy in the final basis set =    -1389.2339832592
        RIMP2         total energy =     -1391.7445034217 a.u.

                    Orbital Energies (a.u.)
 --------------------------------------------------------------

 Alpha MOs
 -- Occupied --
-92.0050 -91.9903 -26.3342 -20.6101 -20.5468 -11.4074 -11.3757 -11.3074
-11.2921 -11.2906 -11.2876 -11.2826 -11.2705 -11.2282  -9.0040  -8.9944
 -6.6848  -6.6840  -6.6836  -6.6757  -6.6750  -6.6737  -1.6472  -1.4697
 -1.3647  -1.2274  -1.1467  -1.0667  -1.0272  -1.0052  -0.9681  -0.9107
 -0.8634  -0.7958  -0.7850  -0.7669  -0.7260  -0.7152  -0.6958  -0.6774
 -0.6769  -0.6681  -0.6078  -0.6039  -0.5950  -0.5878  -0.5795  -0.5596
 -0.5387  -0.5230  -0.5137  -0.4937  -0.4799  -0.4604  -0.4581  -0.4523
 -0.3873  -0.3457  -0.2739

          Ground-State Mulliken Net Atomic Charges

     Atom                 Charge (a.u.)
  ----------------------------------------
      1 C                     0.023934
      2 S                     0.094626
      3 C                    -0.257154
      4 C                    -0.100737
      5 C                    -0.007781
      6 C                     0.368340
      7 C                    -0.161888
      8 S                     0.033133
      9 C                     0.457015
     10 O                    -0.455771
     11 O                    -0.298721
     12 F                    -0.211582
     13 C                    -0.054853
     14 H                     0.116222
     15 H                     0.083802
     16 H                     0.083781
     17 C                    -0.378162
     18 H                     0.141247
     19 H                     0.170154
     20 H                     0.144924
     21 H                     0.209470
  ----------------------------------------
  Sum of atomic charges =     0.000000

                    Cartesian Multipole Moments
 -----------------------------------------------------------------
    Charge (ESU x 10^10)
                -0.0000
    Dipole Moment (Debye)
         X       0.7035      Y       0.5804      Z       3.3517
       Tot       3.4736
    Quadrupole Moments (Debye-Ang)
        XX     -93.6781     XY       6.0612     YY     -84.7767
        XZ      -6.1146     YZ     -10.0901     ZZ     -96.6172

 Total job time:  53.44s(wall), 1954.37s(cpu)
        *  Thank you very much for using Q-Chem.  Have a nice day.  *
