 Q-Chem 5.4, Q-Chem, Inc., Pleasanton, CA (2021)
 Q-Chem 5.4.0 for Intel X86 EM64T Linux

User input:
--------------------------------------------------------------
$molecule
0 1
C	-0.306290	-0.782911	1.021016
S	0.003410	0.061489	2.531716
C	0.541210	1.542189	1.748616
C	0.004310	0.070589	-0.043684
C	0.477910	1.376089	0.342716
C	-0.016790	0.007589	-1.465084
C	0.415610	1.196189	-2.085884
S	0.839210	2.369589	-0.944684
C	0.507110	1.433689	-3.538984
O	0.190610	0.555489	-4.329284
O	0.949010	2.638389	-3.983384
F	-0.394190	-1.040711	-2.225284
C	1.081210	2.971989	-5.313984
H	1.459710	4.010189	-5.349284
H	0.110810	2.910889	-5.854584
H	1.792510	2.298089	-5.840884
C	-0.306290	-2.218111	1.021016
H	0.241010	-2.227111	1.952016
H	-1.029990	-2.902011	1.439216
H	0.507310	-2.742511	0.542016
H	0.855910	2.406689	2.342516
$end

$rem
JOBTYPE		SP
EXCHANGE	HF
CORRELATION	pRIMP2
BASIS		cc-pvtz
METHOD		rimp2
AUX_BASIS	rimp2-cc-pvtz
SOLVENT_METHOD	PCM
PURECART	11111
SYMMETRY	false
MEM_TOTAL	110000
SCF_CONVERGENCE = 6
THRESH=10
GUI = 2
$end

$solvent
dielectric 4.90
$end
--------------------------------------------------------------

             Standard Nuclear Orientation (Angstroms)
    I     Atom           X                Y                Z
 ----------------------------------------------------------------
    1      C      -0.3062900000    -0.7829110000     1.0210160000
    2      S       0.0034100000     0.0614890000     2.5317160000
    3      C       0.5412100000     1.5421890000     1.7486160000
    4      C       0.0043100000     0.0705890000    -0.0436840000
    5      C       0.4779100000     1.3760890000     0.3427160000
    6      C      -0.0167900000     0.0075890000    -1.4650840000
    7      C       0.4156100000     1.1961890000    -2.0858840000
    8      S       0.8392100000     2.3695890000    -0.9446840000
    9      C       0.5071100000     1.4336890000    -3.5389840000
   10      O       0.1906100000     0.5554890000    -4.3292840000
   11      O       0.9490100000     2.6383890000    -3.9833840000
   12      F      -0.3941900000    -1.0407110000    -2.2252840000
   13      C       1.0812100000     2.9719890000    -5.3139840000
   14      H       1.4597100000     4.0101890000    -5.3492840000
   15      H       0.1108100000     2.9108890000    -5.8545840000
   16      H       1.7925100000     2.2980890000    -5.8408840000
   17      C      -0.3062900000    -2.2181110000     1.0210160000
   18      H       0.2410100000    -2.2271110000     1.9520160000
   19      H      -1.0299900000    -2.9020110000     1.4392160000
   20      H       0.5073100000    -2.7425110000     0.5420160000
   21      H       0.8559100000     2.4066890000     2.3425160000
 ----------------------------------------------------------------

   11   -1389.2446260589      4.85e-07  Convergence criterion met
 Total energy in the final basis set =    -1389.2446260589
        RIMP2         total energy =     -1391.7517145835 a.u.

                    Orbital Energies (a.u.)
 --------------------------------------------------------------

 Alpha MOs
 -- Occupied --
-92.0061 -91.9897 -26.3331 -20.6105 -20.5475 -11.4079 -11.3754 -11.3077
-11.2920 -11.2912 -11.2877 -11.2843 -11.2705 -11.2280  -9.0052  -8.9940
 -6.6860  -6.6854  -6.6849  -6.6753  -6.6746  -6.6732  -1.6460  -1.4701
 -1.3651  -1.2274  -1.1479  -1.0655  -1.0296  -1.0047  -0.9685  -0.9089
 -0.8644  -0.7967  -0.7843  -0.7680  -0.7264  -0.7141  -0.6955  -0.6771
 -0.6761  -0.6681  -0.6091  -0.6043  -0.5985  -0.5875  -0.5731  -0.5666
 -0.5436  -0.5249  -0.5072  -0.4843  -0.4791  -0.4607  -0.4590  -0.4551
 -0.3949  -0.3455  -0.2795

          Ground-State Mulliken Net Atomic Charges

     Atom                 Charge (a.u.)
  ----------------------------------------
      1 C                     0.047740
      2 S                     0.081371
      3 C                    -0.251774
      4 C                    -0.102908
      5 C                    -0.011533
      6 C                     0.383970
      7 C                    -0.165671
      8 S                     0.029156
      9 C                     0.458633
     10 O                    -0.453906
     11 O                    -0.298321
     12 F                    -0.211772
     13 C                    -0.054786
     14 H                     0.116189
     15 H                     0.084104
     16 H                     0.083835
     17 C                    -0.375012
     18 H                     0.127921
     19 H                     0.153900
     20 H                     0.147449
     21 H                     0.211413
  ----------------------------------------
  Sum of atomic charges =     0.000000

                    Cartesian Multipole Moments
 -----------------------------------------------------------------
    Charge (ESU x 10^10)
                -0.0000
    Dipole Moment (Debye)
         X       1.3503      Y       0.9517      Z       4.0482
       Tot       4.3724
    Quadrupole Moments (Debye-Ang)
        XX     -95.2235     XY       2.4606     YY     -83.5964
        XZ      -3.6723     YZ     -12.8224     ZZ     -94.9500

 Total job time:  55.71s(wall), 2023.87s(cpu)
        *  Thank you very much for using Q-Chem.  Have a nice day.  *
