 Q-Chem 5.4, Q-Chem, Inc., Pleasanton, CA (2021)
 Q-Chem 5.4.0 for Intel X86 EM64T Linux

User input:
--------------------------------------------------------------
$molecule
0 1
C	-0.678300	-0.518946	1.024233
S	0.012100	0.057454	2.534933
C	1.218200	1.070954	1.751833
C	0.017400	0.064854	-0.040467
C	1.080300	0.958754	0.345933
C	-0.032400	0.020954	-1.461867
C	0.936500	0.834054	-2.082667
S	1.890000	1.638454	-0.941467
C	1.134400	0.994054	-3.535767
O	0.421200	0.391754	-4.326067
O	2.119500	1.816354	-3.980167
F	-0.883300	-0.698246	-2.222067
C	2.400800	2.039154	-5.310767
H	3.247600	2.748954	-5.346067
H	1.529800	2.471454	-5.851367
H	2.679800	1.099854	-5.837667
C	-0.678300	-1.954146	1.024233
H	-1.511000	-1.963146	0.336533
H	-0.141300	-2.638046	0.383733
H	-1.279000	-2.478546	1.752633
H	1.923000	1.662254	2.345733
$end

$rem
JOBTYPE		SP
EXCHANGE	HF
CORRELATION	pRIMP2
BASIS		cc-pvtz
METHOD		rimp2
AUX_BASIS	rimp2-cc-pvtz
SOLVENT_METHOD	PCM
PURECART	11111
SYMMETRY	false
MEM_TOTAL	110000
SCF_CONVERGENCE = 6
THRESH=10
GUI = 2
$end

$solvent
dielectric 4.90
$end
--------------------------------------------------------------

             Standard Nuclear Orientation (Angstroms)
    I     Atom           X                Y                Z
 ----------------------------------------------------------------
    1      C      -0.6783000000    -0.5189460000     1.0242330000
    2      S       0.0121000000     0.0574540000     2.5349330000
    3      C       1.2182000000     1.0709540000     1.7518330000
    4      C       0.0174000000     0.0648540000    -0.0404670000
    5      C       1.0803000000     0.9587540000     0.3459330000
    6      C      -0.0324000000     0.0209540000    -1.4618670000
    7      C       0.9365000000     0.8340540000    -2.0826670000
    8      S       1.8900000000     1.6384540000    -0.9414670000
    9      C       1.1344000000     0.9940540000    -3.5357670000
   10      O       0.4212000000     0.3917540000    -4.3260670000
   11      O       2.1195000000     1.8163540000    -3.9801670000
   12      F      -0.8833000000    -0.6982460000    -2.2220670000
   13      C       2.4008000000     2.0391540000    -5.3107670000
   14      H       3.2476000000     2.7489540000    -5.3460670000
   15      H       1.5298000000     2.4714540000    -5.8513670000
   16      H       2.6798000000     1.0998540000    -5.8376670000
   17      C      -0.6783000000    -1.9541460000     1.0242330000
   18      H      -1.5110000000    -1.9631460000     0.3365330000
   19      H      -0.1413000000    -2.6380460000     0.3837330000
   20      H      -1.2790000000    -2.4785460000     1.7526330000
   21      H       1.9230000000     1.6622540000     2.3457330000
 ----------------------------------------------------------------

   11   -1389.2023134158      7.33e-07  Convergence criterion met
 Total energy in the final basis set =    -1389.2023134158
        RIMP2         total energy =     -1391.7233951028 a.u.

                    Orbital Energies (a.u.)
 --------------------------------------------------------------

 Alpha MOs
 -- Occupied --
-92.0016 -91.9971 -26.3338 -20.6130 -20.5519 -11.4117 -11.3747 -11.3027
-11.3008 -11.2940 -11.2890 -11.2802 -11.2790 -11.2179  -9.0012  -9.0009
 -6.6821  -6.6819  -6.6815  -6.6809  -6.6808  -6.6802  -1.6469  -1.4729
 -1.3685  -1.2321  -1.1494  -1.0681  -1.0289  -1.0025  -0.9703  -0.9080
 -0.8660  -0.7964  -0.7871  -0.7703  -0.7280  -0.7156  -0.6966  -0.6793
 -0.6763  -0.6716  -0.6075  -0.6062  -0.5993  -0.5918  -0.5688  -0.5622
 -0.5392  -0.5250  -0.5115  -0.4874  -0.4828  -0.4624  -0.4619  -0.4373
 -0.3844  -0.3442  -0.2819

          Ground-State Mulliken Net Atomic Charges

     Atom                 Charge (a.u.)
  ----------------------------------------
      1 C                    -0.066509
      2 S                     0.100848
      3 C                    -0.197491
      4 C                    -0.053797
      5 C                    -0.025823
      6 C                     0.362493
      7 C                    -0.142588
      8 S                     0.049901
      9 C                     0.456628
     10 O                    -0.447227
     11 O                    -0.297505
     12 F                    -0.211326
     13 C                    -0.054605
     14 H                     0.116859
     15 H                     0.084735
     16 H                     0.084567
     17 C                    -0.392010
     18 H                     0.125373
     19 H                     0.155811
     20 H                     0.139491
     21 H                     0.212175
  ----------------------------------------
  Sum of atomic charges =     0.000000

                    Cartesian Multipole Moments
 -----------------------------------------------------------------
    Charge (ESU x 10^10)
                -0.0000
    Dipole Moment (Debye)
         X       2.7966      Y       1.2377      Z       2.6720
       Tot       4.0611
    Quadrupole Moments (Debye-Ang)
        XX     -90.1493     XY       6.5494     YY     -89.0373
        XZ      -8.1309     YZ      -6.8263     ZZ     -95.2039

 Total job time:  57.38s(wall), 2068.50s(cpu)
        *  Thank you very much for using Q-Chem.  Have a nice day.  *
