 Q-Chem 5.4, Q-Chem, Inc., Pleasanton, CA (2021)
 Q-Chem 5.4.0 for Intel X86 EM64T Linux

User input:
--------------------------------------------------------------
$molecule
0 1
C	-0.571059	-0.628442	1.020565
S	0.008841	0.059158	2.531265
C	1.020541	1.266558	1.748165
C	0.012741	0.067358	-0.044135
C	0.904241	1.132158	0.342265
C	-0.028659	0.015358	-1.465535
C	0.784241	0.984358	-2.086335
S	1.583541	1.942158	-0.945135
C	0.951341	1.176358	-3.539435
O	0.353641	0.459358	-4.329735
O	1.778641	2.157258	-3.983835
F	-0.741859	-0.840542	-2.225735
C	2.017041	2.425458	-5.314435
H	2.727741	3.271558	-5.349735
H	1.084241	2.699958	-5.855035
H	2.454941	1.548958	-5.841335
C	-0.571059	-2.063642	1.020565
H	-0.750259	-2.072642	2.085565
H	-1.394259	-2.747542	0.875765
H	0.360141	-2.588042	1.176665
H	1.612041	1.971358	2.342065
$end

$rem
JOBTYPE		SP
EXCHANGE	HF
CORRELATION	pRIMP2
BASIS		cc-pvtz
METHOD		rimp2
AUX_BASIS	rimp2-cc-pvtz
SOLVENT_METHOD	PCM
PURECART	11111
SYMMETRY	false
MEM_TOTAL	110000
SCF_CONVERGENCE = 6
THRESH=10
GUI = 2
$end

$solvent
dielectric 4.90
$end
--------------------------------------------------------------

             Standard Nuclear Orientation (Angstroms)
    I     Atom           X                Y                Z
 ----------------------------------------------------------------
    1      C      -0.5710590000    -0.6284420000     1.0205650000
    2      S       0.0088410000     0.0591580000     2.5312650000
    3      C       1.0205410000     1.2665580000     1.7481650000
    4      C       0.0127410000     0.0673580000    -0.0441350000
    5      C       0.9042410000     1.1321580000     0.3422650000
    6      C      -0.0286590000     0.0153580000    -1.4655350000
    7      C       0.7842410000     0.9843580000    -2.0863350000
    8      S       1.5835410000     1.9421580000    -0.9451350000
    9      C       0.9513410000     1.1763580000    -3.5394350000
   10      O       0.3536410000     0.4593580000    -4.3297350000
   11      O       1.7786410000     2.1572580000    -3.9838350000
   12      F      -0.7418590000    -0.8405420000    -2.2257350000
   13      C       2.0170410000     2.4254580000    -5.3144350000
   14      H       2.7277410000     3.2715580000    -5.3497350000
   15      H       1.0842410000     2.6999580000    -5.8550350000
   16      H       2.4549410000     1.5489580000    -5.8413350000
   17      C      -0.5710590000    -2.0636420000     1.0205650000
   18      H      -0.7502590000    -2.0726420000     2.0855650000
   19      H      -1.3942590000    -2.7475420000     0.8757650000
   20      H       0.3601410000    -2.5880420000     1.1766650000
   21      H       1.6120410000     1.9713580000     2.3420650000
 ----------------------------------------------------------------

   11   -1389.2209121693      6.36e-07  Convergence criterion met
 Total energy in the final basis set =    -1389.2209121693
        RIMP2         total energy =     -1391.7366221695 a.u.

                    Orbital Energies (a.u.)
 --------------------------------------------------------------

 Alpha MOs
 -- Occupied --
-92.0083 -91.9939 -26.3325 -20.6120 -20.5504 -11.4102 -11.3737 -11.2977
-11.2974 -11.2922 -11.2885 -11.2884 -11.2737 -11.2221  -9.0073  -8.9979
 -6.6880  -6.6873  -6.6869  -6.6791  -6.6785  -6.6771  -1.6455  -1.4718
 -1.3672  -1.2298  -1.1501  -1.0654  -1.0311  -1.0029  -0.9699  -0.9063
 -0.8665  -0.7974  -0.7851  -0.7703  -0.7274  -0.7139  -0.6955  -0.6784
 -0.6744  -0.6700  -0.6091  -0.6060  -0.5977  -0.5888  -0.5773  -0.5634
 -0.5378  -0.5263  -0.5065  -0.4835  -0.4663  -0.4622  -0.4610  -0.4575
 -0.3923  -0.3442  -0.2861

          Ground-State Mulliken Net Atomic Charges

     Atom                 Charge (a.u.)
  ----------------------------------------
      1 C                    -0.026031
      2 S                     0.095357
      3 C                    -0.220224
      4 C                    -0.065826
      5 C                    -0.010671
      6 C                     0.354168
      7 C                    -0.148705
      8 S                     0.042194
      9 C                     0.455874
     10 O                    -0.448898
     11 O                    -0.297743
     12 F                    -0.210365
     13 C                    -0.054641
     14 H                     0.116558
     15 H                     0.084525
     16 H                     0.084332
     17 C                    -0.353936
     18 H                     0.106982
     19 H                     0.145381
     20 H                     0.137686
     21 H                     0.213985
  ----------------------------------------
  Sum of atomic charges =     0.000000

                    Cartesian Multipole Moments
 -----------------------------------------------------------------
    Charge (ESU x 10^10)
                -0.0000
    Dipole Moment (Debye)
         X       2.3937      Y       1.4157      Z       3.8374
       Tot       4.7392
    Quadrupole Moments (Debye-Ang)
        XX     -92.0691     XY       5.5721     YY     -87.0978
        XZ      -6.6689     YZ     -10.1746     ZZ     -93.7532

 Total job time:  56.30s(wall), 1902.83s(cpu)
        *  Thank you very much for using Q-Chem.  Have a nice day.  *
