 Q-Chem 5.4, Q-Chem, Inc., Pleasanton, CA (2021)
 Q-Chem 5.4.0 for Intel X86 EM64T Linux

User input:
--------------------------------------------------------------
$molecule
0 1
C	-0.078095	-0.833466	1.020760
S	0.002505	0.062334	2.531460
C	0.138705	1.631734	1.748360
C	0.001005	0.071334	-0.043940
C	0.120605	1.454934	0.342460
C	-0.003095	0.005034	-1.465340
C	0.107005	1.265034	-2.086140
S	0.212405	2.508134	-0.944940
C	0.133805	1.518134	-3.539240
O	0.055405	0.587934	-4.329540
O	0.248905	2.796134	-3.983640
F	-0.096295	-1.105166	-2.225540
C	0.290305	3.152634	-5.314240
H	0.387205	4.253334	-5.349540
H	-0.631195	2.842434	-5.854840
H	1.151805	2.685834	-5.841140
C	-0.078095	-2.268666	1.020760
H	-0.610695	-2.277666	1.960260
H	-0.802195	-2.952566	0.603160
H	0.743505	-2.793066	1.485860
H	0.219005	2.548234	2.342260
$end

$rem
JOBTYPE		SP
EXCHANGE	HF
CORRELATION	pRIMP2
BASIS		cc-pvtz
METHOD		rimp2
AUX_BASIS	rimp2-cc-pvtz
SOLVENT_METHOD	PCM
PURECART	11111
SYMMETRY	false
MEM_TOTAL	110000
SCF_CONVERGENCE = 6
THRESH=10
GUI = 2
$end

$solvent
dielectric 4.90
$end
--------------------------------------------------------------

             Standard Nuclear Orientation (Angstroms)
    I     Atom           X                Y                Z
 ----------------------------------------------------------------
    1      C      -0.0780950000    -0.8334660000     1.0207600000
    2      S       0.0025050000     0.0623340000     2.5314600000
    3      C       0.1387050000     1.6317340000     1.7483600000
    4      C       0.0010050000     0.0713340000    -0.0439400000
    5      C       0.1206050000     1.4549340000     0.3424600000
    6      C      -0.0030950000     0.0050340000    -1.4653400000
    7      C       0.1070050000     1.2650340000    -2.0861400000
    8      S       0.2124050000     2.5081340000    -0.9449400000
    9      C       0.1338050000     1.5181340000    -3.5392400000
   10      O       0.0554050000     0.5879340000    -4.3295400000
   11      O       0.2489050000     2.7961340000    -3.9836400000
   12      F      -0.0962950000    -1.1051660000    -2.2255400000
   13      C       0.2903050000     3.1526340000    -5.3142400000
   14      H       0.3872050000     4.2533340000    -5.3495400000
   15      H      -0.6311950000     2.8424340000    -5.8548400000
   16      H       1.1518050000     2.6858340000    -5.8411400000
   17      C      -0.0780950000    -2.2686660000     1.0207600000
   18      H      -0.6106950000    -2.2776660000     1.9602600000
   19      H      -0.8021950000    -2.9525660000     0.6031600000
   20      H       0.7435050000    -2.7930660000     1.4858600000
   21      H       0.2190050000     2.5482340000     2.3422600000
 ----------------------------------------------------------------

   11   -1389.2527493991      4.65e-07  Convergence criterion met
 Total energy in the final basis set =    -1389.2527493991
        RIMP2         total energy =     -1391.7577938483 a.u.

                    Orbital Energies (a.u.)
 --------------------------------------------------------------

 Alpha MOs
 -- Occupied --
-92.0088 -91.9890 -26.3330 -20.6100 -20.5467 -11.4072 -11.3754 -11.3105
-11.2912 -11.2903 -11.2874 -11.2820 -11.2683 -11.2298  -9.0075  -8.9933
 -6.6883  -6.6877  -6.6872  -6.6746  -6.6739  -6.6725  -1.6460  -1.4696
 -1.3645  -1.2264  -1.1467  -1.0653  -1.0293  -1.0056  -0.9681  -0.9103
 -0.8638  -0.7965  -0.7839  -0.7672  -0.7260  -0.7139  -0.6956  -0.6768
 -0.6765  -0.6676  -0.6096  -0.6038  -0.5963  -0.5869  -0.5766  -0.5662
 -0.5430  -0.5247  -0.5064  -0.4819  -0.4793  -0.4627  -0.4594  -0.4574
 -0.3944  -0.3465  -0.2794

          Ground-State Mulliken Net Atomic Charges

     Atom                 Charge (a.u.)
  ----------------------------------------
      1 C                     0.033028
      2 S                     0.082833
      3 C                    -0.258795
      4 C                    -0.081520
      5 C                    -0.011889
      6 C                     0.388180
      7 C                    -0.163876
      8 S                     0.026159
      9 C                     0.459210
     10 O                    -0.455645
     11 O                    -0.298496
     12 F                    -0.213470
     13 C                    -0.055076
     14 H                     0.116142
     15 H                     0.083897
     16 H                     0.083835
     17 C                    -0.369298
     18 H                     0.119594
     19 H                     0.164338
     20 H                     0.139082
     21 H                     0.211766
  ----------------------------------------
  Sum of atomic charges =     0.000000

                    Cartesian Multipole Moments
 -----------------------------------------------------------------
    Charge (ESU x 10^10)
                -0.0000
    Dipole Moment (Debye)
         X      -0.0858      Y       0.9249      Z       4.1637
       Tot       4.2660
    Quadrupole Moments (Debye-Ang)
        XX     -95.9234     XY       1.8756     YY     -82.2512
        XZ      -1.0212     YZ     -13.3675     ZZ     -95.2083

 Total job time:  58.32s(wall), 2191.52s(cpu)
        *  Thank you very much for using Q-Chem.  Have a nice day.  *
