 Q-Chem 5.4, Q-Chem, Inc., Pleasanton, CA (2021)
 Q-Chem 5.4.0 for Intel X86 EM64T Linux

User input:
--------------------------------------------------------------
$molecule
0 1
C	-0.445759	-0.717327	1.025081
S	0.005841	0.060473	2.535781
C	0.792641	1.425273	1.752681
C	0.008341	0.069273	-0.039619
C	0.701441	1.272673	0.346781
C	-0.023459	0.010873	-1.461019
C	0.608841	1.106373	-2.081819
S	1.229741	2.188373	-0.940619
C	0.740141	1.324373	-3.534919
O	0.275941	0.514473	-4.325219
O	1.384541	2.434073	-3.979319
F	-0.577059	-0.955927	-2.221219
C	1.572741	2.739673	-5.309919
H	2.125741	3.696273	-5.345219
H	0.606441	2.847873	-5.850519
H	2.156141	1.952473	-5.836819
C	-0.445759	-2.152527	1.025081
H	0.086841	-2.161527	0.085581
H	0.278341	-2.836427	1.442681
H	-1.267359	-2.676927	0.559981
H	1.252641	2.221973	2.346581
$end

$rem
JOBTYPE		SP
EXCHANGE	HF
CORRELATION	pRIMP2
BASIS		cc-pvtz
METHOD		rimp2
AUX_BASIS	rimp2-cc-pvtz
SOLVENT_METHOD	PCM
PURECART	11111
SYMMETRY	false
MEM_TOTAL	110000
SCF_CONVERGENCE = 6
THRESH=10
GUI = 2
$end

$solvent
dielectric 4.90
$end
--------------------------------------------------------------

             Standard Nuclear Orientation (Angstroms)
    I     Atom           X                Y                Z
 ----------------------------------------------------------------
    1      C      -0.4457590000    -0.7173270000     1.0250810000
    2      S       0.0058410000     0.0604730000     2.5357810000
    3      C       0.7926410000     1.4252730000     1.7526810000
    4      C       0.0083410000     0.0692730000    -0.0396190000
    5      C       0.7014410000     1.2726730000     0.3467810000
    6      C      -0.0234590000     0.0108730000    -1.4610190000
    7      C       0.6088410000     1.1063730000    -2.0818190000
    8      S       1.2297410000     2.1883730000    -0.9406190000
    9      C       0.7401410000     1.3243730000    -3.5349190000
   10      O       0.2759410000     0.5144730000    -4.3252190000
   11      O       1.3845410000     2.4340730000    -3.9793190000
   12      F      -0.5770590000    -0.9559270000    -2.2212190000
   13      C       1.5727410000     2.7396730000    -5.3099190000
   14      H       2.1257410000     3.6962730000    -5.3452190000
   15      H       0.6064410000     2.8478730000    -5.8505190000
   16      H       2.1561410000     1.9524730000    -5.8368190000
   17      C      -0.4457590000    -2.1525270000     1.0250810000
   18      H       0.0868410000    -2.1615270000     0.0855810000
   19      H       0.2783410000    -2.8364270000     1.4426810000
   20      H      -1.2673590000    -2.6769270000     0.5599810000
   21      H       1.2526410000     2.2219730000     2.3465810000
 ----------------------------------------------------------------

   11   -1389.2339026784      5.54e-07  Convergence criterion met
 Total energy in the final basis set =    -1389.2339026784
        RIMP2         total energy =     -1391.7466677832 a.u.

                    Orbital Energies (a.u.)
 --------------------------------------------------------------

 Alpha MOs
 -- Occupied --
-92.0062 -91.9926 -26.3349 -20.6113 -20.5488 -11.4091 -11.3757 -11.3029
-11.2945 -11.2924 -11.2882 -11.2866 -11.2726 -11.2256  -9.0050  -8.9966
 -6.6857  -6.6851  -6.6847  -6.6779  -6.6773  -6.6759  -1.6481  -1.4710
 -1.3662  -1.2292  -1.1476  -1.0685  -1.0272  -1.0045  -0.9691  -0.9096
 -0.8642  -0.7957  -0.7864  -0.7678  -0.7269  -0.7163  -0.6970  -0.6780
 -0.6777  -0.6696  -0.6076  -0.6050  -0.5966  -0.5902  -0.5859  -0.5637
 -0.5378  -0.5255  -0.5058  -0.4834  -0.4683  -0.4661  -0.4606  -0.4576
 -0.3910  -0.3445  -0.2812

          Ground-State Mulliken Net Atomic Charges

     Atom                 Charge (a.u.)
  ----------------------------------------
      1 C                     0.005170
      2 S                     0.094338
      3 C                    -0.246552
      4 C                    -0.077377
      5 C                    -0.009584
      6 C                     0.350810
      7 C                    -0.149831
      8 S                     0.039073
      9 C                     0.457009
     10 O                    -0.452690
     11 O                    -0.298211
     12 F                    -0.212083
     13 C                    -0.054823
     14 H                     0.116505
     15 H                     0.084214
     16 H                     0.084061
     17 C                    -0.372160
     18 H                     0.129581
     19 H                     0.166490
     20 H                     0.135716
     21 H                     0.210344
  ----------------------------------------
  Sum of atomic charges =     0.000000

                    Cartesian Multipole Moments
 -----------------------------------------------------------------
    Charge (ESU x 10^10)
                -0.0000
    Dipole Moment (Debye)
         X       1.9153      Y       1.0540      Z       2.8655
       Tot       3.6042
    Quadrupole Moments (Debye-Ang)
        XX     -94.0652     XY       3.5696     YY     -85.0349
        XZ      -4.4297     YZ      -9.3533     ZZ     -96.8242

 Total job time:  54.36s(wall), 1924.07s(cpu)
        *  Thank you very much for using Q-Chem.  Have a nice day.  *
