 Q-Chem 5.4, Q-Chem, Inc., Pleasanton, CA (2021)
 Q-Chem 5.4.0 for Intel X86 EM64T Linux

User input:
--------------------------------------------------------------
$molecule
0 1
C	-0.000093	-0.836989	1.024554
S	0.002107	0.062411	2.535254
C	0.001107	1.637711	1.752154
C	-0.000093	0.071211	-0.040146
C	-0.001593	1.460011	0.346254
C	0.001507	0.004811	-1.461546
C	0.001407	1.269711	-2.082346
S	-0.001893	2.517211	-0.941146
C	0.006107	1.524111	-3.535446
O	0.009107	0.590611	-4.325746
O	0.009307	2.807311	-3.979846
F	0.005407	-1.109289	-2.221746
C	0.019507	3.166011	-5.310446
H	0.020107	4.271011	-5.345746
H	-0.871493	2.776711	-5.851046
H	0.918407	2.776111	-5.837346
C	-0.000093	-2.272189	1.024554
H	-0.700693	-2.281189	0.202754
H	0.640007	-2.956089	0.486954
H	-0.718193	-2.796589	1.637554
H	0.001107	2.557811	2.346054
$end

$rem
JOBTYPE		SP
EXCHANGE	HF
CORRELATION	pRIMP2
BASIS		cc-pvtz
METHOD		rimp2
AUX_BASIS	rimp2-cc-pvtz
SOLVENT_METHOD	PCM
PURECART	11111
SYMMETRY	false
MEM_TOTAL	110000
SCF_CONVERGENCE = 6
THRESH=10
GUI = 2
$end

$solvent
dielectric 4.90
$end
--------------------------------------------------------------

             Standard Nuclear Orientation (Angstroms)
    I     Atom           X                Y                Z
 ----------------------------------------------------------------
    1      C      -0.0000930000    -0.8369890000     1.0245540000
    2      S       0.0021070000     0.0624110000     2.5352540000
    3      C       0.0011070000     1.6377110000     1.7521540000
    4      C      -0.0000930000     0.0712110000    -0.0401460000
    5      C      -0.0015930000     1.4600110000     0.3462540000
    6      C       0.0015070000     0.0048110000    -1.4615460000
    7      C       0.0014070000     1.2697110000    -2.0823460000
    8      S      -0.0018930000     2.5172110000    -0.9411460000
    9      C       0.0061070000     1.5241110000    -3.5354460000
   10      O       0.0091070000     0.5906110000    -4.3257460000
   11      O       0.0093070000     2.8073110000    -3.9798460000
   12      F       0.0054070000    -1.1092890000    -2.2217460000
   13      C       0.0195070000     3.1660110000    -5.3104460000
   14      H       0.0201070000     4.2710110000    -5.3457460000
   15      H      -0.8714930000     2.7767110000    -5.8510460000
   16      H       0.9184070000     2.7761110000    -5.8373460000
   17      C      -0.0000930000    -2.2721890000     1.0245540000
   18      H      -0.7006930000    -2.2811890000     0.2027540000
   19      H       0.6400070000    -2.9560890000     0.4869540000
   20      H      -0.7181930000    -2.7965890000     1.6375540000
   21      H       0.0011070000     2.5578110000     2.3460540000
 ----------------------------------------------------------------

   11   -1389.2556281070      4.66e-07  Convergence criterion met
 Total energy in the final basis set =    -1389.2556281070
        RIMP2         total energy =     -1391.7609530676 a.u.

                    Orbital Energies (a.u.)
 --------------------------------------------------------------

 Alpha MOs
 -- Occupied --
-92.0060 -91.9896 -26.3350 -20.6101 -20.5466 -11.4073 -11.3765 -11.3142
-11.2917 -11.2900 -11.2876 -11.2788 -11.2700 -11.2312  -9.0047  -8.9938
 -6.6855  -6.6849  -6.6844  -6.6751  -6.6744  -6.6730  -1.6480  -1.4697
 -1.3646  -1.2270  -1.1456  -1.0677  -1.0268  -1.0066  -0.9681  -0.9116
 -0.8631  -0.7956  -0.7854  -0.7663  -0.7261  -0.7158  -0.6975  -0.6786
 -0.6770  -0.6681  -0.6099  -0.6038  -0.5945  -0.5867  -0.5822  -0.5661
 -0.5430  -0.5240  -0.5058  -0.4846  -0.4782  -0.4633  -0.4596  -0.4565
 -0.3929  -0.3458  -0.2779

          Ground-State Mulliken Net Atomic Charges

     Atom                 Charge (a.u.)
  ----------------------------------------
      1 C                     0.053747
      2 S                     0.082038
      3 C                    -0.265776
      4 C                    -0.101302
      5 C                    -0.010312
      6 C                     0.388343
      7 C                    -0.161031
      8 S                     0.026899
      9 C                     0.458933
     10 O                    -0.456871
     11 O                    -0.298614
     12 F                    -0.214516
     13 C                    -0.054998
     14 H                     0.116194
     15 H                     0.083785
     16 H                     0.083759
     17 C                    -0.376854
     18 H                     0.128630
     19 H                     0.159257
     20 H                     0.148826
     21 H                     0.209864
  ----------------------------------------
  Sum of atomic charges =     0.000000

                    Cartesian Multipole Moments
 -----------------------------------------------------------------
    Charge (ESU x 10^10)
                -0.0000
    Dipole Moment (Debye)
         X      -0.4685      Y       0.6968      Z       3.0924
       Tot       3.2043
    Quadrupole Moments (Debye-Ang)
        XX     -96.1706     XY       1.2001     YY     -81.9523
        XZ      -0.8526     YZ     -11.0539     ZZ     -97.6156

 Total job time:  54.59s(wall), 1944.21s(cpu)
        *  Thank you very much for using Q-Chem.  Have a nice day.  *
