 Q-Chem 5.4, Q-Chem, Inc., Pleasanton, CA (2021)
 Q-Chem 5.4.0 for Intel X86 EM64T Linux

User input:
--------------------------------------------------------------
$molecule
0 1
C	-0.233439	-0.806326	1.023580
S	0.001461	0.061874	2.534280
C	0.408161	1.583774	1.751180
C	0.001561	0.070974	-0.041120
C	0.359561	1.412774	0.345280
C	-0.013939	0.006374	-1.462520
C	0.313261	1.228174	-2.083320
S	0.632861	2.434074	-0.942120
C	0.383661	1.472774	-3.536420
O	0.144861	0.570274	-4.326720
O	0.718861	2.711374	-3.980820
F	-0.298539	-1.070726	-2.222720
C	0.821561	3.055274	-5.311420
H	1.108061	4.122374	-5.346720
H	-0.139839	2.909774	-5.852020
H	1.588861	2.445874	-5.838320
C	-0.233439	-2.241526	1.023580
H	0.828661	-2.250526	0.827680
H	-0.087939	-2.925426	1.846680
H	-0.405239	-2.765926	0.095180
H	0.646361	2.472474	2.345080
$end

$rem
JOBTYPE		SP
EXCHANGE	HF
CORRELATION	pRIMP2
BASIS		cc-pvtz
METHOD		rimp2
AUX_BASIS	rimp2-cc-pvtz
SOLVENT_METHOD	PCM
PURECART	11111
SYMMETRY	false
MEM_TOTAL	110000
SCF_CONVERGENCE = 6
THRESH=10
GUI = 2
$end

$solvent
dielectric 4.90
$end
--------------------------------------------------------------

             Standard Nuclear Orientation (Angstroms)
    I     Atom           X                Y                Z
 ----------------------------------------------------------------
    1      C      -0.2334390000    -0.8063260000     1.0235800000
    2      S       0.0014610000     0.0618740000     2.5342800000
    3      C       0.4081610000     1.5837740000     1.7511800000
    4      C       0.0015610000     0.0709740000    -0.0411200000
    5      C       0.3595610000     1.4127740000     0.3452800000
    6      C      -0.0139390000     0.0063740000    -1.4625200000
    7      C       0.3132610000     1.2281740000    -2.0833200000
    8      S       0.6328610000     2.4340740000    -0.9421200000
    9      C       0.3836610000     1.4727740000    -3.5364200000
   10      O       0.1448610000     0.5702740000    -4.3267200000
   11      O       0.7188610000     2.7113740000    -3.9808200000
   12      F      -0.2985390000    -1.0707260000    -2.2227200000
   13      C       0.8215610000     3.0552740000    -5.3114200000
   14      H       1.1080610000     4.1223740000    -5.3467200000
   15      H      -0.1398390000     2.9097740000    -5.8520200000
   16      H       1.5888610000     2.4458740000    -5.8383200000
   17      C      -0.2334390000    -2.2415260000     1.0235800000
   18      H       0.8286610000    -2.2505260000     0.8276800000
   19      H      -0.0879390000    -2.9254260000     1.8466800000
   20      H      -0.4052390000    -2.7659260000     0.0951800000
   21      H       0.6463610000     2.4724740000     2.3450800000
 ----------------------------------------------------------------

   11   -1389.2544196644      4.25e-07  Convergence criterion met
 Total energy in the final basis set =    -1389.2544196644
        RIMP2         total energy =     -1391.7572295568 a.u.

                    Orbital Energies (a.u.)
 --------------------------------------------------------------

 Alpha MOs
 -- Occupied --
-92.0063 -91.9879 -26.3347 -20.6089 -20.5445 -11.4055 -11.3768 -11.3219
-11.2918 -11.2870 -11.2862 -11.2736 -11.2662 -11.2372  -9.0051  -8.9922
 -6.6859  -6.6853  -6.6848  -6.6735  -6.6728  -6.6714  -1.6477  -1.4683
 -1.3630  -1.2265  -1.1476  -1.0681  -1.0266  -1.0062  -0.9674  -0.9109
 -0.8623  -0.7957  -0.7845  -0.7656  -0.7259  -0.7153  -0.6967  -0.6774
 -0.6760  -0.6670  -0.6105  -0.6025  -0.5970  -0.5889  -0.5848  -0.5598
 -0.5329  -0.5236  -0.5168  -0.4952  -0.4780  -0.4630  -0.4586  -0.4561
 -0.3897  -0.3470  -0.2718

          Ground-State Mulliken Net Atomic Charges

     Atom                 Charge (a.u.)
  ----------------------------------------
      1 C                     0.057733
      2 S                     0.085871
      3 C                    -0.281243
      4 C                    -0.105811
      5 C                    -0.009557
      6 C                     0.383998
      7 C                    -0.171990
      8 S                     0.024864
      9 C                     0.459186
     10 O                    -0.459819
     11 O                    -0.299253
     12 F                    -0.213106
     13 C                    -0.054888
     14 H                     0.115894
     15 H                     0.083549
     16 H                     0.083273
     17 C                    -0.381464
     18 H                     0.154527
     19 H                     0.170671
     20 H                     0.148628
     21 H                     0.208937
  ----------------------------------------
  Sum of atomic charges =     0.000000

                    Cartesian Multipole Moments
 -----------------------------------------------------------------
    Charge (ESU x 10^10)
                -0.0000
    Dipole Moment (Debye)
         X       1.2915      Y       0.0218      Z       3.6616
       Tot       3.8827
    Quadrupole Moments (Debye-Ang)
        XX     -96.3340     XY       0.7587     YY     -82.3836
        XZ      -1.9384     YZ     -12.0768     ZZ     -97.2991

 Total job time:  54.51s(wall), 1968.60s(cpu)
        *  Thank you very much for using Q-Chem.  Have a nice day.  *
