 Q-Chem 5.4, Q-Chem, Inc., Pleasanton, CA (2021)
 Q-Chem 5.4.0 for Intel X86 EM64T Linux

User input:
--------------------------------------------------------------
$molecule
0 1
C	-0.153549	-0.823218	1.023873
S	0.004851	0.062182	2.534573
C	0.277351	1.613782	1.751473
C	0.004151	0.071182	-0.040827
C	0.243851	1.439182	0.345573
C	-0.005749	0.005582	-1.462227
C	0.213751	1.251182	-2.083027
S	0.427051	2.480282	-0.941827
C	0.262551	1.500982	-3.536127
O	0.103351	0.581182	-4.326427
O	0.488551	2.764082	-3.980527
F	-0.195349	-1.092318	-2.222427
C	0.560851	3.115582	-5.311127
H	0.753251	4.203682	-5.346427
H	-0.384249	2.886882	-5.851727
H	1.378351	2.575482	-5.838027
C	-0.153549	-2.258418	1.023873
H	-1.093049	-2.267418	0.491273
H	0.264051	-2.942318	0.299773
H	-0.618649	-2.782818	1.845473
H	0.437151	2.519782	2.345373
$end

$rem
JOBTYPE		SP
EXCHANGE	HF
CORRELATION	pRIMP2
BASIS		cc-pvtz
METHOD		rimp2
AUX_BASIS	rimp2-cc-pvtz
SOLVENT_METHOD	PCM
PURECART	11111
SYMMETRY	false
MEM_TOTAL	110000
SCF_CONVERGENCE = 6
THRESH=10
GUI = 2
$end

$solvent
dielectric 4.90
$end
--------------------------------------------------------------

             Standard Nuclear Orientation (Angstroms)
    I     Atom           X                Y                Z
 ----------------------------------------------------------------
    1      C      -0.1535490000    -0.8232180000     1.0238730000
    2      S       0.0048510000     0.0621820000     2.5345730000
    3      C       0.2773510000     1.6137820000     1.7514730000
    4      C       0.0041510000     0.0711820000    -0.0408270000
    5      C       0.2438510000     1.4391820000     0.3455730000
    6      C      -0.0057490000     0.0055820000    -1.4622270000
    7      C       0.2137510000     1.2511820000    -2.0830270000
    8      S       0.4270510000     2.4802820000    -0.9418270000
    9      C       0.2625510000     1.5009820000    -3.5361270000
   10      O       0.1033510000     0.5811820000    -4.3264270000
   11      O       0.4885510000     2.7640820000    -3.9805270000
   12      F      -0.1953490000    -1.0923180000    -2.2224270000
   13      C       0.5608510000     3.1155820000    -5.3111270000
   14      H       0.7532510000     4.2036820000    -5.3464270000
   15      H      -0.3842490000     2.8868820000    -5.8517270000
   16      H       1.3783510000     2.5754820000    -5.8380270000
   17      C      -0.1535490000    -2.2584180000     1.0238730000
   18      H      -1.0930490000    -2.2674180000     0.4912730000
   19      H       0.2640510000    -2.9423180000     0.2997730000
   20      H      -0.6186490000    -2.7828180000     1.8454730000
   21      H       0.4371510000     2.5197820000     2.3453730000
 ----------------------------------------------------------------

   11   -1389.2537320326      4.49e-07  Convergence criterion met
 Total energy in the final basis set =    -1389.2537320326
        RIMP2         total energy =     -1391.7581704634 a.u.

                    Orbital Energies (a.u.)
 --------------------------------------------------------------

 Alpha MOs
 -- Occupied --
-92.0065 -91.9887 -26.3346 -20.6094 -20.5455 -11.4063 -11.3765 -11.3168
-11.2917 -11.2879 -11.2872 -11.2763 -11.2680 -11.2332  -9.0052  -8.9929
 -6.6860  -6.6854  -6.6849  -6.6742  -6.6735  -6.6722  -1.6476  -1.4689
 -1.3637  -1.2263  -1.1459  -1.0674  -1.0267  -1.0066  -0.9676  -0.9117
 -0.8626  -0.7955  -0.7847  -0.7658  -0.7257  -0.7153  -0.6971  -0.6783
 -0.6764  -0.6674  -0.6095  -0.6031  -0.5934  -0.5861  -0.5839  -0.5621
 -0.5410  -0.5233  -0.5103  -0.4920  -0.4788  -0.4615  -0.4586  -0.4563
 -0.3904  -0.3463  -0.2743

          Ground-State Mulliken Net Atomic Charges

     Atom                 Charge (a.u.)
  ----------------------------------------
      1 C                     0.051568
      2 S                     0.087405
      3 C                    -0.274452
      4 C                    -0.110306
      5 C                    -0.006140
      6 C                     0.388043
      7 C                    -0.167657
      8 S                     0.025179
      9 C                     0.459699
     10 O                    -0.458472
     11 O                    -0.298904
     12 F                    -0.214067
     13 C                    -0.054944
     14 H                     0.116012
     15 H                     0.083553
     16 H                     0.083587
     17 C                    -0.374816
     18 H                     0.140378
     19 H                     0.168080
     20 H                     0.147132
     21 H                     0.209121
  ----------------------------------------
  Sum of atomic charges =     0.000000

                    Cartesian Multipole Moments
 -----------------------------------------------------------------
    Charge (ESU x 10^10)
                -0.0000
    Dipole Moment (Debye)
         X      -0.2467      Y       0.3815      Z       3.3685
       Tot       3.3990
    Quadrupole Moments (Debye-Ang)
        XX     -95.9458     XY       3.3548     YY     -82.1738
        XZ      -2.8160     YZ     -11.3742     ZZ     -97.4517

 Total job time:  53.32s(wall), 1959.07s(cpu)
        *  Thank you very much for using Q-Chem.  Have a nice day.  *
