 Q-Chem 5.4, Q-Chem, Inc., Pleasanton, CA (2021)
 Q-Chem 5.4.0 for Intel X86 EM64T Linux

User input:
--------------------------------------------------------------
$molecule
0 1
C	-0.767009	-0.392188	1.021216
S	0.012991	0.055612	2.531916
C	1.376791	0.844212	1.748816
C	0.019491	0.061912	-0.043484
C	1.221491	0.757612	0.342916
C	-0.037109	0.027312	-1.464884
C	1.058191	0.659812	-2.085684
S	2.136891	1.286512	-0.944484
C	1.280891	0.783012	-3.538784
O	0.473991	0.313712	-4.329084
O	2.393791	1.421812	-3.983184
F	-1.000009	-0.533088	-2.225084
C	2.709491	1.592412	-5.313784
H	3.666691	2.144312	-5.349084
H	1.926791	2.169312	-5.854384
H	2.821191	0.618912	-5.840684
C	-0.767009	-1.827388	1.021216
H	-1.588809	-1.836388	1.721816
H	-1.304609	-2.511288	0.381116
H	-0.154009	-2.351788	1.739316
H	2.173591	1.304112	2.342716
$end

$rem
JOBTYPE		SP
EXCHANGE	HF
CORRELATION	pRIMP2
BASIS		cc-pvtz
METHOD		rimp2
AUX_BASIS	rimp2-cc-pvtz
SOLVENT_METHOD	PCM
PURECART	11111
SYMMETRY	false
MEM_TOTAL	110000
SCF_CONVERGENCE = 6
THRESH=10
GUI = 2
$end

$solvent
dielectric 4.90
$end
--------------------------------------------------------------

             Standard Nuclear Orientation (Angstroms)
    I     Atom           X                Y                Z
 ----------------------------------------------------------------
    1      C      -0.7670090000    -0.3921880000     1.0212160000
    2      S       0.0129910000     0.0556120000     2.5319160000
    3      C       1.3767910000     0.8442120000     1.7488160000
    4      C       0.0194910000     0.0619120000    -0.0434840000
    5      C       1.2214910000     0.7576120000     0.3429160000
    6      C      -0.0371090000     0.0273120000    -1.4648840000
    7      C       1.0581910000     0.6598120000    -2.0856840000
    8      S       2.1368910000     1.2865120000    -0.9444840000
    9      C       1.2808910000     0.7830120000    -3.5387840000
   10      O       0.4739910000     0.3137120000    -4.3290840000
   11      O       2.3937910000     1.4218120000    -3.9831840000
   12      F      -1.0000090000    -0.5330880000    -2.2250840000
   13      C       2.7094910000     1.5924120000    -5.3137840000
   14      H       3.6666910000     2.1443120000    -5.3490840000
   15      H       1.9267910000     2.1693120000    -5.8543840000
   16      H       2.8211910000     0.6189120000    -5.8406840000
   17      C      -0.7670090000    -1.8273880000     1.0212160000
   18      H      -1.5888090000    -1.8363880000     1.7218160000
   19      H      -1.3046090000    -2.5112880000     0.3811160000
   20      H      -0.1540090000    -2.3517880000     1.7393160000
   21      H       2.1735910000     1.3041120000     2.3427160000
 ----------------------------------------------------------------

   11   -1389.1763889628      9.31e-07  Convergence criterion met
 Total energy in the final basis set =    -1389.1763889628
        RIMP2         total energy =     -1391.7005571812 a.u.

                    Orbital Energies (a.u.)
 --------------------------------------------------------------

 Alpha MOs
 -- Occupied --
-92.0057 -91.9995 -26.3320 -20.6141 -20.5542 -11.4135 -11.3724 -11.3153
-11.3057 -11.2938 -11.2895 -11.2810 -11.2629 -11.2135  -9.0053  -9.0032
 -6.6859  -6.6850  -6.6849  -6.6844  -6.6838  -6.6825  -1.6452  -1.4742
 -1.3701  -1.2343  -1.1541  -1.0677  -1.0325  -1.0008  -0.9718  -0.9035
 -0.8688  -0.7982  -0.7870  -0.7734  -0.7294  -0.7142  -0.6967  -0.6801
 -0.6731  -0.6723  -0.6108  -0.6089  -0.5984  -0.5900  -0.5777  -0.5611
 -0.5305  -0.5254  -0.5094  -0.4854  -0.4768  -0.4631  -0.4630  -0.4451
 -0.3769  -0.3438  -0.2855

          Ground-State Mulliken Net Atomic Charges

     Atom                 Charge (a.u.)
  ----------------------------------------
      1 C                    -0.162474
      2 S                     0.103816
      3 C                    -0.163851
      4 C                     0.025951
      5 C                    -0.036550
      6 C                     0.355687
      7 C                    -0.135255
      8 S                     0.055948
      9 C                     0.457369
     10 O                    -0.442426
     11 O                    -0.296778
     12 F                    -0.211428
     13 C                    -0.054747
     14 H                     0.117100
     15 H                     0.085262
     16 H                     0.084960
     17 C                    -0.389864
     18 H                     0.118656
     19 H                     0.146366
     20 H                     0.124853
     21 H                     0.217405
  ----------------------------------------
  Sum of atomic charges =     0.000000

                    Cartesian Multipole Moments
 -----------------------------------------------------------------
    Charge (ESU x 10^10)
                -0.0000
    Dipole Moment (Debye)
         X       4.0481      Y       1.1999      Z       3.1935
       Tot       5.2939
    Quadrupole Moments (Debye-Ang)
        XX     -88.6059     XY       6.2272     YY     -91.2753
        XZ      -8.1848     YZ      -6.3117     ZZ     -92.3917

 Total job time:  54.27s(wall), 1954.39s(cpu)
        *  Thank you very much for using Q-Chem.  Have a nice day.  *
