 Q-Chem 5.4, Q-Chem, Inc., Pleasanton, CA (2021)
 Q-Chem 5.4.0 for Intel X86 EM64T Linux

User input:
--------------------------------------------------------------
$molecule
0 1
C	-0.571777	-0.628442	1.025213
S	0.008123	0.059158	2.535913
C	1.019823	1.266558	1.752813
C	0.012023	0.067358	-0.039487
C	0.903523	1.132158	0.346913
C	-0.029377	0.015358	-1.460887
C	0.783523	0.984358	-2.081687
S	1.582823	1.942158	-0.940487
C	0.950623	1.176358	-3.534787
O	0.352923	0.459358	-4.325087
O	1.777923	2.157258	-3.979187
F	-0.742577	-0.840542	-2.221087
C	2.016323	2.425458	-5.309787
H	2.727023	3.271558	-5.345087
H	1.083523	2.699958	-5.850387
H	2.454223	1.548958	-5.836687
C	-0.571777	-2.063642	1.025213
H	-0.210377	-2.072642	0.007513
H	0.213823	-2.747542	1.310713
H	-1.461677	-2.588042	0.709813
H	1.611323	1.971358	2.346713
$end

$rem
JOBTYPE		SP
EXCHANGE	HF
CORRELATION	pRIMP2
BASIS		cc-pvtz
METHOD		rimp2
AUX_BASIS	rimp2-cc-pvtz
SOLVENT_METHOD	PCM
PURECART	11111
SYMMETRY	false
MEM_TOTAL	110000
SCF_CONVERGENCE = 6
THRESH=10
GUI = 2
$end

$solvent
dielectric 4.90
$end
--------------------------------------------------------------

             Standard Nuclear Orientation (Angstroms)
    I     Atom           X                Y                Z
 ----------------------------------------------------------------
    1      C      -0.5717770000    -0.6284420000     1.0252130000
    2      S       0.0081230000     0.0591580000     2.5359130000
    3      C       1.0198230000     1.2665580000     1.7528130000
    4      C       0.0120230000     0.0673580000    -0.0394870000
    5      C       0.9035230000     1.1321580000     0.3469130000
    6      C      -0.0293770000     0.0153580000    -1.4608870000
    7      C       0.7835230000     0.9843580000    -2.0816870000
    8      S       1.5828230000     1.9421580000    -0.9404870000
    9      C       0.9506230000     1.1763580000    -3.5347870000
   10      O       0.3529230000     0.4593580000    -4.3250870000
   11      O       1.7779230000     2.1572580000    -3.9791870000
   12      F      -0.7425770000    -0.8405420000    -2.2210870000
   13      C       2.0163230000     2.4254580000    -5.3097870000
   14      H       2.7270230000     3.2715580000    -5.3450870000
   15      H       1.0835230000     2.6999580000    -5.8503870000
   16      H       2.4542230000     1.5489580000    -5.8366870000
   17      C      -0.5717770000    -2.0636420000     1.0252130000
   18      H      -0.2103770000    -2.0726420000     0.0075130000
   19      H       0.2138230000    -2.7475420000     1.3107130000
   20      H      -1.4616770000    -2.5880420000     0.7098130000
   21      H       1.6113230000     1.9713580000     2.3467130000
 ----------------------------------------------------------------

   11   -1389.2183333902      6.44e-07  Convergence criterion met
 Total energy in the final basis set =    -1389.2183333902
        RIMP2         total energy =     -1391.7360401815 a.u.

                    Orbital Energies (a.u.)
 --------------------------------------------------------------

 Alpha MOs
 -- Occupied --
-92.0054 -91.9952 -26.3349 -20.6125 -20.5510 -11.4109 -11.3751 -11.2987
-11.2952 -11.2926 -11.2911 -11.2888 -11.2760 -11.2210  -9.0043  -8.9992
 -6.6850  -6.6843  -6.6840  -6.6804  -6.6798  -6.6784  -1.6481  -1.4723
 -1.3678  -1.2311  -1.1489  -1.0694  -1.0281  -1.0031  -0.9700  -0.9083
 -0.8653  -0.7960  -0.7873  -0.7694  -0.7277  -0.7166  -0.6971  -0.6790
 -0.6773  -0.6710  -0.6071  -0.6053  -0.5989  -0.5898  -0.5851  -0.5635
 -0.5361  -0.5266  -0.5074  -0.4840  -0.4675  -0.4631  -0.4612  -0.4530
 -0.3906  -0.3433  -0.2851

          Ground-State Mulliken Net Atomic Charges

     Atom                 Charge (a.u.)
  ----------------------------------------
      1 C                    -0.035972
      2 S                     0.099033
      3 C                    -0.223671
      4 C                    -0.059680
      5 C                    -0.013848
      6 C                     0.341514
      7 C                    -0.140369
      8 S                     0.046596
      9 C                     0.456477
     10 O                    -0.449084
     11 O                    -0.297694
     12 F                    -0.211631
     13 C                    -0.054601
     14 H                     0.116731
     15 H                     0.084615
     16 H                     0.084321
     17 C                    -0.362630
     18 H                     0.122133
     19 H                     0.160064
     20 H                     0.126097
     21 H                     0.211600
  ----------------------------------------
  Sum of atomic charges =     0.000000

                    Cartesian Multipole Moments
 -----------------------------------------------------------------
    Charge (ESU x 10^10)
                -0.0000
    Dipole Moment (Debye)
         X       2.6664      Y       1.3398      Z       2.6454
       Tot       3.9878
    Quadrupole Moments (Debye-Ang)
        XX     -92.4059     XY       4.5888     YY     -87.0620
        XZ      -5.8082     YZ      -7.9516     ZZ     -96.1064

 Total job time:  56.22s(wall), 1989.59s(cpu)
        *  Thank you very much for using Q-Chem.  Have a nice day.  *
