 Q-Chem 5.4, Q-Chem, Inc., Pleasanton, CA (2021)
 Q-Chem 5.4.0 for Intel X86 EM64T Linux

User input:
--------------------------------------------------------------
$molecule
0 1
C	-0.571874	-0.628442	1.020653
S	0.008026	0.059158	2.531353
C	1.019726	1.266558	1.748253
C	0.011926	0.067358	-0.044047
C	0.903426	1.132158	0.342353
C	-0.029474	0.015358	-1.465447
C	0.783426	0.984358	-2.086247
S	1.582726	1.942158	-0.945047
C	0.950526	1.176358	-3.539347
O	0.352826	0.459358	-4.329647
O	1.777826	2.157258	-3.983747
F	-0.742674	-0.840542	-2.225647
C	2.016226	2.425458	-5.314347
H	2.726926	3.271558	-5.349647
H	1.083426	2.699958	-5.854947
H	2.454126	1.548958	-5.841247
C	-0.571874	-2.063642	1.020653
H	-0.375974	-2.072642	2.082753
H	-1.394974	-2.747542	1.166153
H	0.356526	-2.588042	0.848853
H	1.611226	1.971358	2.342153
$end

$rem
JOBTYPE		SP
EXCHANGE	HF
CORRELATION	pRIMP2
BASIS		cc-pvtz
METHOD		rimp2
AUX_BASIS	rimp2-cc-pvtz
SOLVENT_METHOD	PCM
PURECART	11111
SYMMETRY	false
MEM_TOTAL	110000
SCF_CONVERGENCE = 6
THRESH=10
GUI = 2
$end

$solvent
dielectric 4.90
$end
--------------------------------------------------------------

             Standard Nuclear Orientation (Angstroms)
    I     Atom           X                Y                Z
 ----------------------------------------------------------------
    1      C      -0.5718740000    -0.6284420000     1.0206530000
    2      S       0.0080260000     0.0591580000     2.5313530000
    3      C       1.0197260000     1.2665580000     1.7482530000
    4      C       0.0119260000     0.0673580000    -0.0440470000
    5      C       0.9034260000     1.1321580000     0.3423530000
    6      C      -0.0294740000     0.0153580000    -1.4654470000
    7      C       0.7834260000     0.9843580000    -2.0862470000
    8      S       1.5827260000     1.9421580000    -0.9450470000
    9      C       0.9505260000     1.1763580000    -3.5393470000
   10      O       0.3528260000     0.4593580000    -4.3296470000
   11      O       1.7778260000     2.1572580000    -3.9837470000
   12      F      -0.7426740000    -0.8405420000    -2.2256470000
   13      C       2.0162260000     2.4254580000    -5.3143470000
   14      H       2.7269260000     3.2715580000    -5.3496470000
   15      H       1.0834260000     2.6999580000    -5.8549470000
   16      H       2.4541260000     1.5489580000    -5.8412470000
   17      C      -0.5718740000    -2.0636420000     1.0206530000
   18      H      -0.3759740000    -2.0726420000     2.0827530000
   19      H      -1.3949740000    -2.7475420000     1.1661530000
   20      H       0.3565260000    -2.5880420000     0.8488530000
   21      H       1.6112260000     1.9713580000     2.3421530000
 ----------------------------------------------------------------

   11   -1389.2178681151      6.19e-07  Convergence criterion met
 Total energy in the final basis set =    -1389.2178681151
        RIMP2         total energy =     -1391.7335254326 a.u.

                    Orbital Energies (a.u.)
 --------------------------------------------------------------

 Alpha MOs
 -- Occupied --
-92.0063 -91.9936 -26.3327 -20.6121 -20.5505 -11.4104 -11.3740 -11.2979
-11.2967 -11.2918 -11.2900 -11.2885 -11.2747 -11.2212  -9.0057  -8.9976
 -6.6863  -6.6856  -6.6852  -6.6789  -6.6782  -6.6769  -1.6456  -1.4719
 -1.3673  -1.2300  -1.1508  -1.0657  -1.0313  -1.0026  -0.9700  -0.9055
 -0.8667  -0.7976  -0.7852  -0.7706  -0.7276  -0.7141  -0.6956  -0.6785
 -0.6748  -0.6700  -0.6086  -0.6061  -0.5990  -0.5893  -0.5729  -0.5646
 -0.5402  -0.5263  -0.5072  -0.4844  -0.4740  -0.4615  -0.4611  -0.4492
 -0.3938  -0.3430  -0.2851

          Ground-State Mulliken Net Atomic Charges

     Atom                 Charge (a.u.)
  ----------------------------------------
      1 C                    -0.013734
      2 S                     0.090003
      3 C                    -0.220145
      4 C                    -0.074513
      5 C                    -0.012519
      6 C                     0.362986
      7 C                    -0.151642
      8 S                     0.040549
      9 C                     0.456392
     10 O                    -0.448740
     11 O                    -0.297674
     12 F                    -0.210368
     13 C                    -0.054636
     14 H                     0.116576
     15 H                     0.084572
     16 H                     0.084339
     17 C                    -0.365551
     18 H                     0.118304
     19 H                     0.141025
     20 H                     0.141288
     21 H                     0.213488
  ----------------------------------------
  Sum of atomic charges =     0.000000

                    Cartesian Multipole Moments
 -----------------------------------------------------------------
    Charge (ESU x 10^10)
                -0.0000
    Dipole Moment (Debye)
         X       2.5831      Y       1.3589      Z       3.8371
       Tot       4.8211
    Quadrupole Moments (Debye-Ang)
        XX     -92.3444     XY       4.9689     YY     -87.2100
        XZ      -6.7179     YZ     -10.4020     ZZ     -93.6489

 Total job time:  59.29s(wall), 2059.79s(cpu)
        *  Thank you very much for using Q-Chem.  Have a nice day.  *
