 Q-Chem 5.4, Q-Chem, Inc., Pleasanton, CA (2021)
 Q-Chem 5.4.0 for Intel X86 EM64T Linux

User input:
--------------------------------------------------------------
$molecule
0 1
C	-0.573177	-0.628442	1.021608
S	0.006723	0.059158	2.532308
C	1.018423	1.266558	1.749208
C	0.010623	0.067358	-0.043092
C	0.902123	1.132158	0.343308
C	-0.030777	0.015358	-1.464492
C	0.782123	0.984358	-2.085292
S	1.581423	1.942158	-0.944092
C	0.949223	1.176358	-3.538392
O	0.351523	0.459358	-4.328692
O	1.776523	2.157258	-3.982792
F	-0.743977	-0.840542	-2.224692
C	2.014923	2.425458	-5.313392
H	2.725623	3.271558	-5.348692
H	1.082123	2.699958	-5.853992
H	2.452823	1.548958	-5.840292
C	-0.573177	-2.063642	1.021608
H	0.259523	-2.072642	1.709308
H	-1.110177	-2.747542	1.662108
H	0.027523	-2.588042	0.293208
H	1.609923	1.971358	2.343108
$end

$rem
JOBTYPE		SP
EXCHANGE	HF
CORRELATION	pRIMP2
BASIS		cc-pvtz
METHOD		rimp2
AUX_BASIS	rimp2-cc-pvtz
SOLVENT_METHOD	PCM
PURECART	11111
SYMMETRY	false
MEM_TOTAL	110000
SCF_CONVERGENCE = 6
THRESH=10
GUI = 2
$end

$solvent
dielectric 4.90
$end
--------------------------------------------------------------

             Standard Nuclear Orientation (Angstroms)
    I     Atom           X                Y                Z
 ----------------------------------------------------------------
    1      C      -0.5731770000    -0.6284420000     1.0216080000
    2      S       0.0067230000     0.0591580000     2.5323080000
    3      C       1.0184230000     1.2665580000     1.7492080000
    4      C       0.0106230000     0.0673580000    -0.0430920000
    5      C       0.9021230000     1.1321580000     0.3433080000
    6      C      -0.0307770000     0.0153580000    -1.4644920000
    7      C       0.7821230000     0.9843580000    -2.0852920000
    8      S       1.5814230000     1.9421580000    -0.9440920000
    9      C       0.9492230000     1.1763580000    -3.5383920000
   10      O       0.3515230000     0.4593580000    -4.3286920000
   11      O       1.7765230000     2.1572580000    -3.9827920000
   12      F      -0.7439770000    -0.8405420000    -2.2246920000
   13      C       2.0149230000     2.4254580000    -5.3133920000
   14      H       2.7256230000     3.2715580000    -5.3486920000
   15      H       1.0821230000     2.6999580000    -5.8539920000
   16      H       2.4528230000     1.5489580000    -5.8402920000
   17      C      -0.5731770000    -2.0636420000     1.0216080000
   18      H       0.2595230000    -2.0726420000     1.7093080000
   19      H      -1.1101770000    -2.7475420000     1.6621080000
   20      H       0.0275230000    -2.5880420000     0.2932080000
   21      H       1.6099230000     1.9713580000     2.3431080000
 ----------------------------------------------------------------

   11   -1389.2199128707      5.67e-07  Convergence criterion met
 Total energy in the final basis set =    -1389.2199128707
        RIMP2         total energy =     -1391.7326900435 a.u.

                    Orbital Energies (a.u.)
 --------------------------------------------------------------

 Alpha MOs
 -- Occupied --
-92.0006 -91.9915 -26.3336 -20.6115 -20.5492 -11.4094 -11.3758 -11.3015
-11.2953 -11.2921 -11.2908 -11.2882 -11.2745 -11.2258  -9.0007  -8.9957
 -6.6814  -6.6807  -6.6803  -6.6770  -6.6763  -6.6749  -1.6465  -1.4712
 -1.3665  -1.2303  -1.1518  -1.0670  -1.0302  -1.0029  -0.9695  -0.9061
 -0.8655  -0.7974  -0.7854  -0.7697  -0.7275  -0.7148  -0.6958  -0.6780
 -0.6760  -0.6694  -0.6091  -0.6054  -0.6015  -0.5893  -0.5693  -0.5631
 -0.5413  -0.5264  -0.5136  -0.4902  -0.4802  -0.4612  -0.4599  -0.4468
 -0.3924  -0.3450  -0.2765

          Ground-State Mulliken Net Atomic Charges

     Atom                 Charge (a.u.)
  ----------------------------------------
      1 C                     0.028837
      2 S                     0.077405
      3 C                    -0.231111
      4 C                    -0.105125
      5 C                    -0.016141
      6 C                     0.370425
      7 C                    -0.157012
      8 S                     0.033907
      9 C                     0.457955
     10 O                    -0.451229
     11 O                    -0.298004
     12 F                    -0.209731
     13 C                    -0.054614
     14 H                     0.116467
     15 H                     0.084403
     16 H                     0.084080
     17 C                    -0.379950
     18 H                     0.141311
     19 H                     0.152540
     20 H                     0.144144
     21 H                     0.211444
  ----------------------------------------
  Sum of atomic charges =     0.000000

                    Cartesian Multipole Moments
 -----------------------------------------------------------------
    Charge (ESU x 10^10)
                -0.0000
    Dipole Moment (Debye)
         X       2.6627      Y       0.7639      Z       3.6780
       Tot       4.6044
    Quadrupole Moments (Debye-Ang)
        XX     -93.2218     XY       4.0586     YY     -86.8943
        XZ      -6.4991     YZ     -10.5234     ZZ     -94.6829

 Total job time:  61.13s(wall), 1935.80s(cpu)
        *  Thank you very much for using Q-Chem.  Have a nice day.  *
