 Q-Chem 5.4, Q-Chem, Inc., Pleasanton, CA (2021)
 Q-Chem 5.4.0 for Intel X86 EM64T Linux

User input:
--------------------------------------------------------------
$molecule
0 1
C	-0.231831	-0.806326	1.020653
S	0.003069	0.061874	2.531353
C	0.409769	1.583774	1.748253
C	0.003169	0.070974	-0.044047
C	0.361169	1.412774	0.342353
C	-0.012331	0.006374	-1.465447
C	0.314869	1.228174	-2.086247
S	0.634469	2.434074	-0.945047
C	0.385269	1.472774	-3.539347
O	0.146469	0.570274	-4.329647
O	0.720469	2.711374	-3.983747
F	-0.296931	-1.070726	-2.225647
C	0.823169	3.055274	-5.314347
H	1.109669	4.122374	-5.349647
H	-0.138231	2.909774	-5.854947
H	1.590469	2.445874	-5.841247
C	-0.231831	-2.241526	1.020653
H	-0.035931	-2.250526	2.082753
H	-1.054931	-2.925426	1.166153
H	0.696569	-2.765926	0.848853
H	0.647969	2.472474	2.342153
$end

$rem
JOBTYPE		SP
EXCHANGE	HF
CORRELATION	pRIMP2
BASIS		cc-pvtz
METHOD		rimp2
AUX_BASIS	rimp2-cc-pvtz
SOLVENT_METHOD	PCM
PURECART	11111
SYMMETRY	false
MEM_TOTAL	110000
SCF_CONVERGENCE = 6
THRESH=10
GUI = 2
$end

$solvent
dielectric 4.90
$end
--------------------------------------------------------------

             Standard Nuclear Orientation (Angstroms)
    I     Atom           X                Y                Z
 ----------------------------------------------------------------
    1      C      -0.2318310000    -0.8063260000     1.0206530000
    2      S       0.0030690000     0.0618740000     2.5313530000
    3      C       0.4097690000     1.5837740000     1.7482530000
    4      C       0.0031690000     0.0709740000    -0.0440470000
    5      C       0.3611690000     1.4127740000     0.3423530000
    6      C      -0.0123310000     0.0063740000    -1.4654470000
    7      C       0.3148690000     1.2281740000    -2.0862470000
    8      S       0.6344690000     2.4340740000    -0.9450470000
    9      C       0.3852690000     1.4727740000    -3.5393470000
   10      O       0.1464690000     0.5702740000    -4.3296470000
   11      O       0.7204690000     2.7113740000    -3.9837470000
   12      F      -0.2969310000    -1.0707260000    -2.2256470000
   13      C       0.8231690000     3.0552740000    -5.3143470000
   14      H       1.1096690000     4.1223740000    -5.3496470000
   15      H      -0.1382310000     2.9097740000    -5.8549470000
   16      H       1.5904690000     2.4458740000    -5.8412470000
   17      C      -0.2318310000    -2.2415260000     1.0206530000
   18      H      -0.0359310000    -2.2505260000     2.0827530000
   19      H      -1.0549310000    -2.9254260000     1.1661530000
   20      H       0.6965690000    -2.7659260000     0.8488530000
   21      H       0.6479690000     2.4724740000     2.3421530000
 ----------------------------------------------------------------

   11   -1389.2478759612      4.96e-07  Convergence criterion met
 Total energy in the final basis set =    -1389.2478759612
        RIMP2         total energy =     -1391.7552473319 a.u.

                    Orbital Energies (a.u.)
 --------------------------------------------------------------

 Alpha MOs
 -- Occupied --
-92.0091 -91.9902 -26.3329 -20.6105 -20.5476 -11.4080 -11.3749 -11.3056
-11.2922 -11.2915 -11.2877 -11.2851 -11.2697 -11.2276  -9.0078  -8.9944
 -6.6886  -6.6880  -6.6875  -6.6757  -6.6750  -6.6737  -1.6459  -1.4701
 -1.3652  -1.2271  -1.1473  -1.0650  -1.0299  -1.0050  -0.9686  -0.9093
 -0.8646  -0.7968  -0.7841  -0.7681  -0.7264  -0.7139  -0.6955  -0.6772
 -0.6760  -0.6681  -0.6090  -0.6044  -0.5976  -0.5875  -0.5722  -0.5699
 -0.5441  -0.5248  -0.5051  -0.4815  -0.4746  -0.4618  -0.4599  -0.4576
 -0.3958  -0.3458  -0.2824

          Ground-State Mulliken Net Atomic Charges

     Atom                 Charge (a.u.)
  ----------------------------------------
      1 C                     0.043426
      2 S                     0.084449
      3 C                    -0.252958
      4 C                    -0.095394
      5 C                    -0.008947
      6 C                     0.382395
      7 C                    -0.162828
      8 S                     0.030944
      9 C                     0.458194
     10 O                    -0.453755
     11 O                    -0.298289
     12 F                    -0.212593
     13 C                    -0.054889
     14 H                     0.116247
     15 H                     0.084080
     16 H                     0.083908
     17 C                    -0.365229
     18 H                     0.114178
     19 H                     0.152634
     20 H                     0.142170
     21 H                     0.212257
  ----------------------------------------
  Sum of atomic charges =     0.000000

                    Cartesian Multipole Moments
 -----------------------------------------------------------------
    Charge (ESU x 10^10)
                -0.0000
    Dipole Moment (Debye)
         X       0.9094      Y       1.1825      Z       4.1183
       Tot       4.3802
    Quadrupole Moments (Debye-Ang)
        XX     -95.3335     XY       2.3204     YY     -83.0996
        XZ      -2.8409     YZ     -13.0539     ZZ     -94.8081

 Total job time:  53.33s(wall), 1913.13s(cpu)
        *  Thank you very much for using Q-Chem.  Have a nice day.  *
