 Q-Chem 5.4, Q-Chem, Inc., Pleasanton, CA (2021)
 Q-Chem 5.4.0 for Intel X86 EM64T Linux

User input:
--------------------------------------------------------------
$molecule
0 1
C	-0.768388	-0.392188	1.025267
S	0.011612	0.055612	2.535967
C	1.375412	0.844212	1.752867
C	0.018112	0.061912	-0.039433
C	1.220112	0.757612	0.346967
C	-0.038488	0.027312	-1.460833
C	1.056812	0.659812	-2.081633
S	2.135512	1.286512	-0.940433
C	1.279512	0.783012	-3.534733
O	0.472612	0.313712	-4.325033
O	2.392412	1.421812	-3.979133
F	-1.001388	-0.533088	-2.221033
C	2.708112	1.592412	-5.309733
H	3.665312	2.144312	-5.345033
H	1.925412	2.169312	-5.850333
H	2.819812	0.618912	-5.836633
C	-0.768388	-1.827388	1.025267
H	-0.776888	-1.836388	-0.054633
H	0.067512	-2.511288	1.024867
H	-1.712488	-2.351788	1.033267
H	2.172212	1.304112	2.346767
$end

$rem
JOBTYPE		SP
EXCHANGE	HF
CORRELATION	pRIMP2
BASIS		cc-pvtz
METHOD		rimp2
AUX_BASIS	rimp2-cc-pvtz
SOLVENT_METHOD	PCM
PURECART	11111
SYMMETRY	false
MEM_TOTAL	110000
SCF_CONVERGENCE = 6
THRESH=10
GUI = 2
$end

$solvent
dielectric 4.90
$end
--------------------------------------------------------------

             Standard Nuclear Orientation (Angstroms)
    I     Atom           X                Y                Z
 ----------------------------------------------------------------
    1      C      -0.7683880000    -0.3921880000     1.0252670000
    2      S       0.0116120000     0.0556120000     2.5359670000
    3      C       1.3754120000     0.8442120000     1.7528670000
    4      C       0.0181120000     0.0619120000    -0.0394330000
    5      C       1.2201120000     0.7576120000     0.3469670000
    6      C      -0.0384880000     0.0273120000    -1.4608330000
    7      C       1.0568120000     0.6598120000    -2.0816330000
    8      S       2.1355120000     1.2865120000    -0.9404330000
    9      C       1.2795120000     0.7830120000    -3.5347330000
   10      O       0.4726120000     0.3137120000    -4.3250330000
   11      O       2.3924120000     1.4218120000    -3.9791330000
   12      F      -1.0013880000    -0.5330880000    -2.2210330000
   13      C       2.7081120000     1.5924120000    -5.3097330000
   14      H       3.6653120000     2.1443120000    -5.3450330000
   15      H       1.9254120000     2.1693120000    -5.8503330000
   16      H       2.8198120000     0.6189120000    -5.8366330000
   17      C      -0.7683880000    -1.8273880000     1.0252670000
   18      H      -0.7768880000    -1.8363880000    -0.0546330000
   19      H       0.0675120000    -2.5112880000     1.0248670000
   20      H      -1.7124880000    -2.3517880000     1.0332670000
   21      H       2.1722120000     1.3041120000     2.3467670000
 ----------------------------------------------------------------

   11   -1389.1797645577      8.90e-07  Convergence criterion met
 Total energy in the final basis set =    -1389.1797645577
        RIMP2         total energy =     -1391.7050740742 a.u.

                    Orbital Energies (a.u.)
 --------------------------------------------------------------

 Alpha MOs
 -- Occupied --
-92.0029 -92.0023 -26.3345 -20.6151 -20.5557 -11.4149 -11.3740 -11.3164
-11.3084 -11.2946 -11.2901 -11.2849 -11.2615 -11.2139  -9.0058  -9.0025
 -6.6870  -6.6864  -6.6851  -6.6831  -6.6822  -6.6821  -1.6478  -1.4752
 -1.3713  -1.2367  -1.1541  -1.0731  -1.0307  -1.0006  -0.9724  -0.9053
 -0.8678  -0.7975  -0.7895  -0.7732  -0.7302  -0.7170  -0.6987  -0.6811
 -0.6767  -0.6745  -0.6102  -0.6066  -0.6045  -0.5896  -0.5796  -0.5629
 -0.5333  -0.5271  -0.5120  -0.4867  -0.4702  -0.4645  -0.4631  -0.4291
 -0.3884  -0.3402  -0.2950

          Ground-State Mulliken Net Atomic Charges

     Atom                 Charge (a.u.)
  ----------------------------------------
      1 C                    -0.140938
      2 S                     0.107239
      3 C                    -0.165065
      4 C                    -0.005031
      5 C                    -0.034962
      6 C                     0.341829
      7 C                    -0.123517
      8 S                     0.065055
      9 C                     0.456487
     10 O                    -0.441003
     11 O                    -0.296567
     12 F                    -0.211128
     13 C                    -0.054701
     14 H                     0.117355
     15 H                     0.085537
     16 H                     0.085126
     17 C                    -0.354862
     18 H                     0.102372
     19 H                     0.135871
     20 H                     0.114925
     21 H                     0.215978
  ----------------------------------------
  Sum of atomic charges =     0.000000

                    Cartesian Multipole Moments
 -----------------------------------------------------------------
    Charge (ESU x 10^10)
                -0.0000
    Dipole Moment (Debye)
         X       4.6477      Y       1.3721      Z       2.1692
       Tot       5.3094
    Quadrupole Moments (Debye-Ang)
        XX     -88.6973     XY       5.0876     YY     -91.3439
        XZ      -7.6597     YZ      -4.8043     ZZ     -94.2643

 Total job time:  53.26s(wall), 1950.93s(cpu)
        *  Thank you very much for using Q-Chem.  Have a nice day.  *
