 Q-Chem 5.4, Q-Chem, Inc., Pleasanton, CA (2021)
 Q-Chem 5.4.0 for Intel X86 EM64T Linux

User input:
--------------------------------------------------------------
$molecule
0 1
C	-0.076887	-0.833466	1.023873
S	0.003713	0.062334	2.534573
C	0.139913	1.631734	1.751473
C	0.002213	0.071334	-0.040827
C	0.121813	1.454934	0.345573
C	-0.001887	0.005034	-1.462227
C	0.108213	1.265034	-2.083027
S	0.213613	2.508134	-0.941827
C	0.135013	1.518134	-3.536127
O	0.056613	0.587934	-4.326427
O	0.250113	2.796134	-3.980527
F	-0.095087	-1.105166	-2.222427
C	0.291513	3.152634	-5.311127
H	0.388413	4.253334	-5.346427
H	-0.629987	2.842434	-5.851727
H	1.153013	2.685834	-5.838027
C	-0.076887	-2.268666	1.023873
H	-1.016387	-2.277666	0.491273
H	0.340713	-2.952566	0.299773
H	-0.541987	-2.793066	1.845473
H	0.220213	2.548234	2.345373
$end

$rem
JOBTYPE		SP
EXCHANGE	HF
CORRELATION	pRIMP2
BASIS		cc-pvtz
METHOD		rimp2
AUX_BASIS	rimp2-cc-pvtz
SOLVENT_METHOD	PCM
PURECART	11111
SYMMETRY	false
MEM_TOTAL	110000
SCF_CONVERGENCE = 6
THRESH=10
GUI = 2
$end

$solvent
dielectric 4.90
$end
--------------------------------------------------------------

             Standard Nuclear Orientation (Angstroms)
    I     Atom           X                Y                Z
 ----------------------------------------------------------------
    1      C      -0.0768870000    -0.8334660000     1.0238730000
    2      S       0.0037130000     0.0623340000     2.5345730000
    3      C       0.1399130000     1.6317340000     1.7514730000
    4      C       0.0022130000     0.0713340000    -0.0408270000
    5      C       0.1218130000     1.4549340000     0.3455730000
    6      C      -0.0018870000     0.0050340000    -1.4622270000
    7      C       0.1082130000     1.2650340000    -2.0830270000
    8      S       0.2136130000     2.5081340000    -0.9418270000
    9      C       0.1350130000     1.5181340000    -3.5361270000
   10      O       0.0566130000     0.5879340000    -4.3264270000
   11      O       0.2501130000     2.7961340000    -3.9805270000
   12      F      -0.0950870000    -1.1051660000    -2.2224270000
   13      C       0.2915130000     3.1526340000    -5.3111270000
   14      H       0.3884130000     4.2533340000    -5.3464270000
   15      H      -0.6299870000     2.8424340000    -5.8517270000
   16      H       1.1530130000     2.6858340000    -5.8380270000
   17      C      -0.0768870000    -2.2686660000     1.0238730000
   18      H      -1.0163870000    -2.2776660000     0.4912730000
   19      H       0.3407130000    -2.9525660000     0.2997730000
   20      H      -0.5419870000    -2.7930660000     1.8454730000
   21      H       0.2202130000     2.5482340000     2.3453730000
 ----------------------------------------------------------------

   11   -1389.2557819243      4.41e-07  Convergence criterion met
 Total energy in the final basis set =    -1389.2557819243
        RIMP2         total energy =     -1391.7594523058 a.u.

                    Orbital Energies (a.u.)
 --------------------------------------------------------------

 Alpha MOs
 -- Occupied --
-92.0069 -91.9885 -26.3347 -20.6093 -20.5453 -11.4061 -11.3765 -11.3182
-11.2916 -11.2875 -11.2872 -11.2754 -11.2674 -11.2340  -9.0055  -8.9927
 -6.6863  -6.6857  -6.6852  -6.6740  -6.6733  -6.6720  -1.6476  -1.4688
 -1.3636  -1.2262  -1.1460  -1.0676  -1.0267  -1.0067  -0.9676  -0.9117
 -0.8625  -0.7955  -0.7846  -0.7657  -0.7257  -0.7153  -0.6973  -0.6784
 -0.6763  -0.6673  -0.6099  -0.6030  -0.5929  -0.5860  -0.5850  -0.5622
 -0.5407  -0.5233  -0.5103  -0.4921  -0.4786  -0.4624  -0.4588  -0.4564
 -0.3906  -0.3464  -0.2741

          Ground-State Mulliken Net Atomic Charges

     Atom                 Charge (a.u.)
  ----------------------------------------
      1 C                     0.054604
      2 S                     0.086011
      3 C                    -0.277020
      4 C                    -0.109078
      5 C                    -0.005859
      6 C                     0.392637
      7 C                    -0.168841
      8 S                     0.024067
      9 C                     0.460122
     10 O                    -0.459021
     11 O                    -0.298967
     12 F                    -0.214468
     13 C                    -0.055085
     14 H                     0.116019
     15 H                     0.083584
     16 H                     0.083550
     17 C                    -0.377093
     18 H                     0.140645
     19 H                     0.167353
     20 H                     0.147641
     21 H                     0.209200
  ----------------------------------------
  Sum of atomic charges =     0.000000

                    Cartesian Multipole Moments
 -----------------------------------------------------------------
    Charge (ESU x 10^10)
                -0.0000
    Dipole Moment (Debye)
         X      -0.4554      Y       0.3291      Z       3.3948
       Tot       3.4410
    Quadrupole Moments (Debye-Ang)
        XX     -96.2543     XY       2.5216     YY     -81.8953
        XZ      -1.9102     YZ     -11.5400     ZZ     -97.5229

 Total job time:  55.09s(wall), 1961.18s(cpu)
        *  Thank you very much for using Q-Chem.  Have a nice day.  *
