 Q-Chem 5.4, Q-Chem, Inc., Pleasanton, CA (2021)
 Q-Chem 5.4.0 for Intel X86 EM64T Linux

User input:
--------------------------------------------------------------
$molecule
0 1
C	-0.569310	-0.628442	1.021526
S	0.010590	0.059158	2.532226
C	1.022290	1.266558	1.749126
C	0.014490	0.067358	-0.043174
C	0.905990	1.132158	0.343226
C	-0.026910	0.015358	-1.464574
C	0.785990	0.984358	-2.085374
S	1.585290	1.942158	-0.944174
C	0.953090	1.176358	-3.538474
O	0.355390	0.459358	-4.328774
O	1.780390	2.157258	-3.982874
F	-0.740110	-0.840542	-2.224774
C	2.018790	2.425458	-5.313474
H	2.729490	3.271558	-5.348774
H	1.085990	2.699958	-5.854074
H	2.456690	1.548958	-5.840374
C	-0.569310	-2.063642	1.021526
H	-1.500310	-2.072642	1.568826
H	-0.987510	-2.747542	0.297826
H	-0.090310	-2.588042	1.835126
H	1.613790	1.971358	2.343026
$end

$rem
JOBTYPE		SP
EXCHANGE	HF
CORRELATION	pRIMP2
BASIS		cc-pvtz
METHOD		rimp2
AUX_BASIS	rimp2-cc-pvtz
SOLVENT_METHOD	PCM
PURECART	11111
SYMMETRY	false
MEM_TOTAL	110000
SCF_CONVERGENCE = 6
THRESH=10
GUI = 2
$end

$solvent
dielectric 4.90
$end
--------------------------------------------------------------

             Standard Nuclear Orientation (Angstroms)
    I     Atom           X                Y                Z
 ----------------------------------------------------------------
    1      C      -0.5693100000    -0.6284420000     1.0215260000
    2      S       0.0105900000     0.0591580000     2.5322260000
    3      C       1.0222900000     1.2665580000     1.7491260000
    4      C       0.0144900000     0.0673580000    -0.0431740000
    5      C       0.9059900000     1.1321580000     0.3432260000
    6      C      -0.0269100000     0.0153580000    -1.4645740000
    7      C       0.7859900000     0.9843580000    -2.0853740000
    8      S       1.5852900000     1.9421580000    -0.9441740000
    9      C       0.9530900000     1.1763580000    -3.5384740000
   10      O       0.3553900000     0.4593580000    -4.3287740000
   11      O       1.7803900000     2.1572580000    -3.9828740000
   12      F      -0.7401100000    -0.8405420000    -2.2247740000
   13      C       2.0187900000     2.4254580000    -5.3134740000
   14      H       2.7294900000     3.2715580000    -5.3487740000
   15      H       1.0859900000     2.6999580000    -5.8540740000
   16      H       2.4566900000     1.5489580000    -5.8403740000
   17      C      -0.5693100000    -2.0636420000     1.0215260000
   18      H      -1.5003100000    -2.0726420000     1.5688260000
   19      H      -0.9875100000    -2.7475420000     0.2978260000
   20      H      -0.0903100000    -2.5880420000     1.8351260000
   21      H       1.6137900000     1.9713580000     2.3430260000
 ----------------------------------------------------------------

   11   -1389.2173200568      6.06e-07  Convergence criterion met
 Total energy in the final basis set =    -1389.2173200568
        RIMP2         total energy =     -1391.7323988084 a.u.

                    Orbital Energies (a.u.)
 --------------------------------------------------------------

 Alpha MOs
 -- Occupied --
-92.0065 -91.9919 -26.3329 -20.6111 -20.5487 -11.4088 -11.3743 -11.2956
-11.2944 -11.2925 -11.2914 -11.2880 -11.2717 -11.2228  -9.0055  -8.9960
 -6.6863  -6.6856  -6.6852  -6.6772  -6.6766  -6.6752  -1.6459  -1.4708
 -1.3660  -1.2286  -1.1487  -1.0654  -1.0292  -1.0035  -0.9689  -0.9084
 -0.8649  -0.7965  -0.7850  -0.7687  -0.7267  -0.7142  -0.6947  -0.6777
 -0.6747  -0.6691  -0.6088  -0.6050  -0.5933  -0.5880  -0.5833  -0.5599
 -0.5303  -0.5259  -0.5111  -0.4892  -0.4809  -0.4610  -0.4592  -0.4529
 -0.3852  -0.3456  -0.2766

          Ground-State Mulliken Net Atomic Charges

     Atom                 Charge (a.u.)
  ----------------------------------------
      1 C                    -0.055402
      2 S                     0.090394
      3 C                    -0.227010
      4 C                    -0.033903
      5 C                    -0.016780
      6 C                     0.365371
      7 C                    -0.156922
      8 S                     0.035791
      9 C                     0.457150
     10 O                    -0.452050
     11 O                    -0.298137
     12 F                    -0.211184
     13 C                    -0.054654
     14 H                     0.116357
     15 H                     0.084202
     16 H                     0.084039
     17 C                    -0.380567
     18 H                     0.132152
     19 H                     0.160401
     20 H                     0.148128
     21 H                     0.212624
  ----------------------------------------
  Sum of atomic charges =     0.000000

                    Cartesian Multipole Moments
 -----------------------------------------------------------------
    Charge (ESU x 10^10)
                -0.0000
    Dipole Moment (Debye)
         X       1.6260      Y       0.9269      Z       3.7305
       Tot       4.1737
    Quadrupole Moments (Debye-Ang)
        XX     -92.0779     XY       6.5520     YY     -86.8870
        XZ      -6.8734     YZ      -9.7552     ZZ     -94.6535

 Total job time:  56.03s(wall), 1948.38s(cpu)
        *  Thank you very much for using Q-Chem.  Have a nice day.  *
