 Q-Chem 5.4, Q-Chem, Inc., Pleasanton, CA (2021)
 Q-Chem 5.4.0 for Intel X86 EM64T Linux

User input:
--------------------------------------------------------------
$molecule
0 1
C	-0.155454	-0.823218	1.025267
S	0.002946	0.062182	2.535967
C	0.275446	1.613782	1.752867
C	0.002246	0.071182	-0.039433
C	0.241946	1.439182	0.346967
C	-0.007654	0.005582	-1.460833
C	0.211846	1.251182	-2.081633
S	0.425146	2.480282	-0.940433
C	0.260646	1.500982	-3.534733
O	0.101446	0.581182	-4.325033
O	0.486646	2.764082	-3.979133
F	-0.197254	-1.092318	-2.221033
C	0.558946	3.115582	-5.309733
H	0.751346	4.203682	-5.345033
H	-0.386154	2.886882	-5.850333
H	1.376446	2.575482	-5.836633
C	-0.155454	-2.258418	1.025267
H	-0.163954	-2.267418	-0.054633
H	0.680446	-2.942318	1.024867
H	-1.099554	-2.782818	1.033267
H	0.435246	2.519782	2.346767
$end

$rem
JOBTYPE		SP
EXCHANGE	HF
CORRELATION	pRIMP2
BASIS		cc-pvtz
METHOD		rimp2
AUX_BASIS	rimp2-cc-pvtz
SOLVENT_METHOD	PCM
PURECART	11111
SYMMETRY	false
MEM_TOTAL	110000
SCF_CONVERGENCE = 6
THRESH=10
GUI = 2
$end

$solvent
dielectric 4.90
$end
--------------------------------------------------------------

             Standard Nuclear Orientation (Angstroms)
    I     Atom           X                Y                Z
 ----------------------------------------------------------------
    1      C      -0.1554540000    -0.8232180000     1.0252670000
    2      S       0.0029460000     0.0621820000     2.5359670000
    3      C       0.2754460000     1.6137820000     1.7528670000
    4      C       0.0022460000     0.0711820000    -0.0394330000
    5      C       0.2419460000     1.4391820000     0.3469670000
    6      C      -0.0076540000     0.0055820000    -1.4608330000
    7      C       0.2118460000     1.2511820000    -2.0816330000
    8      S       0.4251460000     2.4802820000    -0.9404330000
    9      C       0.2606460000     1.5009820000    -3.5347330000
   10      O       0.1014460000     0.5811820000    -4.3250330000
   11      O       0.4866460000     2.7640820000    -3.9791330000
   12      F      -0.1972540000    -1.0923180000    -2.2210330000
   13      C       0.5589460000     3.1155820000    -5.3097330000
   14      H       0.7513460000     4.2036820000    -5.3450330000
   15      H      -0.3861540000     2.8868820000    -5.8503330000
   16      H       1.3764460000     2.5754820000    -5.8366330000
   17      C      -0.1554540000    -2.2584180000     1.0252670000
   18      H      -0.1639540000    -2.2674180000    -0.0546330000
   19      H       0.6804460000    -2.9423180000     1.0248670000
   20      H      -1.0995540000    -2.7828180000     1.0332670000
   21      H       0.4352460000     2.5197820000     2.3467670000
 ----------------------------------------------------------------

   11   -1389.2523119008      5.09e-07  Convergence criterion met
 Total energy in the final basis set =    -1389.2523119008
        RIMP2         total energy =     -1391.7602738958 a.u.

                    Orbital Energies (a.u.)
 --------------------------------------------------------------

 Alpha MOs
 -- Occupied --
-92.0036 -91.9912 -26.3358 -20.6112 -20.5486 -11.4089 -11.3767 -11.3071
-11.2937 -11.2916 -11.2881 -11.2849 -11.2745 -11.2270  -9.0026  -8.9953
 -6.6833  -6.6827  -6.6824  -6.6766  -6.6759  -6.6746  -1.6491  -1.4709
 -1.3661  -1.2283  -1.1452  -1.0679  -1.0272  -1.0062  -0.9688  -0.9115
 -0.8640  -0.7961  -0.7869  -0.7674  -0.7270  -0.7169  -0.6975  -0.6784
 -0.6778  -0.6696  -0.6082  -0.6050  -0.5982  -0.5886  -0.5789  -0.5694
 -0.5443  -0.5250  -0.5049  -0.4815  -0.4709  -0.4631  -0.4606  -0.4521
 -0.3979  -0.3452  -0.2832

          Ground-State Mulliken Net Atomic Charges

     Atom                 Charge (a.u.)
  ----------------------------------------
      1 C                     0.038555
      2 S                     0.082530
      3 C                    -0.249174
      4 C                    -0.100428
      5 C                    -0.011545
      6 C                     0.372600
      7 C                    -0.143435
      8 S                     0.031561
      9 C                     0.457753
     10 O                    -0.453446
     11 O                    -0.298035
     12 F                    -0.214067
     13 C                    -0.054950
     14 H                     0.116499
     15 H                     0.084119
     16 H                     0.084051
     17 C                    -0.360606
     18 H                     0.113924
     19 H                     0.154009
     20 H                     0.139523
     21 H                     0.210560
  ----------------------------------------
  Sum of atomic charges =     0.000000

                    Cartesian Multipole Moments
 -----------------------------------------------------------------
    Charge (ESU x 10^10)
                -0.0000
    Dipole Moment (Debye)
         X       0.4993      Y       1.2034      Z       2.7357
       Tot       3.0301
    Quadrupole Moments (Debye-Ang)
        XX     -95.5510     XY       1.7246     YY     -82.4424
        XZ      -1.7961     YZ     -10.3529     ZZ     -97.5567

 Total job time:  60.54s(wall), 1975.22s(cpu)
        *  Thank you very much for using Q-Chem.  Have a nice day.  *
