 Q-Chem 5.4, Q-Chem, Inc., Pleasanton, CA (2021)
 Q-Chem 5.4.0 for Intel X86 EM64T Linux

User input:
--------------------------------------------------------------
$molecule
0 1
C	-0.156662	-0.823218	1.025081
S	0.001738	0.062182	2.535781
C	0.274238	1.613782	1.752681
C	0.001038	0.071182	-0.039619
C	0.240738	1.439182	0.346781
C	-0.008862	0.005582	-1.461019
C	0.210638	1.251182	-2.081819
S	0.423938	2.480282	-0.940619
C	0.259438	1.500982	-3.534919
O	0.100238	0.581182	-4.325219
O	0.485438	2.764082	-3.979319
F	-0.198462	-1.092318	-2.221219
C	0.557738	3.115582	-5.309919
H	0.750138	4.203682	-5.345219
H	-0.387362	2.886882	-5.850519
H	1.375238	2.575482	-5.836819
C	-0.156662	-2.258418	1.025081
H	0.375938	-2.267418	0.085581
H	0.567438	-2.942318	1.442681
H	-0.978262	-2.782818	0.559981
H	0.434038	2.519782	2.346581
$end

$rem
JOBTYPE		SP
EXCHANGE	HF
CORRELATION	pRIMP2
BASIS		cc-pvtz
METHOD		rimp2
AUX_BASIS	rimp2-cc-pvtz
SOLVENT_METHOD	PCM
PURECART	11111
SYMMETRY	false
MEM_TOTAL	110000
SCF_CONVERGENCE = 6
THRESH=10
GUI = 2
$end

$solvent
dielectric 4.90
$end
--------------------------------------------------------------

             Standard Nuclear Orientation (Angstroms)
    I     Atom           X                Y                Z
 ----------------------------------------------------------------
    1      C      -0.1566620000    -0.8232180000     1.0250810000
    2      S       0.0017380000     0.0621820000     2.5357810000
    3      C       0.2742380000     1.6137820000     1.7526810000
    4      C       0.0010380000     0.0711820000    -0.0396190000
    5      C       0.2407380000     1.4391820000     0.3467810000
    6      C      -0.0088620000     0.0055820000    -1.4610190000
    7      C       0.2106380000     1.2511820000    -2.0818190000
    8      S       0.4239380000     2.4802820000    -0.9406190000
    9      C       0.2594380000     1.5009820000    -3.5349190000
   10      O       0.1002380000     0.5811820000    -4.3252190000
   11      O       0.4854380000     2.7640820000    -3.9793190000
   12      F      -0.1984620000    -1.0923180000    -2.2212190000
   13      C       0.5577380000     3.1155820000    -5.3099190000
   14      H       0.7501380000     4.2036820000    -5.3452190000
   15      H      -0.3873620000     2.8868820000    -5.8505190000
   16      H       1.3752380000     2.5754820000    -5.8368190000
   17      C      -0.1566620000    -2.2584180000     1.0250810000
   18      H       0.3759380000    -2.2674180000     0.0855810000
   19      H       0.5674380000    -2.9423180000     1.4426810000
   20      H      -0.9782620000    -2.7828180000     0.5599810000
   21      H       0.4340380000     2.5197820000     2.3465810000
 ----------------------------------------------------------------

   11   -1389.2523439434      4.84e-07  Convergence criterion met
 Total energy in the final basis set =    -1389.2523439434
        RIMP2         total energy =     -1391.7592803236 a.u.

                    Orbital Energies (a.u.)
 --------------------------------------------------------------

 Alpha MOs
 -- Occupied --
-92.0053 -91.9904 -26.3353 -20.6105 -20.5474 -11.4079 -11.3765 -11.3118
-11.2918 -11.2915 -11.2878 -11.2807 -11.2716 -11.2296  -9.0041  -8.9945
 -6.6848  -6.6842  -6.6839  -6.6758  -6.6752  -6.6738  -1.6484  -1.4701
 -1.3652  -1.2277  -1.1457  -1.0681  -1.0268  -1.0063  -0.9684  -0.9114
 -0.8634  -0.7957  -0.7859  -0.7666  -0.7265  -0.7163  -0.6974  -0.6782
 -0.6773  -0.6687  -0.6093  -0.6042  -0.5966  -0.5880  -0.5844  -0.5660
 -0.5421  -0.5245  -0.5047  -0.4827  -0.4733  -0.4649  -0.4601  -0.4564
 -0.3940  -0.3454  -0.2797

          Ground-State Mulliken Net Atomic Charges

     Atom                 Charge (a.u.)
  ----------------------------------------
      1 C                     0.045100
      2 S                     0.084113
      3 C                    -0.260316
      4 C                    -0.093568
      5 C                    -0.011764
      6 C                     0.375347
      7 C                    -0.154757
      8 S                     0.030024
      9 C                     0.457919
     10 O                    -0.455432
     11 O                    -0.298382
     12 F                    -0.213767
     13 C                    -0.054924
     14 H                     0.116296
     15 H                     0.083936
     16 H                     0.083827
     17 C                    -0.376653
     18 H                     0.126268
     19 H                     0.164409
     20 H                     0.142443
     21 H                     0.209881
  ----------------------------------------
  Sum of atomic charges =     0.000000

                    Cartesian Multipole Moments
 -----------------------------------------------------------------
    Charge (ESU x 10^10)
                -0.0000
    Dipole Moment (Debye)
         X       0.8008      Y       0.8605      Z       2.9437
       Tot       3.1697
    Quadrupole Moments (Debye-Ang)
        XX     -95.8600     XY       0.8068     YY     -82.3592
        XZ      -1.1839     YZ     -10.7972     ZZ     -97.6010

 Total job time:  54.32s(wall), 1943.24s(cpu)
        *  Thank you very much for using Q-Chem.  Have a nice day.  *
