 Q-Chem 5.4, Q-Chem, Inc., Pleasanton, CA (2021)
 Q-Chem 5.4.0 for Intel X86 EM64T Linux

User input:
--------------------------------------------------------------
$molecule
0 1
C	0.000550	-0.836989	1.022665
S	0.002750	0.062411	2.533365
C	0.001750	1.637711	1.750265
C	0.000550	0.071211	-0.042035
C	-0.000950	1.460011	0.344365
C	0.002150	0.004811	-1.463435
C	0.002050	1.269711	-2.084235
S	-0.001250	2.517211	-0.943035
C	0.006750	1.524111	-3.537335
O	0.009750	0.590611	-4.327635
O	0.009950	2.807311	-3.981735
F	0.006050	-1.109289	-2.223635
C	0.020150	3.166011	-5.312335
H	0.020750	4.271011	-5.347635
H	-0.870850	2.776711	-5.852935
H	0.919050	2.776111	-5.839235
C	0.000550	-2.272189	1.022665
H	-1.079350	-2.281189	1.031165
H	0.000150	-2.956089	0.186765
H	0.008550	-2.796589	1.966765
H	0.001750	2.557811	2.344165
$end

$rem
JOBTYPE		SP
EXCHANGE	HF
CORRELATION	pRIMP2
BASIS		cc-pvtz
METHOD		rimp2
AUX_BASIS	rimp2-cc-pvtz
SOLVENT_METHOD	PCM
PURECART	11111
SYMMETRY	false
MEM_TOTAL	110000
SCF_CONVERGENCE = 6
THRESH=10
GUI = 2
$end

$solvent
dielectric 4.90
$end
--------------------------------------------------------------

             Standard Nuclear Orientation (Angstroms)
    I     Atom           X                Y                Z
 ----------------------------------------------------------------
    1      C       0.0005500000    -0.8369890000     1.0226650000
    2      S       0.0027500000     0.0624110000     2.5333650000
    3      C       0.0017500000     1.6377110000     1.7502650000
    4      C       0.0005500000     0.0712110000    -0.0420350000
    5      C      -0.0009500000     1.4600110000     0.3443650000
    6      C       0.0021500000     0.0048110000    -1.4634350000
    7      C       0.0020500000     1.2697110000    -2.0842350000
    8      S      -0.0012500000     2.5172110000    -0.9430350000
    9      C       0.0067500000     1.5241110000    -3.5373350000
   10      O       0.0097500000     0.5906110000    -4.3276350000
   11      O       0.0099500000     2.8073110000    -3.9817350000
   12      F       0.0060500000    -1.1092890000    -2.2236350000
   13      C       0.0201500000     3.1660110000    -5.3123350000
   14      H       0.0207500000     4.2710110000    -5.3476350000
   15      H      -0.8708500000     2.7767110000    -5.8529350000
   16      H       0.9190500000     2.7761110000    -5.8392350000
   17      C       0.0005500000    -2.2721890000     1.0226650000
   18      H      -1.0793500000    -2.2811890000     1.0311650000
   19      H       0.0001500000    -2.9560890000     0.1867650000
   20      H       0.0085500000    -2.7965890000     1.9667650000
   21      H       0.0017500000     2.5578110000     2.3441650000
 ----------------------------------------------------------------

   11   -1389.2574933445      4.11e-07  Convergence criterion met
 Total energy in the final basis set =    -1389.2574933445
        RIMP2         total energy =     -1391.7585861174 a.u.

                    Orbital Energies (a.u.)
 --------------------------------------------------------------

 Alpha MOs
 -- Occupied --
-92.0070 -91.9871 -26.3343 -20.6087 -20.5441 -11.4051 -11.3767 -11.3224
-11.2912 -11.2868 -11.2854 -11.2729 -11.2652 -11.2372  -9.0058  -8.9913
 -6.6866  -6.6860  -6.6855  -6.6727  -6.6720  -6.6706  -1.6472  -1.4681
 -1.3627  -1.2256  -1.1469  -1.0674  -1.0271  -1.0065  -0.9671  -0.9115
 -0.8621  -0.7958  -0.7840  -0.7654  -0.7256  -0.7148  -0.6969  -0.6780
 -0.6758  -0.6665  -0.6100  -0.6023  -0.5936  -0.5862  -0.5848  -0.5588
 -0.5331  -0.5272  -0.5197  -0.4949  -0.4780  -0.4625  -0.4583  -0.4559
 -0.3900  -0.3470  -0.2714

          Ground-State Mulliken Net Atomic Charges

     Atom                 Charge (a.u.)
  ----------------------------------------
      1 C                     0.045728
      2 S                     0.084903
      3 C                    -0.283272
      4 C                    -0.101585
      5 C                    -0.008562
      6 C                     0.402012
      7 C                    -0.175076
      8 S                     0.021025
      9 C                     0.461072
     10 O                    -0.460618
     11 O                    -0.299298
     12 F                    -0.214491
     13 C                    -0.055039
     14 H                     0.115827
     15 H                     0.083362
     16 H                     0.083387
     17 C                    -0.383750
     18 H                     0.152657
     19 H                     0.173800
     20 H                     0.148190
     21 H                     0.209729
  ----------------------------------------
  Sum of atomic charges =     0.000000

                    Cartesian Multipole Moments
 -----------------------------------------------------------------
    Charge (ESU x 10^10)
                -0.0000
    Dipole Moment (Debye)
         X      -0.7790      Y      -0.0006      Z       3.8586
       Tot       3.9365
    Quadrupole Moments (Debye-Ang)
        XX     -96.6264     XY       1.9640     YY     -81.6244
        XZ      -0.8357     YZ     -12.5499     ZZ     -97.0597

 Total job time:  55.03s(wall), 1952.12s(cpu)
        *  Thank you very much for using Q-Chem.  Have a nice day.  *
