 Q-Chem 5.4, Q-Chem, Inc., Pleasanton, CA (2021)
 Q-Chem 5.4.0 for Intel X86 EM64T Linux

User input:
--------------------------------------------------------------
$molecule
0 1
C	-0.681966	-0.518946	1.021287
S	0.008434	0.057454	2.531987
C	1.214534	1.070954	1.748887
C	0.013734	0.064854	-0.043413
C	1.076634	0.958754	0.342987
C	-0.036066	0.020954	-1.464813
C	0.932834	0.834054	-2.085613
S	1.886334	1.638454	-0.944413
C	1.130734	0.994054	-3.538713
O	0.417534	0.391754	-4.329013
O	2.115834	1.816354	-3.983113
F	-0.886966	-0.698246	-2.225013
C	2.397134	2.039154	-5.313713
H	3.243934	2.748954	-5.349013
H	1.526134	2.471454	-5.854313
H	2.676134	1.099854	-5.840613
C	-0.681966	-1.954146	1.021287
H	0.018634	-1.963146	1.843087
H	-1.322066	-2.638046	1.558887
H	0.036134	-2.478546	0.408287
H	1.919334	1.662254	2.342787
$end

$rem
JOBTYPE		SP
EXCHANGE	HF
CORRELATION	pRIMP2
BASIS		cc-pvtz
METHOD		rimp2
AUX_BASIS	rimp2-cc-pvtz
SOLVENT_METHOD	PCM
PURECART	11111
SYMMETRY	false
MEM_TOTAL	110000
SCF_CONVERGENCE = 6
THRESH=10
GUI = 2
$end

$solvent
dielectric 4.90
$end
--------------------------------------------------------------

             Standard Nuclear Orientation (Angstroms)
    I     Atom           X                Y                Z
 ----------------------------------------------------------------
    1      C      -0.6819660000    -0.5189460000     1.0212870000
    2      S       0.0084340000     0.0574540000     2.5319870000
    3      C       1.2145340000     1.0709540000     1.7488870000
    4      C       0.0137340000     0.0648540000    -0.0434130000
    5      C       1.0766340000     0.9587540000     0.3429870000
    6      C      -0.0360660000     0.0209540000    -1.4648130000
    7      C       0.9328340000     0.8340540000    -2.0856130000
    8      S       1.8863340000     1.6384540000    -0.9444130000
    9      C       1.1307340000     0.9940540000    -3.5387130000
   10      O       0.4175340000     0.3917540000    -4.3290130000
   11      O       2.1158340000     1.8163540000    -3.9831130000
   12      F      -0.8869660000    -0.6982460000    -2.2250130000
   13      C       2.3971340000     2.0391540000    -5.3137130000
   14      H       3.2439340000     2.7489540000    -5.3490130000
   15      H       1.5261340000     2.4714540000    -5.8543130000
   16      H       2.6761340000     1.0998540000    -5.8406130000
   17      C      -0.6819660000    -1.9541460000     1.0212870000
   18      H       0.0186340000    -1.9631460000     1.8430870000
   19      H      -1.3220660000    -2.6380460000     1.5588870000
   20      H       0.0361340000    -2.4785460000     0.4082870000
   21      H       1.9193340000     1.6622540000     2.3427870000
 ----------------------------------------------------------------

   11   -1389.1951396812      6.86e-07  Convergence criterion met
 Total energy in the final basis set =    -1389.1951396812
        RIMP2         total energy =     -1391.7143074773 a.u.

                    Orbital Energies (a.u.)
 --------------------------------------------------------------

 Alpha MOs
 -- Occupied --
-91.9996 -91.9948 -26.3333 -20.6131 -20.5521 -11.4118 -11.3749 -11.3020
-11.3011 -11.2923 -11.2890 -11.2869 -11.2794 -11.2184  -9.0001  -8.9988
 -6.6807  -6.6801  -6.6798  -6.6796  -6.6794  -6.6781  -1.6462  -1.4729
 -1.3686  -1.2330  -1.1546  -1.0676  -1.0322  -1.0014  -0.9710  -0.9030
 -0.8677  -0.7984  -0.7863  -0.7721  -0.7288  -0.7149  -0.6965  -0.6793
 -0.6752  -0.6712  -0.6091  -0.6069  -0.6025  -0.5909  -0.5663  -0.5632
 -0.5404  -0.5274  -0.5135  -0.4893  -0.4812  -0.4623  -0.4620  -0.4383
 -0.3916  -0.3421  -0.2800

          Ground-State Mulliken Net Atomic Charges

     Atom                 Charge (a.u.)
  ----------------------------------------
      1 C                    -0.030689
      2 S                     0.082392
      3 C                    -0.200788
      4 C                    -0.069301
      5 C                    -0.026307
      6 C                     0.371672
      7 C                    -0.147633
      8 S                     0.041397
      9 C                     0.457740
     10 O                    -0.446313
     11 O                    -0.297222
     12 F                    -0.209617
     13 C                    -0.054582
     14 H                     0.116843
     15 H                     0.084851
     16 H                     0.084610
     17 C                    -0.385927
     18 H                     0.134802
     19 H                     0.142141
     20 H                     0.138336
     21 H                     0.213594
  ----------------------------------------
  Sum of atomic charges =     0.000000

                    Cartesian Multipole Moments
 -----------------------------------------------------------------
    Charge (ESU x 10^10)
                -0.0000
    Dipole Moment (Debye)
         X       3.5913      Y       1.0454      Z       3.4721
       Tot       5.1035
    Quadrupole Moments (Debye-Ang)
        XX     -91.4429     XY       4.5213     YY     -89.2932
        XZ      -7.6339     YZ      -9.0128     ZZ     -93.3883

 Total job time:  59.98s(wall), 2030.47s(cpu)
        *  Thank you very much for using Q-Chem.  Have a nice day.  *
