 Q-Chem 5.4, Q-Chem, Inc., Pleasanton, CA (2021)
 Q-Chem 5.4.0 for Intel X86 EM64T Linux

User input:
--------------------------------------------------------------
$molecule
0 1
C	-0.079707	-0.833466	1.020653
S	0.000893	0.062334	2.531353
C	0.137093	1.631734	1.748253
C	-0.000607	0.071334	-0.044047
C	0.118993	1.454934	0.342353
C	-0.004707	0.005034	-1.465447
C	0.105393	1.265034	-2.086247
S	0.210793	2.508134	-0.945047
C	0.132193	1.518134	-3.539347
O	0.053793	0.587934	-4.329647
O	0.247293	2.796134	-3.983747
F	-0.097907	-1.105166	-2.225647
C	0.288693	3.152634	-5.314347
H	0.385593	4.253334	-5.349647
H	-0.632807	2.842434	-5.854947
H	1.150193	2.685834	-5.841247
C	-0.079707	-2.268666	1.020653
H	0.116193	-2.277666	2.082753
H	-0.902807	-2.952566	1.166153
H	0.848693	-2.793066	0.848853
H	0.217393	2.548234	2.342153
$end

$rem
JOBTYPE		SP
EXCHANGE	HF
CORRELATION	pRIMP2
BASIS		cc-pvtz
METHOD		rimp2
AUX_BASIS	rimp2-cc-pvtz
SOLVENT_METHOD	PCM
PURECART	11111
SYMMETRY	false
MEM_TOTAL	110000
SCF_CONVERGENCE = 6
THRESH=10
GUI = 2
$end

$solvent
dielectric 4.90
$end
--------------------------------------------------------------

             Standard Nuclear Orientation (Angstroms)
    I     Atom           X                Y                Z
 ----------------------------------------------------------------
    1      C      -0.0797070000    -0.8334660000     1.0206530000
    2      S       0.0008930000     0.0623340000     2.5313530000
    3      C       0.1370930000     1.6317340000     1.7482530000
    4      C      -0.0006070000     0.0713340000    -0.0440470000
    5      C       0.1189930000     1.4549340000     0.3423530000
    6      C      -0.0047070000     0.0050340000    -1.4654470000
    7      C       0.1053930000     1.2650340000    -2.0862470000
    8      S       0.2107930000     2.5081340000    -0.9450470000
    9      C       0.1321930000     1.5181340000    -3.5393470000
   10      O       0.0537930000     0.5879340000    -4.3296470000
   11      O       0.2472930000     2.7961340000    -3.9837470000
   12      F      -0.0979070000    -1.1051660000    -2.2256470000
   13      C       0.2886930000     3.1526340000    -5.3143470000
   14      H       0.3855930000     4.2533340000    -5.3496470000
   15      H      -0.6328070000     2.8424340000    -5.8549470000
   16      H       1.1501930000     2.6858340000    -5.8412470000
   17      C      -0.0797070000    -2.2686660000     1.0206530000
   18      H       0.1161930000    -2.2776660000     2.0827530000
   19      H      -0.9028070000    -2.9525660000     1.1661530000
   20      H       0.8486930000    -2.7930660000     0.8488530000
   21      H       0.2173930000     2.5482340000     2.3421530000
 ----------------------------------------------------------------

   11   -1389.2519628873      4.83e-07  Convergence criterion met
 Total energy in the final basis set =    -1389.2519628873
        RIMP2         total energy =     -1391.7581923434 a.u.

                    Orbital Energies (a.u.)
 --------------------------------------------------------------

 Alpha MOs
 -- Occupied --
-92.0097 -91.9899 -26.3329 -20.6104 -20.5473 -11.4077 -11.3750 -11.3074
-11.2915 -11.2915 -11.2876 -11.2839 -11.2691 -11.2285  -9.0083  -8.9941
 -6.6890  -6.6885  -6.6880  -6.6753  -6.6747  -6.6733  -1.6459  -1.4699
 -1.3650  -1.2268  -1.1468  -1.0650  -1.0298  -1.0054  -0.9685  -0.9099
 -0.8644  -0.7967  -0.7840  -0.7678  -0.7262  -0.7139  -0.6956  -0.6770
 -0.6762  -0.6679  -0.6089  -0.6042  -0.5974  -0.5873  -0.5746  -0.5687
 -0.5442  -0.5247  -0.5049  -0.4809  -0.4744  -0.4634  -0.4599  -0.4578
 -0.3960  -0.3462  -0.2822

          Ground-State Mulliken Net Atomic Charges

     Atom                 Charge (a.u.)
  ----------------------------------------
      1 C                     0.045674
      2 S                     0.084405
      3 C                    -0.257348
      4 C                    -0.090651
      5 C                    -0.009753
      6 C                     0.391231
      7 C                    -0.163771
      8 S                     0.029183
      9 C                     0.459035
     10 O                    -0.454557
     11 O                    -0.298378
     12 F                    -0.213776
     13 C                    -0.055060
     14 H                     0.116212
     15 H                     0.084046
     16 H                     0.083898
     17 C                    -0.368268
     18 H                     0.112675
     19 H                     0.151998
     20 H                     0.140910
     21 H                     0.212294
  ----------------------------------------
  Sum of atomic charges =     0.000000

                    Cartesian Multipole Moments
 -----------------------------------------------------------------
    Charge (ESU x 10^10)
                -0.0000
    Dipole Moment (Debye)
         X       0.3917      Y       1.1610      Z       4.1578
       Tot       4.3346
    Quadrupole Moments (Debye-Ang)
        XX     -95.8265     XY       0.6895     YY     -82.3898
        XZ      -0.9787     YZ     -13.4471     ZZ     -94.9499

 Total job time:  54.26s(wall), 1921.27s(cpu)
        *  Thank you very much for using Q-Chem.  Have a nice day.  *
