 Q-Chem 5.4, Q-Chem, Inc., Pleasanton, CA (2021)
 Q-Chem 5.4.0 for Intel X86 EM64T Linux

User input:
--------------------------------------------------------------
$molecule
0 1
C	-0.443764	-0.717327	1.025038
S	0.007836	0.060473	2.535738
C	0.794636	1.425273	1.752638
C	0.010336	0.069273	-0.039662
C	0.703436	1.272673	0.346738
C	-0.021464	0.010873	-1.461062
C	0.610836	1.106373	-2.081862
S	1.231736	2.188373	-0.940662
C	0.742136	1.324373	-3.534962
O	0.277936	0.514473	-4.325262
O	1.386536	2.434073	-3.979362
F	-0.575064	-0.955927	-2.221262
C	1.574736	2.739673	-5.309962
H	2.127736	3.696273	-5.345262
H	0.608436	2.847873	-5.850562
H	2.158136	1.952473	-5.836862
C	-0.443764	-2.152527	1.025038
H	-0.821064	-2.161527	0.013138
H	0.341536	-2.836427	0.738838
H	-1.328164	-2.676927	1.355438
H	1.254636	2.221973	2.346538
$end

$rem
JOBTYPE		SP
EXCHANGE	HF
CORRELATION	pRIMP2
BASIS		cc-pvtz
METHOD		rimp2
AUX_BASIS	rimp2-cc-pvtz
SOLVENT_METHOD	PCM
PURECART	11111
SYMMETRY	false
MEM_TOTAL	110000
SCF_CONVERGENCE = 6
THRESH=10
GUI = 2
$end

$solvent
dielectric 4.90
$end
--------------------------------------------------------------

             Standard Nuclear Orientation (Angstroms)
    I     Atom           X                Y                Z
 ----------------------------------------------------------------
    1      C      -0.4437640000    -0.7173270000     1.0250380000
    2      S       0.0078360000     0.0604730000     2.5357380000
    3      C       0.7946360000     1.4252730000     1.7526380000
    4      C       0.0103360000     0.0692730000    -0.0396620000
    5      C       0.7034360000     1.2726730000     0.3467380000
    6      C      -0.0214640000     0.0108730000    -1.4610620000
    7      C       0.6108360000     1.1063730000    -2.0818620000
    8      S       1.2317360000     2.1883730000    -0.9406620000
    9      C       0.7421360000     1.3243730000    -3.5349620000
   10      O       0.2779360000     0.5144730000    -4.3252620000
   11      O       1.3865360000     2.4340730000    -3.9793620000
   12      F      -0.5750640000    -0.9559270000    -2.2212620000
   13      C       1.5747360000     2.7396730000    -5.3099620000
   14      H       2.1277360000     3.6962730000    -5.3452620000
   15      H       0.6084360000     2.8478730000    -5.8505620000
   16      H       2.1581360000     1.9524730000    -5.8368620000
   17      C      -0.4437640000    -2.1525270000     1.0250380000
   18      H      -0.8210640000    -2.1615270000     0.0131380000
   19      H       0.3415360000    -2.8364270000     0.7388380000
   20      H      -1.3281640000    -2.6769270000     1.3554380000
   21      H       1.2546360000     2.2219730000     2.3465380000
 ----------------------------------------------------------------

   11   -1389.2371133117      5.74e-07  Convergence criterion met
 Total energy in the final basis set =    -1389.2371133117
        RIMP2         total energy =     -1391.7498822671 a.u.

                    Orbital Energies (a.u.)
 --------------------------------------------------------------

 Alpha MOs
 -- Occupied --
-92.0028 -91.9932 -26.3350 -20.6119 -20.5498 -11.4100 -11.3760 -11.2973
-11.2963 -11.2926 -11.2912 -11.2885 -11.2765 -11.2237  -9.0020  -8.9972
 -6.6827  -6.6820  -6.6817  -6.6785  -6.6779  -6.6765  -1.6483  -1.4716
 -1.3670  -1.2296  -1.1463  -1.0678  -1.0276  -1.0048  -0.9693  -0.9104
 -0.8647  -0.7960  -0.7869  -0.7683  -0.7272  -0.7164  -0.6970  -0.6784
 -0.6777  -0.6703  -0.6067  -0.6057  -0.5989  -0.5901  -0.5761  -0.5666
 -0.5425  -0.5255  -0.5069  -0.4823  -0.4755  -0.4618  -0.4608  -0.4460
 -0.3954  -0.3448  -0.2840

          Ground-State Mulliken Net Atomic Charges

     Atom                 Charge (a.u.)
  ----------------------------------------
      1 C                    -0.003996
      2 S                     0.089685
      3 C                    -0.231224
      4 C                    -0.087768
      5 C                    -0.014595
      6 C                     0.365572
      7 C                    -0.148249
      8 S                     0.038915
      9 C                     0.457200
     10 O                    -0.450990
     11 O                    -0.297851
     12 F                    -0.212241
     13 C                    -0.054817
     14 H                     0.116640
     15 H                     0.084354
     16 H                     0.084274
     17 C                    -0.355365
     18 H                     0.113017
     19 H                     0.158401
     20 H                     0.137884
     21 H                     0.211153
  ----------------------------------------
  Sum of atomic charges =     0.000000

                    Cartesian Multipole Moments
 -----------------------------------------------------------------
    Charge (ESU x 10^10)
                -0.0000
    Dipole Moment (Debye)
         X       1.4893      Y       1.3439      Z       2.6618
       Tot       3.3331
    Quadrupole Moments (Debye-Ang)
        XX     -93.4050     XY       5.0545     YY     -85.0058
        XZ      -5.3783     YZ      -8.9379     ZZ     -96.8733

 Total job time:  54.25s(wall), 1943.63s(cpu)
        *  Thank you very much for using Q-Chem.  Have a nice day.  *
