 Q-Chem 5.4, Q-Chem, Inc., Pleasanton, CA (2021)
 Q-Chem 5.4.0 for Intel X86 EM64T Linux

User input:
--------------------------------------------------------------
$molecule
0 1
C	-0.080681	-0.833466	1.024624
S	-0.000081	0.062334	2.535324
C	0.136119	1.631734	1.752224
C	-0.001581	0.071334	-0.040076
C	0.118019	1.454934	0.346324
C	-0.005681	0.005034	-1.461476
C	0.104419	1.265034	-2.082276
S	0.209819	2.508134	-0.941076
C	0.131219	1.518134	-3.535376
O	0.052819	0.587934	-4.325676
O	0.246319	2.796134	-3.979776
F	-0.098881	-1.105166	-2.221676
C	0.287719	3.152634	-5.310376
H	0.384619	4.253334	-5.345676
H	-0.633781	2.842434	-5.850976
H	1.149219	2.685834	-5.837276
C	-0.080681	-2.268666	1.024624
H	0.741119	-2.277666	0.324024
H	0.456919	-2.952566	1.664724
H	-0.693681	-2.793066	0.306524
H	0.216419	2.548234	2.346124
$end

$rem
JOBTYPE		SP
EXCHANGE	HF
CORRELATION	pRIMP2
BASIS		cc-pvtz
METHOD		rimp2
AUX_BASIS	rimp2-cc-pvtz
SOLVENT_METHOD	PCM
PURECART	11111
SYMMETRY	false
MEM_TOTAL	110000
SCF_CONVERGENCE = 6
THRESH=10
GUI = 2
$end

$solvent
dielectric 4.90
$end
--------------------------------------------------------------

             Standard Nuclear Orientation (Angstroms)
    I     Atom           X                Y                Z
 ----------------------------------------------------------------
    1      C      -0.0806810000    -0.8334660000     1.0246240000
    2      S      -0.0000810000     0.0623340000     2.5353240000
    3      C       0.1361190000     1.6317340000     1.7522240000
    4      C      -0.0015810000     0.0713340000    -0.0400760000
    5      C       0.1180190000     1.4549340000     0.3463240000
    6      C      -0.0056810000     0.0050340000    -1.4614760000
    7      C       0.1044190000     1.2650340000    -2.0822760000
    8      S       0.2098190000     2.5081340000    -0.9410760000
    9      C       0.1312190000     1.5181340000    -3.5353760000
   10      O       0.0528190000     0.5879340000    -4.3256760000
   11      O       0.2463190000     2.7961340000    -3.9797760000
   12      F      -0.0988810000    -1.1051660000    -2.2216760000
   13      C       0.2877190000     3.1526340000    -5.3103760000
   14      H       0.3846190000     4.2533340000    -5.3456760000
   15      H      -0.6337810000     2.8424340000    -5.8509760000
   16      H       1.1492190000     2.6858340000    -5.8372760000
   17      C      -0.0806810000    -2.2686660000     1.0246240000
   18      H       0.7411190000    -2.2776660000     0.3240240000
   19      H       0.4569190000    -2.9525660000     1.6647240000
   20      H      -0.6936810000    -2.7930660000     0.3065240000
   21      H       0.2164190000     2.5482340000     2.3461240000
 ----------------------------------------------------------------

   11   -1389.2553980982      4.49e-07  Convergence criterion met
 Total energy in the final basis set =    -1389.2553980982
        RIMP2         total energy =     -1391.7599537111 a.u.

                    Orbital Energies (a.u.)
 --------------------------------------------------------------

 Alpha MOs
 -- Occupied --
-92.0063 -91.9891 -26.3350 -20.6097 -20.5458 -11.4066 -11.3767 -11.3176
-11.2919 -11.2884 -11.2873 -11.2760 -11.2687 -11.2333  -9.0049  -8.9933
 -6.6857  -6.6851  -6.6847  -6.6746  -6.6739  -6.6725  -1.6480  -1.4692
 -1.3640  -1.2267  -1.1460  -1.0681  -1.0264  -1.0067  -0.9678  -0.9116
 -0.8627  -0.7955  -0.7851  -0.7658  -0.7260  -0.7157  -0.6972  -0.6780
 -0.6766  -0.6677  -0.6103  -0.6033  -0.5947  -0.5892  -0.5853  -0.5635
 -0.5403  -0.5237  -0.5060  -0.4887  -0.4776  -0.4640  -0.4593  -0.4566
 -0.3915  -0.3461  -0.2756

          Ground-State Mulliken Net Atomic Charges

     Atom                 Charge (a.u.)
  ----------------------------------------
      1 C                     0.055428
      2 S                     0.083185
      3 C                    -0.274051
      4 C                    -0.099505
      5 C                    -0.008560
      6 C                     0.387416
      7 C                    -0.165714
      8 S                     0.025998
      9 C                     0.459140
     10 O                    -0.458251
     11 O                    -0.298846
     12 F                    -0.214191
     13 C                    -0.055064
     14 H                     0.116092
     15 H                     0.083746
     16 H                     0.083550
     17 C                    -0.382262
     18 H                     0.135941
     19 H                     0.168669
     20 H                     0.148120
     21 H                     0.209157
  ----------------------------------------
  Sum of atomic charges =     0.000000

                    Cartesian Multipole Moments
 -----------------------------------------------------------------
    Charge (ESU x 10^10)
                -0.0000
    Dipole Moment (Debye)
         X       0.7547      Y       0.4294      Z       3.2278
       Tot       3.3425
    Quadrupole Moments (Debye-Ang)
        XX     -96.3133     XY      -0.5399     YY     -81.9244
        XZ      -0.0649     YZ     -11.4874     ZZ     -97.7047

 Total job time:  54.36s(wall), 1969.58s(cpu)
        *  Thank you very much for using Q-Chem.  Have a nice day.  *
