 Q-Chem 5.4, Q-Chem, Inc., Pleasanton, CA (2021)
 Q-Chem 5.4.0 for Intel X86 EM64T Linux

User input:
--------------------------------------------------------------
$molecule
0 1
C	0.363176	-3.887800	-0.626855
C	-0.329669	-3.701456	0.573074
C	-0.542250	-2.345170	0.940016
H	-0.682412	-4.545233	1.184837
C	0.000000	-1.450135	0.000000
S	0.764076	-2.321334	-1.322686
C	-1.265537	-1.934439	2.192440
H	-1.597559	-2.819799	2.768365
H	-2.166534	-1.326210	1.967653
H	-0.620843	-1.325374	2.860032
C	0.000000	0.000000	0.000000
C	-0.003081	0.844605	1.113020
C	-0.007772	2.235575	0.820578
H	-0.001743	0.456510	2.142881
C	-0.008427	2.483726	-0.563588
S	-0.003691	0.970607	-1.464748
C	-0.011355	3.300181	1.882380
H	-0.009922	2.852233	2.894974
H	-0.905944	3.953225	1.808137
H	0.878901	3.959133	1.808230
H	-0.011727	3.441752	-1.097114
H	-0.246643	-4.420219	-1.365344
H	1.308062	-4.419395	-0.467758
H	-0.935314	-1.450628	-0.539988
$end

$rem
JOBTYPE		SP
EXCHANGE	HF
CORRELATION	pRIMP2
BASIS		cc-pvtz
METHOD		rimp2
AUX_BASIS	rimp2-cc-pvtz
SOLVENT_METHOD	PCM
PURECART	11111
SYMMETRY	false
MEM_TOTAL	110000
SCF_CONVERGENCE = 6
THRESH=10
GUI = 2
$end

$solvent
dielectric 4.90
$end
--------------------------------------------------------------

             Standard Nuclear Orientation (Angstroms)
    I     Atom           X                Y                Z
 ----------------------------------------------------------------
    1      C       0.3631760000    -3.8878000000    -0.6268550000
    2      C      -0.3296690000    -3.7014560000     0.5730740000
    3      C      -0.5422500000    -2.3451700000     0.9400160000
    4      H      -0.6824120000    -4.5452330000     1.1848370000
    5      C       0.0000000000    -1.4501350000     0.0000000000
    6      S       0.7640760000    -2.3213340000    -1.3226860000
    7      C      -1.2655370000    -1.9344390000     2.1924400000
    8      H      -1.5975590000    -2.8197990000     2.7683650000
    9      H      -2.1665340000    -1.3262100000     1.9676530000
   10      H      -0.6208430000    -1.3253740000     2.8600320000
   11      C       0.0000000000     0.0000000000     0.0000000000
   12      C      -0.0030810000     0.8446050000     1.1130200000
   13      C      -0.0077720000     2.2355750000     0.8205780000
   14      H      -0.0017430000     0.4565100000     2.1428810000
   15      C      -0.0084270000     2.4837260000    -0.5635880000
   16      S      -0.0036910000     0.9706070000    -1.4647480000
   17      C      -0.0113550000     3.3001810000     1.8823800000
   18      H      -0.0099220000     2.8522330000     2.8949740000
   19      H      -0.9059440000     3.9532250000     1.8081370000
   20      H       0.8789010000     3.9591330000     1.8082300000
   21      H      -0.0117270000     3.4417520000    -1.0971140000
   22      H      -0.2466430000    -4.4202190000    -1.3653440000
   23      H       1.3080620000    -4.4193950000    -0.4677580000
   24      H      -0.9353140000    -1.4506280000    -0.5399880000
 ----------------------------------------------------------------

   10   -1180.7596740086      5.08e-07  Convergence criterion met
 Total energy in the final basis set =    -1180.7596740086
        RIMP2         total energy =     -1182.7640355275 a.u.

                    Orbital Energies (a.u.)
 --------------------------------------------------------------

 Alpha MOs
 -- Occupied --
-91.9842 -91.9455 -11.2879 -11.2656 -11.2608 -11.2574 -11.2503 -11.2442
-11.2332 -11.2312 -11.2285 -11.2231  -8.9839  -8.9502  -6.6649  -6.6643
 -6.6637  -6.6316  -6.6305  -6.6292  -1.2007  -1.1530  -1.0590  -1.0305
 -1.0013  -0.9625  -0.9152  -0.9002  -0.8164  -0.7616  -0.7358  -0.7042
 -0.6550  -0.6435  -0.6109  -0.5929  -0.5820  -0.5688  -0.5650  -0.5525
 -0.5458  -0.5335  -0.5202  -0.5027  -0.4885  -0.4830  -0.4657  -0.4478
 -0.3584  -0.3429  -0.3243  -0.2679

          Ground-State Mulliken Net Atomic Charges

     Atom                 Charge (a.u.)
  ----------------------------------------
      1 C                    -0.072915
      2 C                    -0.322074
      3 C                    -0.028218
      4 H                     0.179213
      5 C                     0.117273
      6 S                    -0.176850
      7 C                    -0.291308
      8 H                     0.118661
      9 H                     0.112496
     10 H                     0.103332
     11 C                    -0.086131
     12 C                    -0.251211
     13 C                     0.025360
     14 H                     0.192457
     15 C                    -0.264729
     16 S                     0.001986
     17 C                    -0.273334
     18 H                     0.101159
     19 H                     0.108365
     20 H                     0.109053
     21 H                     0.197487
     22 H                     0.110748
     23 H                     0.114754
     24 H                     0.174426
  ----------------------------------------
  Sum of atomic charges =     0.000000

                    Cartesian Multipole Moments
 -----------------------------------------------------------------
    Charge (ESU x 10^10)
                -0.0000
    Dipole Moment (Debye)
         X      -1.9554      Y      -0.1576      Z       3.0854
       Tot       3.6562
    Quadrupole Moments (Debye-Ang)
        XX     -91.9958     XY       3.0062     YY     -72.8282
        XZ      -0.0389     YZ      -1.1948     ZZ     -85.6633

 Total job time:  61.58s(wall), 1939.37s(cpu)
        *  Thank you very much for using Q-Chem.  Have a nice day.  *
