 Q-Chem 5.4, Q-Chem, Inc., Pleasanton, CA (2021)
 Q-Chem 5.4.0 for Intel X86 EM64T Linux

User input:
--------------------------------------------------------------
$molecule
0 1
C	-0.466510	-3.887800	0.554267
C	0.424173	-3.701456	-0.507121
C	0.697244	-2.345170	-0.831575
H	0.877789	-4.545233	-1.048337
C	-0.000000	-1.450135	-0.000000
S	-0.982150	-2.321334	1.169911
C	1.627024	-1.934439	-1.939374
H	2.054010	-2.819799	-2.448894
H	2.475299	-1.326210	-1.561545
H	1.108051	-1.325374	-2.708773
C	0.000000	0.000000	0.000000
C	0.070542	0.841660	1.113020
C	0.187101	2.227746	0.820578
H	0.038051	0.454925	2.142881
C	0.208076	2.475009	-0.563588
S	0.080917	0.967235	-1.464748
C	0.276318	3.288613	1.882380
H	0.238704	2.842244	2.894974
H	-0.557951	4.017140	1.808137
H	1.220618	3.867466	1.808230
H	0.288286	3.429678	-1.097114
H	0.005807	-4.420219	1.387431
H	-1.369415	-4.419395	0.233510
H	0.827337	-1.450628	0.694200
$end

$rem
JOBTYPE		SP
EXCHANGE	HF
CORRELATION	pRIMP2
BASIS		cc-pvtz
METHOD		rimp2
AUX_BASIS	rimp2-cc-pvtz
SOLVENT_METHOD	PCM
PURECART	11111
SYMMETRY	false
MEM_TOTAL	110000
SCF_CONVERGENCE = 6
THRESH=10
GUI = 2
$end

$solvent
dielectric 4.90
$end
--------------------------------------------------------------

             Standard Nuclear Orientation (Angstroms)
    I     Atom           X                Y                Z
 ----------------------------------------------------------------
    1      C      -0.4665100000    -3.8878000000     0.5542670000
    2      C       0.4241730000    -3.7014560000    -0.5071210000
    3      C       0.6972440000    -2.3451700000    -0.8315750000
    4      H       0.8777890000    -4.5452330000    -1.0483370000
    5      C       0.0000000000    -1.4501350000     0.0000000000
    6      S      -0.9821500000    -2.3213340000     1.1699110000
    7      C       1.6270240000    -1.9344390000    -1.9393740000
    8      H       2.0540100000    -2.8197990000    -2.4488940000
    9      H       2.4752990000    -1.3262100000    -1.5615450000
   10      H       1.1080510000    -1.3253740000    -2.7087730000
   11      C       0.0000000000     0.0000000000     0.0000000000
   12      C       0.0705420000     0.8416600000     1.1130200000
   13      C       0.1871010000     2.2277460000     0.8205780000
   14      H       0.0380510000     0.4549250000     2.1428810000
   15      C       0.2080760000     2.4750090000    -0.5635880000
   16      S       0.0809170000     0.9672350000    -1.4647480000
   17      C       0.2763180000     3.2886130000     1.8823800000
   18      H       0.2387040000     2.8422440000     2.8949740000
   19      H      -0.5579510000     4.0171400000     1.8081370000
   20      H       1.2206180000     3.8674660000     1.8082300000
   21      H       0.2882860000     3.4296780000    -1.0971140000
   22      H       0.0058070000    -4.4202190000     1.3874310000
   23      H      -1.3694150000    -4.4193950000     0.2335100000
   24      H       0.8273370000    -1.4506280000     0.6942000000
 ----------------------------------------------------------------

   10   -1180.7604868500      4.89e-07  Convergence criterion met
 Total energy in the final basis set =    -1180.7604868500
        RIMP2         total energy =     -1182.7659525700 a.u.

                    Orbital Energies (a.u.)
 --------------------------------------------------------------

 Alpha MOs
 -- Occupied --
-91.9826 -91.9446 -11.2877 -11.2643 -11.2591 -11.2573 -11.2507 -11.2431
-11.2341 -11.2318 -11.2284 -11.2215  -8.9824  -8.9491  -6.6633  -6.6628
 -6.6622  -6.6305  -6.6295  -6.6282  -1.1998  -1.1528  -1.0585  -1.0264
 -1.0075  -0.9569  -0.9142  -0.9015  -0.8142  -0.7684  -0.7242  -0.7008
 -0.6621  -0.6441  -0.6108  -0.5869  -0.5807  -0.5736  -0.5680  -0.5529
 -0.5418  -0.5323  -0.5142  -0.5070  -0.4923  -0.4829  -0.4578  -0.4496
 -0.3570  -0.3428  -0.3215  -0.2687

          Ground-State Mulliken Net Atomic Charges

     Atom                 Charge (a.u.)
  ----------------------------------------
      1 C                    -0.075363
      2 C                    -0.324566
      3 C                    -0.029213
      4 H                     0.178653
      5 C                     0.088926
      6 S                    -0.176140
      7 C                    -0.288338
      8 H                     0.116160
      9 H                     0.111554
     10 H                     0.109735
     11 C                    -0.040625
     12 C                    -0.277106
     13 C                     0.028497
     14 H                     0.182066
     15 C                    -0.261369
     16 S                     0.007989
     17 C                    -0.271817
     18 H                     0.102708
     19 H                     0.108567
     20 H                     0.107760
     21 H                     0.196376
     22 H                     0.110619
     23 H                     0.113813
     24 H                     0.181114
  ----------------------------------------
  Sum of atomic charges =     0.000000

                    Cartesian Multipole Moments
 -----------------------------------------------------------------
    Charge (ESU x 10^10)
                -0.0000
    Dipole Moment (Debye)
         X       2.3541      Y      -0.0400      Z       0.0967
       Tot       2.3564
    Quadrupole Moments (Debye-Ang)
        XX     -91.8886     XY      -2.6596     YY     -73.7412
        XZ      -0.0105     YZ       3.1297     ZZ     -85.5113

 Total job time:  53.20s(wall), 1853.51s(cpu)
        *  Thank you very much for using Q-Chem.  Have a nice day.  *
