 Q-Chem 5.4, Q-Chem, Inc., Pleasanton, CA (2021)
 Q-Chem 5.4.0 for Intel X86 EM64T Linux

User input:
--------------------------------------------------------------
$molecule
0 1
C	0.001092	-3.887800	-0.724460
C	0.001036	-3.701456	0.661131
C	0.000406	-2.345170	1.085203
H	0.001433	-4.545233	1.367305
C	0.000000	-1.450135	0.000000
S	0.000367	-2.321334	-1.527517
C	0.000233	-1.934439	2.531478
H	0.000656	-2.819799	3.196254
H	-0.892447	-1.326210	2.787305
H	0.892350	-1.325374	2.787282
C	0.000000	0.000000	0.000000
C	0.285976	0.794723	1.113020
C	0.757308	2.103412	0.820578
H	0.154498	0.429575	2.142881
C	0.841565	2.336821	-0.563588
S	0.328498	0.913334	-1.464748
C	1.118059	3.105040	1.882380
H	0.966197	2.683616	2.894974
H	0.500773	4.024668	1.808137
H	2.180000	3.419766	1.808230
H	1.166129	3.238200	-1.097114
H	-0.896272	-4.420219	-1.059101
H	0.898936	-4.419395	-1.059122
H	-1.080000	-1.450628	0.000014
$end

$rem
JOBTYPE		SP
EXCHANGE	HF
CORRELATION	pRIMP2
BASIS		cc-pvtz
METHOD		rimp2
AUX_BASIS	rimp2-cc-pvtz
SOLVENT_METHOD	PCM
PURECART	11111
SYMMETRY	false
MEM_TOTAL	110000
SCF_CONVERGENCE = 6
THRESH=10
GUI = 2
$end

$solvent
dielectric 4.90
$end
--------------------------------------------------------------

             Standard Nuclear Orientation (Angstroms)
    I     Atom           X                Y                Z
 ----------------------------------------------------------------
    1      C       0.0010920000    -3.8878000000    -0.7244600000
    2      C       0.0010360000    -3.7014560000     0.6611310000
    3      C       0.0004060000    -2.3451700000     1.0852030000
    4      H       0.0014330000    -4.5452330000     1.3673050000
    5      C       0.0000000000    -1.4501350000     0.0000000000
    6      S       0.0003670000    -2.3213340000    -1.5275170000
    7      C       0.0002330000    -1.9344390000     2.5314780000
    8      H       0.0006560000    -2.8197990000     3.1962540000
    9      H      -0.8924470000    -1.3262100000     2.7873050000
   10      H       0.8923500000    -1.3253740000     2.7872820000
   11      C       0.0000000000     0.0000000000     0.0000000000
   12      C       0.2859760000     0.7947230000     1.1130200000
   13      C       0.7573080000     2.1034120000     0.8205780000
   14      H       0.1544980000     0.4295750000     2.1428810000
   15      C       0.8415650000     2.3368210000    -0.5635880000
   16      S       0.3284980000     0.9133340000    -1.4647480000
   17      C       1.1180590000     3.1050400000     1.8823800000
   18      H       0.9661970000     2.6836160000     2.8949740000
   19      H       0.5007730000     4.0246680000     1.8081370000
   20      H       2.1800000000     3.4197660000     1.8082300000
   21      H       1.1661290000     3.2382000000    -1.0971140000
   22      H      -0.8962720000    -4.4202190000    -1.0591010000
   23      H       0.8989360000    -4.4193950000    -1.0591220000
   24      H      -1.0800000000    -1.4506280000     0.0000140000
 ----------------------------------------------------------------

   10   -1180.7449075669      5.18e-07  Convergence criterion met
 Total energy in the final basis set =    -1180.7449075669
        RIMP2         total energy =     -1182.7539486373 a.u.

                    Orbital Energies (a.u.)
 --------------------------------------------------------------

 Alpha MOs
 -- Occupied --
-91.9835 -91.9463 -11.2865 -11.2661 -11.2600 -11.2565 -11.2499 -11.2444
-11.2340 -11.2299 -11.2283 -11.2224  -8.9831  -8.9509  -6.6641  -6.6635
 -6.6629  -6.6323  -6.6313  -6.6300  -1.2012  -1.1524  -1.0588  -1.0320
 -1.0009  -0.9619  -0.9165  -0.8999  -0.8170  -0.7618  -0.7286  -0.7078
 -0.6551  -0.6475  -0.6104  -0.5948  -0.5865  -0.5686  -0.5615  -0.5491
 -0.5459  -0.5351  -0.5244  -0.5010  -0.4851  -0.4788  -0.4685  -0.4434
 -0.3610  -0.3431  -0.3241  -0.2624

          Ground-State Mulliken Net Atomic Charges

     Atom                 Charge (a.u.)
  ----------------------------------------
      1 C                    -0.074001
      2 C                    -0.315893
      3 C                    -0.052868
      4 H                     0.179885
      5 C                     0.121736
      6 S                    -0.179844
      7 C                    -0.301827
      8 H                     0.123161
      9 H                     0.105357
     10 H                     0.108802
     11 C                    -0.041608
     12 C                    -0.287924
     13 C                     0.046280
     14 H                     0.190092
     15 C                    -0.277725
     16 S                     0.009137
     17 C                    -0.271328
     18 H                     0.100388
     19 H                     0.108447
     20 H                     0.108319
     21 H                     0.197142
     22 H                     0.111425
     23 H                     0.113672
     24 H                     0.179175
  ----------------------------------------
  Sum of atomic charges =     0.000000

                    Cartesian Multipole Moments
 -----------------------------------------------------------------
    Charge (ESU x 10^10)
                -0.0000
    Dipole Moment (Debye)
         X      -0.3766      Y      -0.3223      Z       3.8247
       Tot       3.8567
    Quadrupole Moments (Debye-Ang)
        XX     -90.6385     XY       4.6780     YY     -74.2965
        XZ       0.6846     YZ      -2.4495     ZZ     -85.6046

 Total job time:  56.30s(wall), 2071.65s(cpu)
        *  Thank you very much for using Q-Chem.  Have a nice day.  *
