 Q-Chem 5.4, Q-Chem, Inc., Pleasanton, CA (2021)
 Q-Chem 5.4.0 for Intel X86 EM64T Linux

User input:
--------------------------------------------------------------
$molecule
0 1
C	-0.124726	-3.887800	-0.713644
C	0.115824	-3.701456	0.650907
C	0.188844	-2.345170	1.068646
H	0.238841	-4.545233	1.346284
C	0.000000	-1.450135	0.000000
S	-0.264890	-2.321334	-1.504375
C	0.439816	-1.934439	2.492978
H	0.555669	-2.819799	3.147582
H	-0.394879	-1.326210	2.899931
H	1.362799	-1.325374	2.589982
C	0.000000	0.000000	0.000000
C	0.729909	0.424971	1.113020
C	1.932179	1.124518	0.820578
H	0.394478	0.229765	2.142881
C	2.146756	1.249161	-0.563588
S	0.838724	0.488500	-1.464748
C	2.852364	1.659924	1.882380
H	2.465145	1.434710	2.894974
H	2.970621	2.761183	1.808137
H	3.868160	1.218416	1.808230
H	2.974781	1.731032	-1.097114
H	-1.066566	-4.420219	-0.887375
H	0.701364	-4.419395	-1.199130
H	-1.063590	-1.450628	0.187554
$end

$rem
JOBTYPE		SP
EXCHANGE	HF
CORRELATION	pRIMP2
BASIS		cc-pvtz
METHOD		rimp2
AUX_BASIS	rimp2-cc-pvtz
SOLVENT_METHOD	PCM
PURECART	11111
SYMMETRY	false
MEM_TOTAL	110000
SCF_CONVERGENCE = 6
THRESH=10
GUI = 2
$end

$solvent
dielectric 4.90
$end
--------------------------------------------------------------

             Standard Nuclear Orientation (Angstroms)
    I     Atom           X                Y                Z
 ----------------------------------------------------------------
    1      C      -0.1247260000    -3.8878000000    -0.7136440000
    2      C       0.1158240000    -3.7014560000     0.6509070000
    3      C       0.1888440000    -2.3451700000     1.0686460000
    4      H       0.2388410000    -4.5452330000     1.3462840000
    5      C       0.0000000000    -1.4501350000     0.0000000000
    6      S      -0.2648900000    -2.3213340000    -1.5043750000
    7      C       0.4398160000    -1.9344390000     2.4929780000
    8      H       0.5556690000    -2.8197990000     3.1475820000
    9      H      -0.3948790000    -1.3262100000     2.8999310000
   10      H       1.3627990000    -1.3253740000     2.5899820000
   11      C       0.0000000000     0.0000000000     0.0000000000
   12      C       0.7299090000     0.4249710000     1.1130200000
   13      C       1.9321790000     1.1245180000     0.8205780000
   14      H       0.3944780000     0.2297650000     2.1428810000
   15      C       2.1467560000     1.2491610000    -0.5635880000
   16      S       0.8387240000     0.4885000000    -1.4647480000
   17      C       2.8523640000     1.6599240000     1.8823800000
   18      H       2.4651450000     1.4347100000     2.8949740000
   19      H       2.9706210000     2.7611830000     1.8081370000
   20      H       3.8681600000     1.2184160000     1.8082300000
   21      H       2.9747810000     1.7310320000    -1.0971140000
   22      H      -1.0665660000    -4.4202190000    -0.8873750000
   23      H       0.7013640000    -4.4193950000    -1.1991300000
   24      H      -1.0635900000    -1.4506280000     0.1875540000
 ----------------------------------------------------------------

   11   -1180.6593993881      6.33e-07  Convergence criterion met
 Total energy in the final basis set =    -1180.6593993881
        RIMP2         total energy =     -1182.6890777950 a.u.

                    Orbital Energies (a.u.)
 --------------------------------------------------------------

 Alpha MOs
 -- Occupied --
-91.9757 -91.9382 -11.2843 -11.2608 -11.2545 -11.2511 -11.2498 -11.2474
-11.2382 -11.2330 -11.2308 -11.2123  -8.9768  -8.9429  -6.6576  -6.6566
 -6.6564  -6.6242  -6.6232  -6.6220  -1.2040  -1.1530  -1.0573  -1.0341
 -0.9970  -0.9652  -0.9144  -0.9022  -0.8106  -0.7595  -0.7330  -0.7143
 -0.6477  -0.6432  -0.6131  -0.5989  -0.5905  -0.5690  -0.5608  -0.5476
 -0.5448  -0.5342  -0.5249  -0.5049  -0.4782  -0.4709  -0.4427  -0.4361
 -0.3604  -0.3371  -0.3216  -0.2526

          Ground-State Mulliken Net Atomic Charges

     Atom                 Charge (a.u.)
  ----------------------------------------
      1 C                    -0.075158
      2 C                    -0.345580
      3 C                    -0.041913
      4 H                     0.175283
      5 C                     0.070954
      6 S                    -0.194425
      7 C                    -0.281013
      8 H                     0.119999
      9 H                     0.099214
     10 H                     0.106730
     11 C                    -0.152077
     12 C                    -0.169167
     13 C                    -0.006418
     14 H                     0.202251
     15 C                    -0.184043
     16 S                     0.027703
     17 C                    -0.278863
     18 H                     0.102007
     19 H                     0.114565
     20 H                     0.107217
     21 H                     0.199731
     22 H                     0.108132
     23 H                     0.109493
     24 H                     0.185377
  ----------------------------------------
  Sum of atomic charges =     0.000000

                    Cartesian Multipole Moments
 -----------------------------------------------------------------
    Charge (ESU x 10^10)
                -0.0000
    Dipole Moment (Debye)
         X       2.2142      Y       0.5116      Z       4.2467
       Tot       4.8165
    Quadrupole Moments (Debye-Ang)
        XX     -82.5831     XY       5.9300     YY     -83.6902
        XZ       0.8949     YZ      -3.0575     ZZ     -85.0763

 Total job time:  67.05s(wall), 2226.23s(cpu)
        *  Thank you very much for using Q-Chem.  Have a nice day.  *
