 Q-Chem 5.4, Q-Chem, Inc., Pleasanton, CA (2021)
 Q-Chem 5.4.0 for Intel X86 EM64T Linux

User input:
--------------------------------------------------------------
$molecule
0 1
C	-0.248806	-3.887800	0.680396
C	0.225147	-3.701456	-0.621614
C	0.370780	-2.345170	-1.019896
H	0.466300	-4.545233	-1.285337
C	0.000000	-1.450135	0.000000
S	-0.522786	-2.321334	1.435271
C	0.865597	-1.934439	-2.378891
H	1.092567	-2.819799	-3.003720
H	1.791940	-1.326210	-2.313975
H	0.114772	-1.325374	-2.924390
C	0.000000	0.000000	0.000000
C	0.143630	0.832309	1.113020
C	0.380550	2.202961	0.820578
H	0.077556	0.449877	2.142881
C	0.422995	2.447456	-0.563588
S	0.164909	0.956502	-1.464748
C	0.561888	3.252016	1.882380
H	0.485513	2.810624	2.894974
H	-0.205711	4.050482	1.808137
H	1.553045	3.746365	1.808230
H	0.586105	3.391501	-1.097114
H	0.479986	-4.420219	1.301772
H	-1.206964	-4.419395	0.687795
H	1.014873	-1.450628	0.369368
$end

$rem
JOBTYPE		SP
EXCHANGE	HF
CORRELATION	pRIMP2
BASIS		cc-pvtz
METHOD		rimp2
AUX_BASIS	rimp2-cc-pvtz
SOLVENT_METHOD	PCM
PURECART	11111
SYMMETRY	false
MEM_TOTAL	110000
SCF_CONVERGENCE = 6
THRESH=10
GUI = 2
$end

$solvent
dielectric 4.90
$end
--------------------------------------------------------------

             Standard Nuclear Orientation (Angstroms)
    I     Atom           X                Y                Z
 ----------------------------------------------------------------
    1      C      -0.2488060000    -3.8878000000     0.6803960000
    2      C       0.2251470000    -3.7014560000    -0.6216140000
    3      C       0.3707800000    -2.3451700000    -1.0198960000
    4      H       0.4663000000    -4.5452330000    -1.2853370000
    5      C       0.0000000000    -1.4501350000     0.0000000000
    6      S      -0.5227860000    -2.3213340000     1.4352710000
    7      C       0.8655970000    -1.9344390000    -2.3788910000
    8      H       1.0925670000    -2.8197990000    -3.0037200000
    9      H       1.7919400000    -1.3262100000    -2.3139750000
   10      H       0.1147720000    -1.3253740000    -2.9243900000
   11      C       0.0000000000     0.0000000000     0.0000000000
   12      C       0.1436300000     0.8323090000     1.1130200000
   13      C       0.3805500000     2.2029610000     0.8205780000
   14      H       0.0775560000     0.4498770000     2.1428810000
   15      C       0.4229950000     2.4474560000    -0.5635880000
   16      S       0.1649090000     0.9565020000    -1.4647480000
   17      C       0.5618880000     3.2520160000     1.8823800000
   18      H       0.4855130000     2.8106240000     2.8949740000
   19      H      -0.2057110000     4.0504820000     1.8081370000
   20      H       1.5530450000     3.7463650000     1.8082300000
   21      H       0.5861050000     3.3915010000    -1.0971140000
   22      H       0.4799860000    -4.4202190000     1.3017720000
   23      H      -1.2069640000    -4.4193950000     0.6877950000
   24      H       1.0148730000    -1.4506280000     0.3693680000
 ----------------------------------------------------------------

   10   -1180.7576668367      4.90e-07  Convergence criterion met
 Total energy in the final basis set =    -1180.7576668367
        RIMP2         total energy =     -1182.7637360011 a.u.

                    Orbital Energies (a.u.)
 --------------------------------------------------------------

 Alpha MOs
 -- Occupied --
-91.9822 -91.9465 -11.2903 -11.2653 -11.2619 -11.2537 -11.2502 -11.2444
-11.2323 -11.2299 -11.2278 -11.2225  -8.9821  -8.9510  -6.6630  -6.6625
 -6.6618  -6.6324  -6.6314  -6.6301  -1.2017  -1.1523  -1.0596  -1.0277
 -1.0073  -0.9559  -0.9156  -0.9018  -0.8140  -0.7708  -0.7188  -0.7025
 -0.6623  -0.6469  -0.6112  -0.5886  -0.5817  -0.5728  -0.5682  -0.5540
 -0.5420  -0.5329  -0.5154  -0.5088  -0.4917  -0.4834  -0.4571  -0.4474
 -0.3585  -0.3417  -0.3253  -0.2654

          Ground-State Mulliken Net Atomic Charges

     Atom                 Charge (a.u.)
  ----------------------------------------
      1 C                    -0.073882
      2 C                    -0.319603
      3 C                    -0.036552
      4 H                     0.179632
      5 C                     0.095213
      6 S                    -0.179829
      7 C                    -0.305260
      8 H                     0.118969
      9 H                     0.115204
     10 H                     0.110357
     11 C                    -0.010701
     12 C                    -0.301370
     13 C                     0.036895
     14 H                     0.177565
     15 C                    -0.275008
     16 S                     0.008268
     17 C                    -0.271558
     18 H                     0.102720
     19 H                     0.108515
     20 H                     0.107904
     21 H                     0.196582
     22 H                     0.110994
     23 H                     0.114117
     24 H                     0.190829
  ----------------------------------------
  Sum of atomic charges =     0.000000

                    Cartesian Multipole Moments
 -----------------------------------------------------------------
    Charge (ESU x 10^10)
                -0.0000
    Dipole Moment (Debye)
         X       1.9092      Y      -0.4069      Z      -0.6487
       Tot       2.0570
    Quadrupole Moments (Debye-Ang)
        XX     -91.5957     XY      -0.9855     YY     -73.7426
        XZ       0.2757     YZ       4.1143     ZZ     -85.4055

 Total job time:  53.27s(wall), 1886.08s(cpu)
        *  Thank you very much for using Q-Chem.  Have a nice day.  *
