 Q-Chem 5.4, Q-Chem, Inc., Pleasanton, CA (2021)
 Q-Chem 5.4.0 for Intel X86 EM64T Linux

User input:
--------------------------------------------------------------
$molecule
0 1
C	0.124726	-3.887800	0.713644
C	-0.115824	-3.701456	-0.650907
C	-0.188844	-2.345170	-1.068646
H	-0.238841	-4.545233	-1.346284
C	0.000000	-1.450135	0.000000
S	0.264890	-2.321334	1.504375
C	-0.439816	-1.934439	-2.492978
H	-0.555669	-2.819799	-3.147582
H	0.394879	-1.326210	-2.899931
H	-1.362799	-1.325374	-2.589982
C	0.000000	0.000000	0.000000
C	0.143630	0.832309	1.113020
C	0.380550	2.202961	0.820578
H	0.077556	0.449877	2.142881
C	0.422995	2.447456	-0.563588
S	0.164909	0.956502	-1.464748
C	0.561888	3.252016	1.882380
H	0.485513	2.810624	2.894974
H	-0.205711	4.050482	1.808137
H	1.553045	3.746365	1.808230
H	0.586105	3.391501	-1.097114
H	1.066566	-4.420219	0.887375
H	-0.701364	-4.419395	1.199130
H	1.063590	-1.450628	-0.187554
$end

$rem
JOBTYPE		SP
EXCHANGE	HF
CORRELATION	pRIMP2
BASIS		cc-pvtz
METHOD		rimp2
AUX_BASIS	rimp2-cc-pvtz
SOLVENT_METHOD	PCM
PURECART	11111
SYMMETRY	false
MEM_TOTAL	110000
SCF_CONVERGENCE = 6
THRESH=10
GUI = 2
$end

$solvent
dielectric 4.90
$end
--------------------------------------------------------------

             Standard Nuclear Orientation (Angstroms)
    I     Atom           X                Y                Z
 ----------------------------------------------------------------
    1      C       0.1247260000    -3.8878000000     0.7136440000
    2      C      -0.1158240000    -3.7014560000    -0.6509070000
    3      C      -0.1888440000    -2.3451700000    -1.0686460000
    4      H      -0.2388410000    -4.5452330000    -1.3462840000
    5      C       0.0000000000    -1.4501350000     0.0000000000
    6      S       0.2648900000    -2.3213340000     1.5043750000
    7      C      -0.4398160000    -1.9344390000    -2.4929780000
    8      H      -0.5556690000    -2.8197990000    -3.1475820000
    9      H       0.3948790000    -1.3262100000    -2.8999310000
   10      H      -1.3627990000    -1.3253740000    -2.5899820000
   11      C       0.0000000000     0.0000000000     0.0000000000
   12      C       0.1436300000     0.8323090000     1.1130200000
   13      C       0.3805500000     2.2029610000     0.8205780000
   14      H       0.0775560000     0.4498770000     2.1428810000
   15      C       0.4229950000     2.4474560000    -0.5635880000
   16      S       0.1649090000     0.9565020000    -1.4647480000
   17      C       0.5618880000     3.2520160000     1.8823800000
   18      H       0.4855130000     2.8106240000     2.8949740000
   19      H      -0.2057110000     4.0504820000     1.8081370000
   20      H       1.5530450000     3.7463650000     1.8082300000
   21      H       0.5861050000     3.3915010000    -1.0971140000
   22      H       1.0665660000    -4.4202190000     0.8873750000
   23      H      -0.7013640000    -4.4193950000     1.1991300000
   24      H       1.0635900000    -1.4506280000    -0.1875540000
 ----------------------------------------------------------------

   10   -1180.7602160218      4.99e-07  Convergence criterion met
 Total energy in the final basis set =    -1180.7602160218
        RIMP2         total energy =     -1182.7651863796 a.u.

                    Orbital Energies (a.u.)
 --------------------------------------------------------------

 Alpha MOs
 -- Occupied --
-91.9816 -91.9476 -11.2908 -11.2653 -11.2634 -11.2540 -11.2500 -11.2448
-11.2329 -11.2299 -11.2276 -11.2234  -8.9817  -8.9520  -6.6627  -6.6621
 -6.6614  -6.6334  -6.6324  -6.6311  -1.2023  -1.1525  -1.0602  -1.0283
 -1.0066  -0.9566  -0.9167  -0.9018  -0.8144  -0.7718  -0.7178  -0.7046
 -0.6592  -0.6483  -0.6115  -0.5924  -0.5814  -0.5717  -0.5686  -0.5536
 -0.5421  -0.5338  -0.5159  -0.5089  -0.4893  -0.4865  -0.4584  -0.4459
 -0.3594  -0.3420  -0.3271  -0.2660

          Ground-State Mulliken Net Atomic Charges

     Atom                 Charge (a.u.)
  ----------------------------------------
      1 C                    -0.073292
      2 C                    -0.314566
      3 C                    -0.060533
      4 H                     0.179721
      5 C                     0.143218
      6 S                    -0.185116
      7 C                    -0.309816
      8 H                     0.121673
      9 H                     0.107799
     10 H                     0.119491
     11 C                    -0.009491
     12 C                    -0.331748
     13 C                     0.053312
     14 H                     0.176442
     15 C                    -0.284054
     16 S                     0.007424
     17 C                    -0.271741
     18 H                     0.102806
     19 H                     0.108219
     20 H                     0.108853
     21 H                     0.196568
     22 H                     0.112332
     23 H                     0.112584
     24 H                     0.189914
  ----------------------------------------
  Sum of atomic charges =     0.000000

                    Cartesian Multipole Moments
 -----------------------------------------------------------------
    Charge (ESU x 10^10)
                -0.0000
    Dipole Moment (Debye)
         X       0.6498      Y      -0.4927      Z      -1.1670
       Tot       1.4237
    Quadrupole Moments (Debye-Ang)
        XX     -91.4030     XY       0.8089     YY     -73.2007
        XZ       0.6202     YZ       5.1146     ZZ     -85.6444

 Total job time:  53.84s(wall), 1870.80s(cpu)
        *  Thank you very much for using Q-Chem.  Have a nice day.  *
