 Q-Chem 5.4, Q-Chem, Inc., Pleasanton, CA (2021)
 Q-Chem 5.4.0 for Intel X86 EM64T Linux

User input:
--------------------------------------------------------------
$molecule
0 1
C	-0.126876	-3.887800	0.713264
C	0.113784	-3.701456	-0.651267
C	0.188043	-2.345170	-1.068787
H	0.236019	-4.545233	-1.346782
C	-0.000000	-1.450135	-0.000000
S	-0.265612	-2.321334	1.504247
C	0.439357	-1.934439	-2.493059
H	0.554378	-2.819799	-3.147809
H	1.362899	-1.326210	-2.589987
H	-0.394786	-1.325374	-2.899892
C	0.000000	0.000000	0.000000
C	0.070542	0.841660	1.113020
C	0.187101	2.227746	0.820578
H	0.038051	0.454925	2.142881
C	0.208076	2.475009	-0.563588
S	0.080917	0.967235	-1.464748
C	0.276318	3.288613	1.882380
H	0.238704	2.842244	2.894974
H	-0.557951	4.017140	1.808137
H	1.220618	3.867466	1.808230
H	0.288286	3.429678	-1.097114
H	0.698744	-4.420219	1.198647
H	-1.069193	-4.419395	0.886933
H	1.063595	-1.450628	0.187526
$end

$rem
JOBTYPE		SP
EXCHANGE	HF
CORRELATION	pRIMP2
BASIS		cc-pvtz
METHOD		rimp2
AUX_BASIS	rimp2-cc-pvtz
SOLVENT_METHOD	PCM
PURECART	11111
SYMMETRY	false
MEM_TOTAL	110000
SCF_CONVERGENCE = 6
THRESH=10
GUI = 2
$end

$solvent
dielectric 4.90
$end
--------------------------------------------------------------

             Standard Nuclear Orientation (Angstroms)
    I     Atom           X                Y                Z
 ----------------------------------------------------------------
    1      C      -0.1268760000    -3.8878000000     0.7132640000
    2      C       0.1137840000    -3.7014560000    -0.6512670000
    3      C       0.1880430000    -2.3451700000    -1.0687870000
    4      H       0.2360190000    -4.5452330000    -1.3467820000
    5      C       0.0000000000    -1.4501350000     0.0000000000
    6      S      -0.2656120000    -2.3213340000     1.5042470000
    7      C       0.4393570000    -1.9344390000    -2.4930590000
    8      H       0.5543780000    -2.8197990000    -3.1478090000
    9      H       1.3628990000    -1.3262100000    -2.5899870000
   10      H      -0.3947860000    -1.3253740000    -2.8998920000
   11      C       0.0000000000     0.0000000000     0.0000000000
   12      C       0.0705420000     0.8416600000     1.1130200000
   13      C       0.1871010000     2.2277460000     0.8205780000
   14      H       0.0380510000     0.4549250000     2.1428810000
   15      C       0.2080760000     2.4750090000    -0.5635880000
   16      S       0.0809170000     0.9672350000    -1.4647480000
   17      C       0.2763180000     3.2886130000     1.8823800000
   18      H       0.2387040000     2.8422440000     2.8949740000
   19      H      -0.5579510000     4.0171400000     1.8081370000
   20      H       1.2206180000     3.8674660000     1.8082300000
   21      H       0.2882860000     3.4296780000    -1.0971140000
   22      H       0.6987440000    -4.4202190000     1.1986470000
   23      H      -1.0691930000    -4.4193950000     0.8869330000
   24      H       1.0635950000    -1.4506280000     0.1875260000
 ----------------------------------------------------------------

   10   -1180.7596757283      5.01e-07  Convergence criterion met
 Total energy in the final basis set =    -1180.7596757283
        RIMP2         total energy =     -1182.7650371707 a.u.

                    Orbital Energies (a.u.)
 --------------------------------------------------------------

 Alpha MOs
 -- Occupied --
-91.9821 -91.9474 -11.2913 -11.2657 -11.2629 -11.2528 -11.2500 -11.2449
-11.2328 -11.2293 -11.2276 -11.2231  -8.9820  -8.9519  -6.6629  -6.6624
 -6.6617  -6.6333  -6.6323  -6.6310  -1.2021  -1.1523  -1.0600  -1.0283
 -1.0072  -0.9560  -0.9164  -0.9018  -0.8146  -0.7715  -0.7171  -0.7038
 -0.6615  -0.6481  -0.6113  -0.5904  -0.5820  -0.5722  -0.5681  -0.5541
 -0.5420  -0.5334  -0.5160  -0.5088  -0.4905  -0.4856  -0.4576  -0.4467
 -0.3593  -0.3416  -0.3266  -0.2652

          Ground-State Mulliken Net Atomic Charges

     Atom                 Charge (a.u.)
  ----------------------------------------
      1 C                    -0.073209
      2 C                    -0.318369
      3 C                    -0.043961
      4 H                     0.180066
      5 C                     0.125067
      6 S                    -0.183067
      7 C                    -0.311550
      8 H                     0.121786
      9 H                     0.113880
     10 H                     0.112675
     11 C                    -0.015986
     12 C                    -0.313496
     13 C                     0.042190
     14 H                     0.175947
     15 C                    -0.281591
     16 S                     0.009157
     17 C                    -0.272093
     18 H                     0.102755
     19 H                     0.108445
     20 H                     0.108245
     21 H                     0.196644
     22 H                     0.111176
     23 H                     0.113857
     24 H                     0.191432
  ----------------------------------------
  Sum of atomic charges =     0.000000

                    Cartesian Multipole Moments
 -----------------------------------------------------------------
    Charge (ESU x 10^10)
                -0.0000
    Dipole Moment (Debye)
         X       1.4169      Y      -0.5116      Z      -0.8993
       Tot       1.7545
    Quadrupole Moments (Debye-Ang)
        XX     -91.7939     XY      -1.2860     YY     -73.2481
        XZ       0.2846     YZ       4.5757     ZZ     -85.4148

 Total job time:  54.16s(wall), 1895.83s(cpu)
        *  Thank you very much for using Q-Chem.  Have a nice day.  *
