 Q-Chem 5.4, Q-Chem, Inc., Pleasanton, CA (2021)
 Q-Chem 5.4.0 for Intel X86 EM64T Linux

User input:
--------------------------------------------------------------
$molecule
0 1
C	0.626855	-3.887800	0.363176
C	-0.573074	-3.701456	-0.329669
C	-0.940016	-2.345170	-0.542250
H	-1.184837	-4.545233	-0.682412
C	-0.000000	-1.450135	-0.000000
S	1.322686	-2.321334	0.764076
C	-2.192440	-1.934439	-1.265537
H	-2.768365	-2.819799	-1.597559
H	-1.967653	-1.326210	-2.166534
H	-2.860032	-1.325374	-0.620843
C	0.000000	0.000000	0.000000
C	0.215623	0.816623	1.113020
C	0.571102	2.161411	0.820578
H	0.116470	0.441406	2.142881
C	0.634696	2.401276	-0.563588
S	0.247646	0.938489	-1.464748
C	0.843182	3.190669	1.882380
H	0.728628	2.757614	2.894974
H	0.148095	4.052998	1.808137
H	1.873652	3.596752	1.808230
H	0.879464	3.327513	-1.097114
H	1.365344	-4.420219	-0.246643
H	0.467758	-4.419395	1.308062
H	0.539988	-1.450628	-0.935314
$end

$rem
JOBTYPE		SP
EXCHANGE	HF
CORRELATION	pRIMP2
BASIS		cc-pvtz
METHOD		rimp2
AUX_BASIS	rimp2-cc-pvtz
SOLVENT_METHOD	PCM
PURECART	11111
SYMMETRY	false
MEM_TOTAL	110000
SCF_CONVERGENCE = 6
THRESH=10
GUI = 2
$end

$solvent
dielectric 4.90
$end
--------------------------------------------------------------

             Standard Nuclear Orientation (Angstroms)
    I     Atom           X                Y                Z
 ----------------------------------------------------------------
    1      C       0.6268550000    -3.8878000000     0.3631760000
    2      C      -0.5730740000    -3.7014560000    -0.3296690000
    3      C      -0.9400160000    -2.3451700000    -0.5422500000
    4      H      -1.1848370000    -4.5452330000    -0.6824120000
    5      C       0.0000000000    -1.4501350000     0.0000000000
    6      S       1.3226860000    -2.3213340000     0.7640760000
    7      C      -2.1924400000    -1.9344390000    -1.2655370000
    8      H      -2.7683650000    -2.8197990000    -1.5975590000
    9      H      -1.9676530000    -1.3262100000    -2.1665340000
   10      H      -2.8600320000    -1.3253740000    -0.6208430000
   11      C       0.0000000000     0.0000000000     0.0000000000
   12      C       0.2156230000     0.8166230000     1.1130200000
   13      C       0.5711020000     2.1614110000     0.8205780000
   14      H       0.1164700000     0.4414060000     2.1428810000
   15      C       0.6346960000     2.4012760000    -0.5635880000
   16      S       0.2476460000     0.9384890000    -1.4647480000
   17      C       0.8431820000     3.1906690000     1.8823800000
   18      H       0.7286280000     2.7576140000     2.8949740000
   19      H       0.1480950000     4.0529980000     1.8081370000
   20      H       1.8736520000     3.5967520000     1.8082300000
   21      H       0.8794640000     3.3275130000    -1.0971140000
   22      H       1.3653440000    -4.4202190000    -0.2466430000
   23      H       0.4677580000    -4.4193950000     1.3080620000
   24      H       0.5399880000    -1.4506280000    -0.9353140000
 ----------------------------------------------------------------

   10   -1180.7580517551      5.02e-07  Convergence criterion met
 Total energy in the final basis set =    -1180.7580517551
        RIMP2         total energy =     -1182.7623551554 a.u.

                    Orbital Energies (a.u.)
 --------------------------------------------------------------

 Alpha MOs
 -- Occupied --
-91.9847 -91.9434 -11.2811 -11.2641 -11.2617 -11.2564 -11.2509 -11.2414
-11.2375 -11.2316 -11.2286 -11.2190  -8.9846  -8.9478  -6.6655  -6.6650
 -6.6643  -6.6292  -6.6282  -6.6269  -1.1984  -1.1536  -1.0581  -1.0257
 -1.0041  -0.9607  -0.9140  -0.9005  -0.8123  -0.7666  -0.7326  -0.7035
 -0.6542  -0.6365  -0.6111  -0.5897  -0.5764  -0.5737  -0.5689  -0.5528
 -0.5417  -0.5315  -0.5124  -0.5059  -0.4886  -0.4844  -0.4624  -0.4481
 -0.3559  -0.3423  -0.3184  -0.2756

          Ground-State Mulliken Net Atomic Charges

     Atom                 Charge (a.u.)
  ----------------------------------------
      1 C                    -0.075363
      2 C                    -0.324470
      3 C                    -0.049420
      4 H                     0.176687
      5 C                     0.114817
      6 S                    -0.174954
      7 C                    -0.269243
      8 H                     0.113767
      9 H                     0.099608
     10 H                     0.109279
     11 C                    -0.080631
     12 C                    -0.264946
     13 C                     0.038476
     14 H                     0.186177
     15 C                    -0.247739
     16 S                     0.010389
     17 C                    -0.271966
     18 H                     0.103105
     19 H                     0.107941
     20 H                     0.108510
     21 H                     0.198387
     22 H                     0.110806
     23 H                     0.110442
     24 H                     0.170341
  ----------------------------------------
  Sum of atomic charges =     0.000000

                    Cartesian Multipole Moments
 -----------------------------------------------------------------
    Charge (ESU x 10^10)
                -0.0000
    Dipole Moment (Debye)
         X      -1.2260      Y       0.5071      Z      -0.3393
       Tot       1.3695
    Quadrupole Moments (Debye-Ang)
        XX     -90.7122     XY       5.0893     YY     -74.3771
        XZ       0.2662     YZ       4.1785     ZZ     -86.1420

 Total job time:  57.07s(wall), 1918.83s(cpu)
        *  Thank you very much for using Q-Chem.  Have a nice day.  *
