 Q-Chem 5.4, Q-Chem, Inc., Pleasanton, CA (2021)
 Q-Chem 5.4.0 for Intel X86 EM64T Linux

User input:
--------------------------------------------------------------
$molecule
0 1
C	0.363176	-3.887800	-0.626855
C	-0.329669	-3.701456	0.573074
C	-0.542250	-2.345170	0.940016
H	-0.682412	-4.545233	1.184837
C	-0.000000	-1.450135	-0.000000
S	0.764076	-2.321334	-1.322686
C	-1.265537	-1.934439	2.192440
H	-1.597559	-2.819799	2.768365
H	-2.166534	-1.326210	1.967653
H	-0.620843	-1.325374	2.860032
C	0.000000	0.000000	0.000000
C	0.540541	0.648986	1.113020
C	1.431046	1.717546	0.820578
H	0.292104	0.350827	2.142881
C	1.590053	1.908061	-0.563588
S	0.621066	0.745901	-1.464748
C	2.112618	2.535384	1.882380
H	1.825779	2.191315	2.894974
H	1.847090	3.610676	1.808137
H	3.218159	2.467925	1.808230
H	2.203332	2.644073	-1.097114
H	-0.246643	-4.420219	-1.365344
H	1.308062	-4.419395	-0.467758
H	-0.935314	-1.450628	-0.539988
$end

$rem
JOBTYPE		SP
EXCHANGE	HF
CORRELATION	pRIMP2
BASIS		cc-pvtz
METHOD		rimp2
AUX_BASIS	rimp2-cc-pvtz
SOLVENT_METHOD	PCM
PURECART	11111
SYMMETRY	false
MEM_TOTAL	110000
SCF_CONVERGENCE = 6
THRESH=10
GUI = 2
$end

$solvent
dielectric 4.90
$end
--------------------------------------------------------------

             Standard Nuclear Orientation (Angstroms)
    I     Atom           X                Y                Z
 ----------------------------------------------------------------
    1      C       0.3631760000    -3.8878000000    -0.6268550000
    2      C      -0.3296690000    -3.7014560000     0.5730740000
    3      C      -0.5422500000    -2.3451700000     0.9400160000
    4      H      -0.6824120000    -4.5452330000     1.1848370000
    5      C       0.0000000000    -1.4501350000     0.0000000000
    6      S       0.7640760000    -2.3213340000    -1.3226860000
    7      C      -1.2655370000    -1.9344390000     2.1924400000
    8      H      -1.5975590000    -2.8197990000     2.7683650000
    9      H      -2.1665340000    -1.3262100000     1.9676530000
   10      H      -0.6208430000    -1.3253740000     2.8600320000
   11      C       0.0000000000     0.0000000000     0.0000000000
   12      C       0.5405410000     0.6489860000     1.1130200000
   13      C       1.4310460000     1.7175460000     0.8205780000
   14      H       0.2921040000     0.3508270000     2.1428810000
   15      C       1.5900530000     1.9080610000    -0.5635880000
   16      S       0.6210660000     0.7459010000    -1.4647480000
   17      C       2.1126180000     2.5353840000     1.8823800000
   18      H       1.8257790000     2.1913150000     2.8949740000
   19      H       1.8470900000     3.6106760000     1.8081370000
   20      H       3.2181590000     2.4679250000     1.8082300000
   21      H       2.2033320000     2.6440730000    -1.0971140000
   22      H      -0.2466430000    -4.4202190000    -1.3653440000
   23      H       1.3080620000    -4.4193950000    -0.4677580000
   24      H      -0.9353140000    -1.4506280000    -0.5399880000
 ----------------------------------------------------------------

   10   -1180.7196968280      7.05e-07  Convergence criterion met
 Total energy in the final basis set =    -1180.7196968280
        RIMP2         total energy =     -1182.7345525423 a.u.

                    Orbital Energies (a.u.)
 --------------------------------------------------------------

 Alpha MOs
 -- Occupied --
-91.9830 -91.9418 -11.2713 -11.2698 -11.2620 -11.2519 -11.2513 -11.2420
-11.2391 -11.2324 -11.2292 -11.2169  -8.9832  -8.9463  -6.6641  -6.6634
 -6.6629  -6.6276  -6.6266  -6.6253  -1.1993  -1.1535  -1.0567  -1.0299
 -0.9988  -0.9646  -0.9120  -0.9010  -0.8141  -0.7576  -0.7383  -0.7053
 -0.6517  -0.6375  -0.6110  -0.5919  -0.5839  -0.5677  -0.5666  -0.5512
 -0.5438  -0.5330  -0.5168  -0.5054  -0.4860  -0.4742  -0.4640  -0.4418
 -0.3554  -0.3418  -0.3238  -0.2606

          Ground-State Mulliken Net Atomic Charges

     Atom                 Charge (a.u.)
  ----------------------------------------
      1 C                    -0.080504
      2 C                    -0.329162
      3 C                    -0.045032
      4 H                     0.175746
      5 C                     0.079712
      6 S                    -0.174801
      7 C                    -0.290045
      8 H                     0.117784
      9 H                     0.109830
     10 H                     0.101404
     11 C                    -0.098660
     12 C                    -0.199590
     13 C                     0.011257
     14 H                     0.195150
     15 C                    -0.219446
     16 S                     0.004960
     17 C                    -0.270565
     18 H                     0.100737
     19 H                     0.108081
     20 H                     0.107321
     21 H                     0.200105
     22 H                     0.108017
     23 H                     0.111415
     24 H                     0.176287
  ----------------------------------------
  Sum of atomic charges =     0.000000

                    Cartesian Multipole Moments
 -----------------------------------------------------------------
    Charge (ESU x 10^10)
                -0.0000
    Dipole Moment (Debye)
         X      -0.4733      Y       0.5631      Z       3.1123
       Tot       3.1980
    Quadrupole Moments (Debye-Ang)
        XX     -87.3783     XY       8.5485     YY     -78.7191
        XZ       0.5564     YZ      -1.6321     ZZ     -85.2992

 Total job time:  57.22s(wall), 1967.24s(cpu)
        *  Thank you very much for using Q-Chem.  Have a nice day.  *
