 Q-Chem 5.4, Q-Chem, Inc., Pleasanton, CA (2021)
 Q-Chem 5.4.0 for Intel X86 EM64T Linux

User input:
--------------------------------------------------------------
$molecule
0 1
C	0.126876	-3.887800	-0.713264
C	-0.113784	-3.701456	0.651267
C	-0.188043	-2.345170	1.068787
H	-0.236019	-4.545233	1.346782
C	-0.000000	-1.450135	-0.000000
S	0.265612	-2.321334	-1.504247
C	-0.439357	-1.934439	2.493059
H	-0.554378	-2.819799	3.147809
H	-1.362899	-1.326210	2.589987
H	0.394786	-1.325374	2.899892
C	0.000000	0.000000	0.000000
C	0.540541	0.648986	1.113020
C	1.431046	1.717546	0.820578
H	0.292104	0.350827	2.142881
C	1.590053	1.908061	-0.563588
S	0.621066	0.745901	-1.464748
C	2.112618	2.535384	1.882380
H	1.825779	2.191315	2.894974
H	1.847090	3.610676	1.808137
H	3.218159	2.467925	1.808230
H	2.203332	2.644073	-1.097114
H	-0.698744	-4.420219	-1.198647
H	1.069193	-4.419395	-0.886933
H	-1.063595	-1.450628	-0.187526
$end

$rem
JOBTYPE		SP
EXCHANGE	HF
CORRELATION	pRIMP2
BASIS		cc-pvtz
METHOD		rimp2
AUX_BASIS	rimp2-cc-pvtz
SOLVENT_METHOD	PCM
PURECART	11111
SYMMETRY	false
MEM_TOTAL	110000
SCF_CONVERGENCE = 6
THRESH=10
GUI = 2
$end

$solvent
dielectric 4.90
$end
--------------------------------------------------------------

             Standard Nuclear Orientation (Angstroms)
    I     Atom           X                Y                Z
 ----------------------------------------------------------------
    1      C       0.1268760000    -3.8878000000    -0.7132640000
    2      C      -0.1137840000    -3.7014560000     0.6512670000
    3      C      -0.1880430000    -2.3451700000     1.0687870000
    4      H      -0.2360190000    -4.5452330000     1.3467820000
    5      C       0.0000000000    -1.4501350000     0.0000000000
    6      S       0.2656120000    -2.3213340000    -1.5042470000
    7      C      -0.4393570000    -1.9344390000     2.4930590000
    8      H      -0.5543780000    -2.8197990000     3.1478090000
    9      H      -1.3628990000    -1.3262100000     2.5899870000
   10      H       0.3947860000    -1.3253740000     2.8998920000
   11      C       0.0000000000     0.0000000000     0.0000000000
   12      C       0.5405410000     0.6489860000     1.1130200000
   13      C       1.4310460000     1.7175460000     0.8205780000
   14      H       0.2921040000     0.3508270000     2.1428810000
   15      C       1.5900530000     1.9080610000    -0.5635880000
   16      S       0.6210660000     0.7459010000    -1.4647480000
   17      C       2.1126180000     2.5353840000     1.8823800000
   18      H       1.8257790000     2.1913150000     2.8949740000
   19      H       1.8470900000     3.6106760000     1.8081370000
   20      H       3.2181590000     2.4679250000     1.8082300000
   21      H       2.2033320000     2.6440730000    -1.0971140000
   22      H      -0.6987440000    -4.4202190000    -1.1986470000
   23      H       1.0691930000    -4.4193950000    -0.8869330000
   24      H      -1.0635950000    -1.4506280000    -0.1875260000
 ----------------------------------------------------------------

   10   -1180.7136939256      7.87e-07  Convergence criterion met
 Total energy in the final basis set =    -1180.7136939256
        RIMP2         total energy =     -1182.7310048148 a.u.

                    Orbital Energies (a.u.)
 --------------------------------------------------------------

 Alpha MOs
 -- Occupied --
-91.9816 -91.9434 -11.2739 -11.2664 -11.2635 -11.2534 -11.2505 -11.2410
-11.2386 -11.2330 -11.2289 -11.2179  -8.9818  -8.9479  -6.6627  -6.6620
 -6.6615  -6.6293  -6.6283  -6.6270  -1.2004  -1.1529  -1.0573  -1.0316
 -0.9988  -0.9638  -0.9143  -0.9005  -0.8146  -0.7593  -0.7325  -0.7085
 -0.6517  -0.6429  -0.6104  -0.5947  -0.5865  -0.5682  -0.5649  -0.5481
 -0.5452  -0.5339  -0.5219  -0.5032  -0.4830  -0.4738  -0.4634  -0.4397
 -0.3603  -0.3411  -0.3235  -0.2576

          Ground-State Mulliken Net Atomic Charges

     Atom                 Charge (a.u.)
  ----------------------------------------
      1 C                    -0.077524
      2 C                    -0.327440
      3 C                    -0.036806
      4 H                     0.177266
      5 C                     0.086200
      6 S                    -0.181272
      7 C                    -0.296264
      8 H                     0.121039
      9 H                     0.109835
     10 H                     0.101661
     11 C                    -0.073624
     12 C                    -0.238595
     13 C                     0.026601
     14 H                     0.193740
     15 C                    -0.240499
     16 S                     0.012450
     17 C                    -0.269932
     18 H                     0.100545
     19 H                     0.108536
     20 H                     0.107117
     21 H                     0.198967
     22 H                     0.109825
     23 H                     0.112110
     24 H                     0.176063
  ----------------------------------------
  Sum of atomic charges =     0.000000

                    Cartesian Multipole Moments
 -----------------------------------------------------------------
    Charge (ESU x 10^10)
                -0.0000
    Dipole Moment (Debye)
         X       0.0593      Y       0.2120      Z       3.6822
       Tot       3.6888
    Quadrupole Moments (Debye-Ang)
        XX     -87.4052     XY       7.2910     YY     -78.4366
        XZ       0.7885     YZ      -2.4038     ZZ     -85.3556

 Total job time:  55.30s(wall), 1926.72s(cpu)
        *  Thank you very much for using Q-Chem.  Have a nice day.  *
