 Q-Chem 5.4, Q-Chem, Inc., Pleasanton, CA (2021)
 Q-Chem 5.4.0 for Intel X86 EM64T Linux

User input:
--------------------------------------------------------------
$molecule
0 1
C	0.001092	-3.887800	-0.724460
C	0.001036	-3.701456	0.661131
C	0.000406	-2.345170	1.085203
H	0.001433	-4.545233	1.367305
C	0.000000	-1.450135	0.000000
S	0.000367	-2.321334	-1.527517
C	0.000233	-1.934439	2.531478
H	0.000656	-2.819799	3.196254
H	-0.892447	-1.326210	2.787305
H	0.892350	-1.325374	2.787282
C	0.000000	0.000000	0.000000
C	0.729909	0.424971	1.113020
C	1.932179	1.124518	0.820578
H	0.394478	0.229765	2.142881
C	2.146756	1.249161	-0.563588
S	0.838724	0.488500	-1.464748
C	2.852364	1.659924	1.882380
H	2.465145	1.434710	2.894974
H	2.970621	2.761183	1.808137
H	3.868160	1.218416	1.808230
H	2.974781	1.731032	-1.097114
H	-0.896272	-4.420219	-1.059101
H	0.898936	-4.419395	-1.059122
H	-1.080000	-1.450628	0.000014
$end

$rem
JOBTYPE		SP
EXCHANGE	HF
CORRELATION	pRIMP2
BASIS		cc-pvtz
METHOD		rimp2
AUX_BASIS	rimp2-cc-pvtz
SOLVENT_METHOD	PCM
PURECART	11111
SYMMETRY	false
MEM_TOTAL	110000
SCF_CONVERGENCE = 6
THRESH=10
GUI = 2
$end

$solvent
dielectric 4.90
$end
--------------------------------------------------------------

             Standard Nuclear Orientation (Angstroms)
    I     Atom           X                Y                Z
 ----------------------------------------------------------------
    1      C       0.0010920000    -3.8878000000    -0.7244600000
    2      C       0.0010360000    -3.7014560000     0.6611310000
    3      C       0.0004060000    -2.3451700000     1.0852030000
    4      H       0.0014330000    -4.5452330000     1.3673050000
    5      C       0.0000000000    -1.4501350000     0.0000000000
    6      S       0.0003670000    -2.3213340000    -1.5275170000
    7      C       0.0002330000    -1.9344390000     2.5314780000
    8      H       0.0006560000    -2.8197990000     3.1962540000
    9      H      -0.8924470000    -1.3262100000     2.7873050000
   10      H       0.8923500000    -1.3253740000     2.7872820000
   11      C       0.0000000000     0.0000000000     0.0000000000
   12      C       0.7299090000     0.4249710000     1.1130200000
   13      C       1.9321790000     1.1245180000     0.8205780000
   14      H       0.3944780000     0.2297650000     2.1428810000
   15      C       2.1467560000     1.2491610000    -0.5635880000
   16      S       0.8387240000     0.4885000000    -1.4647480000
   17      C       2.8523640000     1.6599240000     1.8823800000
   18      H       2.4651450000     1.4347100000     2.8949740000
   19      H       2.9706210000     2.7611830000     1.8081370000
   20      H       3.8681600000     1.2184160000     1.8082300000
   21      H       2.9747810000     1.7310320000    -1.0971140000
   22      H      -0.8962720000    -4.4202190000    -1.0591010000
   23      H       0.8989360000    -4.4193950000    -1.0591220000
   24      H      -1.0800000000    -1.4506280000     0.0000140000
 ----------------------------------------------------------------

   11   -1180.6578927445      6.71e-07  Convergence criterion met
 Total energy in the final basis set =    -1180.6578927445
        RIMP2         total energy =     -1182.6875046589 a.u.

                    Orbital Energies (a.u.)
 --------------------------------------------------------------

 Alpha MOs
 -- Occupied --
-91.9771 -91.9384 -11.2837 -11.2604 -11.2536 -11.2510 -11.2501 -11.2465
-11.2371 -11.2323 -11.2304 -11.2117  -8.9782  -8.9431  -6.6589  -6.6580
 -6.6578  -6.6244  -6.6234  -6.6221  -1.2036  -1.1527  -1.0569  -1.0336
 -0.9966  -0.9656  -0.9135  -0.9019  -0.8114  -0.7590  -0.7335  -0.7129
 -0.6479  -0.6419  -0.6126  -0.5987  -0.5884  -0.5686  -0.5640  -0.5477
 -0.5434  -0.5340  -0.5228  -0.5042  -0.4792  -0.4732  -0.4434  -0.4339
 -0.3621  -0.3372  -0.3209  -0.2505

          Ground-State Mulliken Net Atomic Charges

     Atom                 Charge (a.u.)
  ----------------------------------------
      1 C                    -0.077791
      2 C                    -0.345227
      3 C                    -0.033673
      4 H                     0.174619
      5 C                     0.064229
      6 S                    -0.191289
      7 C                    -0.284185
      8 H                     0.119800
      9 H                     0.105174
     10 H                     0.101414
     11 C                    -0.150380
     12 C                    -0.157059
     13 C                    -0.010465
     14 H                     0.198891
     15 C                    -0.186295
     16 S                     0.027686
     17 C                    -0.273502
     18 H                     0.101026
     19 H                     0.110915
     20 H                     0.106457
     21 H                     0.200279
     22 H                     0.107770
     23 H                     0.109029
     24 H                     0.182578
  ----------------------------------------
  Sum of atomic charges =     0.000000

                    Cartesian Multipole Moments
 -----------------------------------------------------------------
    Charge (ESU x 10^10)
                -0.0000
    Dipole Moment (Debye)
         X       1.7802      Y       0.5697      Z       4.0325
       Tot       4.4446
    Quadrupole Moments (Debye-Ang)
        XX     -82.6512     XY       6.5412     YY     -84.0123
        XZ       0.7625     YZ      -2.8554     ZZ     -84.9127

 Total job time:  64.94s(wall), 2138.99s(cpu)
        *  Thank you very much for using Q-Chem.  Have a nice day.  *
