 Q-Chem 5.4, Q-Chem, Inc., Pleasanton, CA (2021)
 Q-Chem 5.4.0 for Intel X86 EM64T Linux

User input:
--------------------------------------------------------------
$molecule
0 1
C	-0.124726	-3.887800	-0.713644
C	0.115824	-3.701456	0.650907
C	0.188844	-2.345170	1.068646
H	0.238841	-4.545233	1.346284
C	-0.000000	-1.450135	-0.000000
S	-0.264890	-2.321334	-1.504375
C	0.439816	-1.934439	2.492978
H	0.555669	-2.819799	3.147582
H	-0.394879	-1.326210	2.899931
H	1.362799	-1.325374	2.589982
C	0.000000	0.000000	0.000000
C	0.070542	0.841660	1.113020
C	0.187101	2.227746	0.820578
H	0.038051	0.454925	2.142881
C	0.208076	2.475009	-0.563588
S	0.080917	0.967235	-1.464748
C	0.276318	3.288613	1.882380
H	0.238704	2.842244	2.894974
H	-0.557951	4.017140	1.808137
H	1.220618	3.867466	1.808230
H	0.288286	3.429678	-1.097114
H	-1.066566	-4.420219	-0.887375
H	0.701364	-4.419395	-1.199130
H	-1.063590	-1.450628	0.187554
$end

$rem
JOBTYPE		SP
EXCHANGE	HF
CORRELATION	pRIMP2
BASIS		cc-pvtz
METHOD		rimp2
AUX_BASIS	rimp2-cc-pvtz
SOLVENT_METHOD	PCM
PURECART	11111
SYMMETRY	false
MEM_TOTAL	110000
SCF_CONVERGENCE = 6
THRESH=10
GUI = 2
$end

$solvent
dielectric 4.90
$end
--------------------------------------------------------------

             Standard Nuclear Orientation (Angstroms)
    I     Atom           X                Y                Z
 ----------------------------------------------------------------
    1      C      -0.1247260000    -3.8878000000    -0.7136440000
    2      C       0.1158240000    -3.7014560000     0.6509070000
    3      C       0.1888440000    -2.3451700000     1.0686460000
    4      H       0.2388410000    -4.5452330000     1.3462840000
    5      C       0.0000000000    -1.4501350000     0.0000000000
    6      S      -0.2648900000    -2.3213340000    -1.5043750000
    7      C       0.4398160000    -1.9344390000     2.4929780000
    8      H       0.5556690000    -2.8197990000     3.1475820000
    9      H      -0.3948790000    -1.3262100000     2.8999310000
   10      H       1.3627990000    -1.3253740000     2.5899820000
   11      C       0.0000000000     0.0000000000     0.0000000000
   12      C       0.0705420000     0.8416600000     1.1130200000
   13      C       0.1871010000     2.2277460000     0.8205780000
   14      H       0.0380510000     0.4549250000     2.1428810000
   15      C       0.2080760000     2.4750090000    -0.5635880000
   16      S       0.0809170000     0.9672350000    -1.4647480000
   17      C       0.2763180000     3.2886130000     1.8823800000
   18      H       0.2387040000     2.8422440000     2.8949740000
   19      H      -0.5579510000     4.0171400000     1.8081370000
   20      H       1.2206180000     3.8674660000     1.8082300000
   21      H       0.2882860000     3.4296780000    -1.0971140000
   22      H      -1.0665660000    -4.4202190000    -0.8873750000
   23      H       0.7013640000    -4.4193950000    -1.1991300000
   24      H      -1.0635900000    -1.4506280000     0.1875540000
 ----------------------------------------------------------------

   10   -1180.7560917148      5.03e-07  Convergence criterion met
 Total energy in the final basis set =    -1180.7560917148
        RIMP2         total energy =     -1182.7620615738 a.u.

                    Orbital Energies (a.u.)
 --------------------------------------------------------------

 Alpha MOs
 -- Occupied --
-91.9843 -91.9468 -11.2905 -11.2667 -11.2624 -11.2535 -11.2499 -11.2452
-11.2342 -11.2282 -11.2275 -11.2240  -8.9838  -8.9514  -6.6648  -6.6643
 -6.6636  -6.6328  -6.6318  -6.6306  -1.2018  -1.1523  -1.0595  -1.0319
 -1.0017  -0.9612  -0.9168  -0.8998  -0.8178  -0.7627  -0.7265  -0.7076
 -0.6577  -0.6488  -0.6110  -0.5944  -0.5868  -0.5690  -0.5594  -0.5518
 -0.5441  -0.5353  -0.5243  -0.5002  -0.4868  -0.4827  -0.4682  -0.4445
 -0.3611  -0.3436  -0.3243  -0.2644

          Ground-State Mulliken Net Atomic Charges

     Atom                 Charge (a.u.)
  ----------------------------------------
      1 C                    -0.072377
      2 C                    -0.311163
      3 C                    -0.068197
      4 H                     0.180112
      5 C                     0.143910
      6 S                    -0.180455
      7 C                    -0.300350
      8 H                     0.123307
      9 H                     0.100440
     10 H                     0.115715
     11 C                    -0.059510
     12 C                    -0.274068
     13 C                     0.035967
     14 H                     0.189988
     15 C                    -0.283940
     16 S                     0.008514
     17 C                    -0.273189
     18 H                     0.100384
     19 H                     0.108422
     20 H                     0.108562
     21 H                     0.196573
     22 H                     0.111997
     23 H                     0.113405
     24 H                     0.185956
  ----------------------------------------
  Sum of atomic charges =     0.000000

                    Cartesian Multipole Moments
 -----------------------------------------------------------------
    Charge (ESU x 10^10)
                -0.0000
    Dipole Moment (Debye)
         X      -0.3311      Y      -0.5084      Z       3.9098
       Tot       3.9566
    Quadrupole Moments (Debye-Ang)
        XX     -91.6035     XY       1.6901     YY     -72.9501
        XZ       0.4372     YZ      -2.5897     ZZ     -85.7790

 Total job time:  55.22s(wall), 1948.94s(cpu)
        *  Thank you very much for using Q-Chem.  Have a nice day.  *
