 Q-Chem 5.4, Q-Chem, Inc., Pleasanton, CA (2021)
 Q-Chem 5.4.0 for Intel X86 EM64T Linux

User input:
--------------------------------------------------------------
$molecule
0 1
C	0.626855	-3.887800	0.363176
C	-0.573074	-3.701456	-0.329669
C	-0.940016	-2.345170	-0.542250
H	-1.184837	-4.545233	-0.682412
C	-0.000000	-1.450135	-0.000000
S	1.322686	-2.321334	0.764076
C	-2.192440	-1.934439	-1.265537
H	-2.768365	-2.819799	-1.597559
H	-1.967653	-1.326210	-2.166534
H	-2.860032	-1.325374	-0.620843
C	0.000000	0.000000	0.000000
C	0.540541	0.648986	1.113020
C	1.431046	1.717546	0.820578
H	0.292104	0.350827	2.142881
C	1.590053	1.908061	-0.563588
S	0.621066	0.745901	-1.464748
C	2.112618	2.535384	1.882380
H	1.825779	2.191315	2.894974
H	1.847090	3.610676	1.808137
H	3.218159	2.467925	1.808230
H	2.203332	2.644073	-1.097114
H	1.365344	-4.420219	-0.246643
H	0.467758	-4.419395	1.308062
H	0.539988	-1.450628	-0.935314
$end

$rem
JOBTYPE		SP
EXCHANGE	HF
CORRELATION	pRIMP2
BASIS		cc-pvtz
METHOD		rimp2
AUX_BASIS	rimp2-cc-pvtz
SOLVENT_METHOD	PCM
PURECART	11111
SYMMETRY	false
MEM_TOTAL	110000
SCF_CONVERGENCE = 6
THRESH=10
GUI = 2
$end

$solvent
dielectric 4.90
$end
--------------------------------------------------------------

             Standard Nuclear Orientation (Angstroms)
    I     Atom           X                Y                Z
 ----------------------------------------------------------------
    1      C       0.6268550000    -3.8878000000     0.3631760000
    2      C      -0.5730740000    -3.7014560000    -0.3296690000
    3      C      -0.9400160000    -2.3451700000    -0.5422500000
    4      H      -1.1848370000    -4.5452330000    -0.6824120000
    5      C       0.0000000000    -1.4501350000     0.0000000000
    6      S       1.3226860000    -2.3213340000     0.7640760000
    7      C      -2.1924400000    -1.9344390000    -1.2655370000
    8      H      -2.7683650000    -2.8197990000    -1.5975590000
    9      H      -1.9676530000    -1.3262100000    -2.1665340000
   10      H      -2.8600320000    -1.3253740000    -0.6208430000
   11      C       0.0000000000     0.0000000000     0.0000000000
   12      C       0.5405410000     0.6489860000     1.1130200000
   13      C       1.4310460000     1.7175460000     0.8205780000
   14      H       0.2921040000     0.3508270000     2.1428810000
   15      C       1.5900530000     1.9080610000    -0.5635880000
   16      S       0.6210660000     0.7459010000    -1.4647480000
   17      C       2.1126180000     2.5353840000     1.8823800000
   18      H       1.8257790000     2.1913150000     2.8949740000
   19      H       1.8470900000     3.6106760000     1.8081370000
   20      H       3.2181590000     2.4679250000     1.8082300000
   21      H       2.2033320000     2.6440730000    -1.0971140000
   22      H       1.3653440000    -4.4202190000    -0.2466430000
   23      H       0.4677580000    -4.4193950000     1.3080620000
   24      H       0.5399880000    -1.4506280000    -0.9353140000
 ----------------------------------------------------------------

   10   -1180.7289559142      5.97e-07  Convergence criterion met
 Total energy in the final basis set =    -1180.7289559142
        RIMP2         total energy =     -1182.7400453612 a.u.

                    Orbital Energies (a.u.)
 --------------------------------------------------------------

 Alpha MOs
 -- Occupied --
-91.9809 -91.9407 -11.2728 -11.2709 -11.2574 -11.2516 -11.2514 -11.2463
-11.2390 -11.2306 -11.2292 -11.2150  -8.9816  -8.9452  -6.6625  -6.6618
 -6.6612  -6.6265  -6.6255  -6.6242  -1.2004  -1.1536  -1.0580  -1.0249
 -1.0031  -0.9609  -0.9131  -0.9003  -0.8091  -0.7668  -0.7345  -0.7030
 -0.6520  -0.6341  -0.6125  -0.5883  -0.5771  -0.5752  -0.5679  -0.5515
 -0.5412  -0.5326  -0.5118  -0.5070  -0.4867  -0.4733  -0.4631  -0.4455
 -0.3547  -0.3425  -0.3201  -0.2698

          Ground-State Mulliken Net Atomic Charges

     Atom                 Charge (a.u.)
  ----------------------------------------
      1 C                    -0.076431
      2 C                    -0.330769
      3 C                    -0.044453
      4 H                     0.174369
      5 C                     0.079168
      6 S                    -0.182983
      7 C                    -0.274709
      8 H                     0.114122
      9 H                     0.100247
     10 H                     0.108529
     11 C                    -0.062429
     12 C                    -0.271756
     13 C                     0.051977
     14 H                     0.188237
     15 C                    -0.223994
     16 S                     0.007763
     17 C                    -0.267662
     18 H                     0.103195
     19 H                     0.108198
     20 H                     0.107881
     21 H                     0.199551
     22 H                     0.109254
     23 H                     0.107894
     24 H                     0.174800
  ----------------------------------------
  Sum of atomic charges =     0.000000

                    Cartesian Multipole Moments
 -----------------------------------------------------------------
    Charge (ESU x 10^10)
                -0.0000
    Dipole Moment (Debye)
         X      -0.2198      Y       0.7691      Z      -0.1580
       Tot       0.8153
    Quadrupole Moments (Debye-Ang)
        XX     -86.7995     XY       8.0579     YY     -79.1061
        XZ       0.5610     YZ       3.9275     ZZ     -85.8711

 Total job time:  55.06s(wall), 1956.21s(cpu)
        *  Thank you very much for using Q-Chem.  Have a nice day.  *
