 Q-Chem 5.4, Q-Chem, Inc., Pleasanton, CA (2021)
 Q-Chem 5.4.0 for Intel X86 EM64T Linux

User input:
--------------------------------------------------------------
$molecule
0 1
C	-0.680396	-3.887800	-0.248806
C	0.621614	-3.701456	0.225147
C	1.019896	-2.345170	0.370780
H	1.285337	-4.545233	0.466300
C	0.000000	-1.450135	0.000000
S	-1.435271	-2.321334	-0.522786
C	2.378891	-1.934439	0.865597
H	3.003720	-2.819799	1.092567
H	2.313975	-1.326210	1.791940
H	2.924390	-1.325374	0.114772
C	0.000000	0.000000	0.000000
C	0.354153	0.766774	1.113020
C	0.937751	2.029404	0.820578
H	0.191350	0.414475	2.142881
C	1.042030	2.254581	-0.563588
S	0.406851	0.881228	-1.464748
C	1.384426	2.995779	1.882380
H	1.196413	2.589194	2.894974
H	0.849641	3.965707	1.808137
H	2.469756	3.216753	1.808230
H	1.443919	3.124243	-1.097114
H	-1.301772	-4.420219	0.479986
H	-0.687795	-4.419395	-1.206964
H	-0.369368	-1.450628	1.014873
$end

$rem
JOBTYPE		SP
EXCHANGE	HF
CORRELATION	pRIMP2
BASIS		cc-pvtz
METHOD		rimp2
AUX_BASIS	rimp2-cc-pvtz
SOLVENT_METHOD	PCM
PURECART	11111
SYMMETRY	false
MEM_TOTAL	110000
SCF_CONVERGENCE = 6
THRESH=10
GUI = 2
$end

$solvent
dielectric 4.90
$end
--------------------------------------------------------------

             Standard Nuclear Orientation (Angstroms)
    I     Atom           X                Y                Z
 ----------------------------------------------------------------
    1      C      -0.6803960000    -3.8878000000    -0.2488060000
    2      C       0.6216140000    -3.7014560000     0.2251470000
    3      C       1.0198960000    -2.3451700000     0.3707800000
    4      H       1.2853370000    -4.5452330000     0.4663000000
    5      C       0.0000000000    -1.4501350000     0.0000000000
    6      S      -1.4352710000    -2.3213340000    -0.5227860000
    7      C       2.3788910000    -1.9344390000     0.8655970000
    8      H       3.0037200000    -2.8197990000     1.0925670000
    9      H       2.3139750000    -1.3262100000     1.7919400000
   10      H       2.9243900000    -1.3253740000     0.1147720000
   11      C       0.0000000000     0.0000000000     0.0000000000
   12      C       0.3541530000     0.7667740000     1.1130200000
   13      C       0.9377510000     2.0294040000     0.8205780000
   14      H       0.1913500000     0.4144750000     2.1428810000
   15      C       1.0420300000     2.2545810000    -0.5635880000
   16      S       0.4068510000     0.8812280000    -1.4647480000
   17      C       1.3844260000     2.9957790000     1.8823800000
   18      H       1.1964130000     2.5891940000     2.8949740000
   19      H       0.8496410000     3.9657070000     1.8081370000
   20      H       2.4697560000     3.2167530000     1.8082300000
   21      H       1.4439190000     3.1242430000    -1.0971140000
   22      H      -1.3017720000    -4.4202190000     0.4799860000
   23      H      -0.6877950000    -4.4193950000    -1.2069640000
   24      H      -0.3693680000    -1.4506280000     1.0148730000
 ----------------------------------------------------------------

   10   -1180.7538665491      5.56e-07  Convergence criterion met
 Total energy in the final basis set =    -1180.7538665491
        RIMP2         total energy =     -1182.7619157729 a.u.

                    Orbital Energies (a.u.)
 --------------------------------------------------------------

 Alpha MOs
 -- Occupied --
-91.9800 -91.9395 -11.2769 -11.2693 -11.2623 -11.2554 -11.2519 -11.2465
-11.2402 -11.2308 -11.2303 -11.2191  -8.9801  -8.9442  -6.6610  -6.6604
 -6.6599  -6.6256  -6.6246  -6.6233  -1.1979  -1.1542  -1.0571  -1.0253
 -1.0051  -0.9614  -0.9113  -0.9018  -0.8133  -0.7594  -0.7360  -0.7048
 -0.6583  -0.6407  -0.6113  -0.5902  -0.5817  -0.5720  -0.5638  -0.5520
 -0.5409  -0.5286  -0.5180  -0.5061  -0.4896  -0.4752  -0.4602  -0.4471
 -0.3544  -0.3418  -0.3157  -0.2794

          Ground-State Mulliken Net Atomic Charges

     Atom                 Charge (a.u.)
  ----------------------------------------
      1 C                    -0.074567
      2 C                    -0.325762
      3 C                    -0.025212
      4 H                     0.177328
      5 C                     0.067098
      6 S                    -0.182564
      7 C                    -0.270390
      8 H                     0.115915
      9 H                     0.099328
     10 H                     0.112713
     11 C                    -0.054471
     12 C                    -0.271576
     13 C                     0.038006
     14 H                     0.187889
     15 C                    -0.234202
     16 S                     0.004111
     17 C                    -0.270128
     18 H                     0.102214
     19 H                     0.108910
     20 H                     0.107896
     21 H                     0.198545
     22 H                     0.109373
     23 H                     0.110099
     24 H                     0.169443
  ----------------------------------------
  Sum of atomic charges =     0.000000

                    Cartesian Multipole Moments
 -----------------------------------------------------------------
    Charge (ESU x 10^10)
                -0.0000
    Dipole Moment (Debye)
         X       2.9193      Y       0.7099      Z       3.1848
       Tot       4.3783
    Quadrupole Moments (Debye-Ang)
        XX     -89.6973     XY       1.1428     YY     -75.6620
        XZ       0.2892     YZ      -1.5360     ZZ     -86.2256

 Total job time:  60.20s(wall), 2069.00s(cpu)
        *  Thank you very much for using Q-Chem.  Have a nice day.  *
