 Q-Chem 5.4, Q-Chem, Inc., Pleasanton, CA (2021)
 Q-Chem 5.4.0 for Intel X86 EM64T Linux

User input:
--------------------------------------------------------------
$molecule
0 1
C	0.361285	-3.887800	0.627947
C	-0.331462	-3.701456	-0.572038
C	-0.542953	-2.345170	-0.939610
H	-0.684893	-4.545233	-1.183405
C	0.000000	-1.450135	0.000000
S	0.763441	-2.321334	1.323052
C	-1.265941	-1.934439	-2.192207
H	-1.598695	-2.819799	-2.767709
H	-0.620770	-1.326210	-2.860100
H	-2.166438	-1.325374	-1.967682
C	0.000000	0.000000	0.000000
C	0.285976	0.794723	1.113020
C	0.757308	2.103412	0.820578
H	0.154498	0.429575	2.142881
C	0.841565	2.336821	-0.563588
S	0.328498	0.913334	-1.464748
C	1.118059	3.105040	1.882380
H	0.966197	2.683616	2.894974
H	0.500773	4.024668	1.808137
H	2.180000	3.419766	1.808230
H	1.166129	3.238200	-1.097114
H	1.305744	-4.420219	0.469073
H	-0.248940	-4.419395	1.366694
H	0.935300	-1.450628	-0.540012
$end

$rem
JOBTYPE		SP
EXCHANGE	HF
CORRELATION	pRIMP2
BASIS		cc-pvtz
METHOD		rimp2
AUX_BASIS	rimp2-cc-pvtz
SOLVENT_METHOD	PCM
PURECART	11111
SYMMETRY	false
MEM_TOTAL	110000
SCF_CONVERGENCE = 6
THRESH=10
GUI = 2
$end

$solvent
dielectric 4.90
$end
--------------------------------------------------------------

             Standard Nuclear Orientation (Angstroms)
    I     Atom           X                Y                Z
 ----------------------------------------------------------------
    1      C       0.3612850000    -3.8878000000     0.6279470000
    2      C      -0.3314620000    -3.7014560000    -0.5720380000
    3      C      -0.5429530000    -2.3451700000    -0.9396100000
    4      H      -0.6848930000    -4.5452330000    -1.1834050000
    5      C       0.0000000000    -1.4501350000     0.0000000000
    6      S       0.7634410000    -2.3213340000     1.3230520000
    7      C      -1.2659410000    -1.9344390000    -2.1922070000
    8      H      -1.5986950000    -2.8197990000    -2.7677090000
    9      H      -0.6207700000    -1.3262100000    -2.8601000000
   10      H      -2.1664380000    -1.3253740000    -1.9676820000
   11      C       0.0000000000     0.0000000000     0.0000000000
   12      C       0.2859760000     0.7947230000     1.1130200000
   13      C       0.7573080000     2.1034120000     0.8205780000
   14      H       0.1544980000     0.4295750000     2.1428810000
   15      C       0.8415650000     2.3368210000    -0.5635880000
   16      S       0.3284980000     0.9133340000    -1.4647480000
   17      C       1.1180590000     3.1050400000     1.8823800000
   18      H       0.9661970000     2.6836160000     2.8949740000
   19      H       0.5007730000     4.0246680000     1.8081370000
   20      H       2.1800000000     3.4197660000     1.8082300000
   21      H       1.1661290000     3.2382000000    -1.0971140000
   22      H       1.3057440000    -4.4202190000     0.4690730000
   23      H      -0.2489400000    -4.4193950000     1.3666940000
   24      H       0.9353000000    -1.4506280000    -0.5400120000
 ----------------------------------------------------------------

   10   -1180.7565100600      4.92e-07  Convergence criterion met
 Total energy in the final basis set =    -1180.7565100600
        RIMP2         total energy =     -1182.7619079627 a.u.

                    Orbital Energies (a.u.)
 --------------------------------------------------------------

 Alpha MOs
 -- Occupied --
-91.9814 -91.9459 -11.2867 -11.2630 -11.2606 -11.2592 -11.2505 -11.2432
-11.2340 -11.2328 -11.2281 -11.2222  -8.9817  -8.9502  -6.6626  -6.6621
 -6.6614  -6.6316  -6.6306  -6.6293  -1.2015  -1.1532  -1.0597  -1.0273
 -1.0056  -0.9581  -0.9158  -0.9014  -0.8132  -0.7706  -0.7231  -0.7038
 -0.6567  -0.6445  -0.6116  -0.5922  -0.5788  -0.5736  -0.5691  -0.5531
 -0.5422  -0.5338  -0.5143  -0.5083  -0.4882  -0.4845  -0.4602  -0.4464
 -0.3579  -0.3430  -0.3255  -0.2680

          Ground-State Mulliken Net Atomic Charges

     Atom                 Charge (a.u.)
  ----------------------------------------
      1 C                    -0.075079
      2 C                    -0.315032
      3 C                    -0.056603
      4 H                     0.178097
      5 C                     0.119054
      6 S                    -0.181209
      7 C                    -0.293111
      8 H                     0.117485
      9 H                     0.106371
     10 H                     0.116136
     11 C                    -0.007599
     12 C                    -0.338145
     13 C                     0.060068
     14 H                     0.181116
     15 C                    -0.269772
     16 S                     0.005725
     17 C                    -0.271103
     18 H                     0.103143
     19 H                     0.108276
     20 H                     0.109037
     21 H                     0.196271
     22 H                     0.112124
     23 H                     0.111057
     24 H                     0.183694
  ----------------------------------------
  Sum of atomic charges =     0.000000

                    Cartesian Multipole Moments
 -----------------------------------------------------------------
    Charge (ESU x 10^10)
                -0.0000
    Dipole Moment (Debye)
         X       0.0279      Y      -0.1501      Z      -1.0002
       Tot       1.0118
    Quadrupole Moments (Debye-Ang)
        XX     -90.2416     XY       3.8350     YY     -74.2030
        XZ       0.7985     YZ       5.1397     ZZ     -86.0266

 Total job time:  53.27s(wall), 1877.51s(cpu)
        *  Thank you very much for using Q-Chem.  Have a nice day.  *
