 Q-Chem 5.4, Q-Chem, Inc., Pleasanton, CA (2021)
 Q-Chem 5.4.0 for Intel X86 EM64T Linux

User input:
--------------------------------------------------------------
$molecule
0 1
C	0.246754	-3.887800	0.681143
C	-0.227093	-3.701456	-0.620906
C	-0.371543	-2.345170	-1.019618
H	-0.468992	-4.545233	-1.284357
C	0.000000	-1.450135	0.000000
S	0.522097	-2.321334	1.435522
C	-0.866035	-1.934439	-2.378731
H	-1.093799	-2.819799	-3.003272
H	-0.114688	-1.326210	-2.924444
H	-1.791841	-1.325374	-2.313987
C	0.000000	0.000000	0.000000
C	0.285976	0.794723	1.113020
C	0.757308	2.103412	0.820578
H	0.154498	0.429575	2.142881
C	0.841565	2.336821	-0.563588
S	0.328498	0.913334	-1.464748
C	1.118059	3.105040	1.882380
H	0.966197	2.683616	2.894974
H	0.500773	4.024668	1.808137
H	2.180000	3.419766	1.808230
H	1.166129	3.238200	-1.097114
H	1.204454	-4.420219	0.688686
H	-0.482482	-4.419395	1.302703
H	1.014863	-1.450628	-0.369395
$end

$rem
JOBTYPE		SP
EXCHANGE	HF
CORRELATION	pRIMP2
BASIS		cc-pvtz
METHOD		rimp2
AUX_BASIS	rimp2-cc-pvtz
SOLVENT_METHOD	PCM
PURECART	11111
SYMMETRY	false
MEM_TOTAL	110000
SCF_CONVERGENCE = 6
THRESH=10
GUI = 2
$end

$solvent
dielectric 4.90
$end
--------------------------------------------------------------

             Standard Nuclear Orientation (Angstroms)
    I     Atom           X                Y                Z
 ----------------------------------------------------------------
    1      C       0.2467540000    -3.8878000000     0.6811430000
    2      C      -0.2270930000    -3.7014560000    -0.6209060000
    3      C      -0.3715430000    -2.3451700000    -1.0196180000
    4      H      -0.4689920000    -4.5452330000    -1.2843570000
    5      C       0.0000000000    -1.4501350000     0.0000000000
    6      S       0.5220970000    -2.3213340000     1.4355220000
    7      C      -0.8660350000    -1.9344390000    -2.3787310000
    8      H      -1.0937990000    -2.8197990000    -3.0032720000
    9      H      -0.1146880000    -1.3262100000    -2.9244440000
   10      H      -1.7918410000    -1.3253740000    -2.3139870000
   11      C       0.0000000000     0.0000000000     0.0000000000
   12      C       0.2859760000     0.7947230000     1.1130200000
   13      C       0.7573080000     2.1034120000     0.8205780000
   14      H       0.1544980000     0.4295750000     2.1428810000
   15      C       0.8415650000     2.3368210000    -0.5635880000
   16      S       0.3284980000     0.9133340000    -1.4647480000
   17      C       1.1180590000     3.1050400000     1.8823800000
   18      H       0.9661970000     2.6836160000     2.8949740000
   19      H       0.5007730000     4.0246680000     1.8081370000
   20      H       2.1800000000     3.4197660000     1.8082300000
   21      H       1.1661290000     3.2382000000    -1.0971140000
   22      H       1.2044540000    -4.4202190000     0.6886860000
   23      H      -0.4824820000    -4.4193950000     1.3027030000
   24      H       1.0148630000    -1.4506280000    -0.3693950000
 ----------------------------------------------------------------

   10   -1180.7563527684      4.90e-07  Convergence criterion met
 Total energy in the final basis set =    -1180.7563527684
        RIMP2         total energy =     -1182.7622185399 a.u.

                    Orbital Energies (a.u.)
 --------------------------------------------------------------

 Alpha MOs
 -- Occupied --
-91.9810 -91.9466 -11.2883 -11.2638 -11.2621 -11.2572 -11.2504 -11.2439
-11.2328 -11.2324 -11.2279 -11.2229  -8.9813  -8.9510  -6.6622  -6.6617
 -6.6609  -6.6323  -6.6313  -6.6301  -1.2022  -1.1530  -1.0601  -1.0278
 -1.0061  -0.9572  -0.9162  -0.9017  -0.8134  -0.7715  -0.7202  -0.7040
 -0.6579  -0.6468  -0.6117  -0.5922  -0.5803  -0.5727  -0.5690  -0.5533
 -0.5423  -0.5340  -0.5150  -0.5092  -0.4889  -0.4842  -0.4592  -0.4457
 -0.3588  -0.3426  -0.3267  -0.2667

          Ground-State Mulliken Net Atomic Charges

     Atom                 Charge (a.u.)
  ----------------------------------------
      1 C                    -0.074195
      2 C                    -0.314025
      3 C                    -0.059031
      4 H                     0.178717
      5 C                     0.124307
      6 S                    -0.184297
      7 C                    -0.302169
      8 H                     0.119350
      9 H                     0.107419
     10 H                     0.118840
     11 C                     0.006824
     12 C                    -0.347107
     13 C                     0.062021
     14 H                     0.178089
     15 C                    -0.277741
     16 S                     0.005741
     17 C                    -0.270727
     18 H                     0.103057
     19 H                     0.108338
     20 H                     0.109028
     21 H                     0.196185
     22 H                     0.112271
     23 H                     0.111695
     24 H                     0.187409
  ----------------------------------------
  Sum of atomic charges =     0.000000

                    Cartesian Multipole Moments
 -----------------------------------------------------------------
    Charge (ESU x 10^10)
                -0.0000
    Dipole Moment (Debye)
         X       0.4580      Y      -0.3356      Z      -1.1040
       Tot       1.2415
    Quadrupole Moments (Debye-Ang)
        XX     -90.3789     XY       3.0758     YY     -74.0701
        XZ       0.8492     YZ       5.1795     ZZ     -85.8548

 Total job time:  53.54s(wall), 1874.88s(cpu)
        *  Thank you very much for using Q-Chem.  Have a nice day.  *
