 Q-Chem 5.4, Q-Chem, Inc., Pleasanton, CA (2021)
 Q-Chem 5.4.0 for Intel X86 EM64T Linux

User input:
--------------------------------------------------------------
$molecule
0 1
C	0.126876	-3.887800	-0.713264
C	-0.113784	-3.701456	0.651267
C	-0.188043	-2.345170	1.068787
H	-0.236019	-4.545233	1.346782
C	-0.000000	-1.450135	-0.000000
S	0.265612	-2.321334	-1.504247
C	-0.439357	-1.934439	2.493059
H	-0.554378	-2.819799	3.147809
H	-1.362899	-1.326210	2.589987
H	0.394786	-1.325374	2.899892
C	0.000000	0.000000	0.000000
C	0.070542	0.841660	1.113020
C	0.187101	2.227746	0.820578
H	0.038051	0.454925	2.142881
C	0.208076	2.475009	-0.563588
S	0.080917	0.967235	-1.464748
C	0.276318	3.288613	1.882380
H	0.238704	2.842244	2.894974
H	-0.557951	4.017140	1.808137
H	1.220618	3.867466	1.808230
H	0.288286	3.429678	-1.097114
H	-0.698744	-4.420219	-1.198647
H	1.069193	-4.419395	-0.886933
H	-1.063595	-1.450628	-0.187526
$end

$rem
JOBTYPE		SP
EXCHANGE	HF
CORRELATION	pRIMP2
BASIS		cc-pvtz
METHOD		rimp2
AUX_BASIS	rimp2-cc-pvtz
SOLVENT_METHOD	PCM
PURECART	11111
SYMMETRY	false
MEM_TOTAL	110000
SCF_CONVERGENCE = 6
THRESH=10
GUI = 2
$end

$solvent
dielectric 4.90
$end
--------------------------------------------------------------

             Standard Nuclear Orientation (Angstroms)
    I     Atom           X                Y                Z
 ----------------------------------------------------------------
    1      C       0.1268760000    -3.8878000000    -0.7132640000
    2      C      -0.1137840000    -3.7014560000     0.6512670000
    3      C      -0.1880430000    -2.3451700000     1.0687870000
    4      H      -0.2360190000    -4.5452330000     1.3467820000
    5      C       0.0000000000    -1.4501350000     0.0000000000
    6      S       0.2656120000    -2.3213340000    -1.5042470000
    7      C      -0.4393570000    -1.9344390000     2.4930590000
    8      H      -0.5543780000    -2.8197990000     3.1478090000
    9      H      -1.3628990000    -1.3262100000     2.5899870000
   10      H       0.3947860000    -1.3253740000     2.8998920000
   11      C       0.0000000000     0.0000000000     0.0000000000
   12      C       0.0705420000     0.8416600000     1.1130200000
   13      C       0.1871010000     2.2277460000     0.8205780000
   14      H       0.0380510000     0.4549250000     2.1428810000
   15      C       0.2080760000     2.4750090000    -0.5635880000
   16      S       0.0809170000     0.9672350000    -1.4647480000
   17      C       0.2763180000     3.2886130000     1.8823800000
   18      H       0.2387040000     2.8422440000     2.8949740000
   19      H      -0.5579510000     4.0171400000     1.8081370000
   20      H       1.2206180000     3.8674660000     1.8082300000
   21      H       0.2882860000     3.4296780000    -1.0971140000
   22      H      -0.6987440000    -4.4202190000    -1.1986470000
   23      H       1.0691930000    -4.4193950000    -0.8869330000
   24      H      -1.0635950000    -1.4506280000    -0.1875260000
 ----------------------------------------------------------------

   10   -1180.7564678758      5.07e-07  Convergence criterion met
 Total energy in the final basis set =    -1180.7564678758
        RIMP2         total energy =     -1182.7618854465 a.u.

                    Orbital Energies (a.u.)
 --------------------------------------------------------------

 Alpha MOs
 -- Occupied --
-91.9843 -91.9469 -11.2901 -11.2666 -11.2625 -11.2542 -11.2498 -11.2452
-11.2343 -11.2281 -11.2276 -11.2240  -8.9839  -8.9516  -6.6649  -6.6644
 -6.6637  -6.6330  -6.6319  -6.6307  -1.2018  -1.1524  -1.0595  -1.0321
 -1.0013  -0.9617  -0.9169  -0.8998  -0.8176  -0.7626  -0.7302  -0.7060
 -0.6562  -0.6476  -0.6107  -0.5947  -0.5847  -0.5686  -0.5626  -0.5501
 -0.5468  -0.5350  -0.5239  -0.5000  -0.4878  -0.4827  -0.4683  -0.4450
 -0.3609  -0.3435  -0.3248  -0.2646

          Ground-State Mulliken Net Atomic Charges

     Atom                 Charge (a.u.)
  ----------------------------------------
      1 C                    -0.071204
      2 C                    -0.315399
      3 C                    -0.043801
      4 H                     0.180154
      5 C                     0.130438
      6 S                    -0.178904
      7 C                    -0.303238
      8 H                     0.123182
      9 H                     0.111175
     10 H                     0.105251
     11 C                    -0.070347
     12 C                    -0.259740
     13 C                     0.029550
     14 H                     0.192333
     15 C                    -0.279598
     16 S                     0.001062
     17 C                    -0.273196
     18 H                     0.100340
     19 H                     0.108398
     20 H                     0.108708
     21 H                     0.197558
     22 H                     0.111061
     23 H                     0.114359
     24 H                     0.181860
  ----------------------------------------
  Sum of atomic charges =     0.000000

                    Cartesian Multipole Moments
 -----------------------------------------------------------------
    Charge (ESU x 10^10)
                -0.0000
    Dipole Moment (Debye)
         X      -1.1791      Y      -0.4746      Z       3.6034
       Tot       3.8210
    Quadrupole Moments (Debye-Ang)
        XX     -91.8305     XY       2.9085     YY     -72.7764
        XZ       0.2488     YZ      -2.0763     ZZ     -85.6018

 Total job time:  54.86s(wall), 1929.20s(cpu)
        *  Thank you very much for using Q-Chem.  Have a nice day.  *
