 Q-Chem 5.4, Q-Chem, Inc., Pleasanton, CA (2021)
 Q-Chem 5.4.0 for Intel X86 EM64T Linux

User input:
--------------------------------------------------------------
$molecule
0 1
C	0.363176	-3.887800	-0.626855
C	-0.329669	-3.701456	0.573074
C	-0.542250	-2.345170	0.940016
H	-0.682412	-4.545233	1.184837
C	-0.000000	-1.450135	-0.000000
S	0.764076	-2.321334	-1.322686
C	-1.265537	-1.934439	2.192440
H	-1.597559	-2.819799	2.768365
H	-2.166534	-1.326210	1.967653
H	-0.620843	-1.325374	2.860032
C	0.000000	0.000000	0.000000
C	0.070542	0.841660	1.113020
C	0.187101	2.227746	0.820578
H	0.038051	0.454925	2.142881
C	0.208076	2.475009	-0.563588
S	0.080917	0.967235	-1.464748
C	0.276318	3.288613	1.882380
H	0.238704	2.842244	2.894974
H	-0.557951	4.017140	1.808137
H	1.220618	3.867466	1.808230
H	0.288286	3.429678	-1.097114
H	-0.246643	-4.420219	-1.365344
H	1.308062	-4.419395	-0.467758
H	-0.935314	-1.450628	-0.539988
$end

$rem
JOBTYPE		SP
EXCHANGE	HF
CORRELATION	pRIMP2
BASIS		cc-pvtz
METHOD		rimp2
AUX_BASIS	rimp2-cc-pvtz
SOLVENT_METHOD	PCM
PURECART	11111
SYMMETRY	false
MEM_TOTAL	110000
SCF_CONVERGENCE = 6
THRESH=10
GUI = 2
$end

$solvent
dielectric 4.90
$end
--------------------------------------------------------------

             Standard Nuclear Orientation (Angstroms)
    I     Atom           X                Y                Z
 ----------------------------------------------------------------
    1      C       0.3631760000    -3.8878000000    -0.6268550000
    2      C      -0.3296690000    -3.7014560000     0.5730740000
    3      C      -0.5422500000    -2.3451700000     0.9400160000
    4      H      -0.6824120000    -4.5452330000     1.1848370000
    5      C       0.0000000000    -1.4501350000     0.0000000000
    6      S       0.7640760000    -2.3213340000    -1.3226860000
    7      C      -1.2655370000    -1.9344390000     2.1924400000
    8      H      -1.5975590000    -2.8197990000     2.7683650000
    9      H      -2.1665340000    -1.3262100000     1.9676530000
   10      H      -0.6208430000    -1.3253740000     2.8600320000
   11      C       0.0000000000     0.0000000000     0.0000000000
   12      C       0.0705420000     0.8416600000     1.1130200000
   13      C       0.1871010000     2.2277460000     0.8205780000
   14      H       0.0380510000     0.4549250000     2.1428810000
   15      C       0.2080760000     2.4750090000    -0.5635880000
   16      S       0.0809170000     0.9672350000    -1.4647480000
   17      C       0.2763180000     3.2886130000     1.8823800000
   18      H       0.2387040000     2.8422440000     2.8949740000
   19      H      -0.5579510000     4.0171400000     1.8081370000
   20      H       1.2206180000     3.8674660000     1.8082300000
   21      H       0.2882860000     3.4296780000    -1.0971140000
   22      H      -0.2466430000    -4.4202190000    -1.3653440000
   23      H       1.3080620000    -4.4193950000    -0.4677580000
   24      H      -0.9353140000    -1.4506280000    -0.5399880000
 ----------------------------------------------------------------

   10   -1180.7586721374      5.08e-07  Convergence criterion met
 Total energy in the final basis set =    -1180.7586721374
        RIMP2         total energy =     -1182.7632534455 a.u.

                    Orbital Energies (a.u.)
 --------------------------------------------------------------

 Alpha MOs
 -- Occupied --
-91.9844 -91.9456 -11.2874 -11.2655 -11.2603 -11.2577 -11.2503 -11.2440
-11.2333 -11.2314 -11.2284 -11.2228  -8.9841  -8.9503  -6.6651  -6.6645
 -6.6639  -6.6316  -6.6306  -6.6293  -1.2005  -1.1530  -1.0589  -1.0305
 -1.0012  -0.9625  -0.9151  -0.9002  -0.8165  -0.7614  -0.7358  -0.7041
 -0.6549  -0.6431  -0.6108  -0.5928  -0.5823  -0.5686  -0.5652  -0.5525
 -0.5456  -0.5334  -0.5198  -0.5026  -0.4889  -0.4827  -0.4661  -0.4475
 -0.3583  -0.3429  -0.3242  -0.2676

          Ground-State Mulliken Net Atomic Charges

     Atom                 Charge (a.u.)
  ----------------------------------------
      1 C                    -0.073330
      2 C                    -0.323469
      3 C                    -0.027924
      4 H                     0.179088
      5 C                     0.119615
      6 S                    -0.176766
      7 C                    -0.290837
      8 H                     0.118418
      9 H                     0.112224
     10 H                     0.103504
     11 C                    -0.092846
     12 C                    -0.241076
     13 C                     0.020403
     14 H                     0.192523
     15 C                    -0.260417
     16 S                     0.000008
     17 C                    -0.273706
     18 H                     0.101036
     19 H                     0.108278
     20 H                     0.109031
     21 H                     0.197731
     22 H                     0.110804
     23 H                     0.114801
     24 H                     0.172907
  ----------------------------------------
  Sum of atomic charges =     0.000000

                    Cartesian Multipole Moments
 -----------------------------------------------------------------
    Charge (ESU x 10^10)
                -0.0000
    Dipole Moment (Debye)
         X      -1.8223      Y      -0.1257      Z       3.0707
       Tot       3.5730
    Quadrupole Moments (Debye-Ang)
        XX     -91.9301     XY       3.8986     YY     -72.9293
        XZ       0.0604     YZ      -1.2086     ZZ     -85.6364

 Total job time:  54.24s(wall), 1877.73s(cpu)
        *  Thank you very much for using Q-Chem.  Have a nice day.  *
