 Q-Chem 5.4, Q-Chem, Inc., Pleasanton, CA (2021)
 Q-Chem 5.4.0 for Intel X86 EM64T Linux

User input:
--------------------------------------------------------------
$molecule
0 1
C	0.555670	-3.887800	-0.464838
C	-0.505790	-3.701456	0.425760
C	-0.831053	-2.345170	0.697866
H	-1.046496	-4.545233	0.879984
C	0.000000	-1.450135	0.000000
S	1.170382	-2.321334	-0.981588
C	-1.939074	-1.934439	1.627381
H	-2.448051	-2.819799	2.055015
H	-2.708853	-1.326210	1.107991
H	-1.561590	-1.325374	2.475210
C	0.000000	0.000000	0.000000
C	-0.003081	0.844605	1.113020
C	-0.007772	2.235575	0.820578
H	-0.001743	0.456510	2.142881
C	-0.008427	2.483726	-0.563588
S	-0.003691	0.970607	-1.464748
C	-0.011355	3.300181	1.882380
H	-0.009922	2.852233	2.894974
H	-0.905944	3.953225	1.808137
H	0.878901	3.959133	1.808230
H	-0.011727	3.441752	-1.097114
H	0.235206	-4.420219	-1.367361
H	1.389159	-4.419395	0.007834
H	-0.694221	-1.450628	-0.827319
$end

$rem
JOBTYPE		SP
EXCHANGE	HF
CORRELATION	pRIMP2
BASIS		cc-pvtz
METHOD		rimp2
AUX_BASIS	rimp2-cc-pvtz
SOLVENT_METHOD	PCM
PURECART	11111
SYMMETRY	false
MEM_TOTAL	110000
SCF_CONVERGENCE = 6
THRESH=10
GUI = 2
$end

$solvent
dielectric 4.90
$end
--------------------------------------------------------------

             Standard Nuclear Orientation (Angstroms)
    I     Atom           X                Y                Z
 ----------------------------------------------------------------
    1      C       0.5556700000    -3.8878000000    -0.4648380000
    2      C      -0.5057900000    -3.7014560000     0.4257600000
    3      C      -0.8310530000    -2.3451700000     0.6978660000
    4      H      -1.0464960000    -4.5452330000     0.8799840000
    5      C       0.0000000000    -1.4501350000     0.0000000000
    6      S       1.1703820000    -2.3213340000    -0.9815880000
    7      C      -1.9390740000    -1.9344390000     1.6273810000
    8      H      -2.4480510000    -2.8197990000     2.0550150000
    9      H      -2.7088530000    -1.3262100000     1.1079910000
   10      H      -1.5615900000    -1.3253740000     2.4752100000
   11      C       0.0000000000     0.0000000000     0.0000000000
   12      C      -0.0030810000     0.8446050000     1.1130200000
   13      C      -0.0077720000     2.2355750000     0.8205780000
   14      H      -0.0017430000     0.4565100000     2.1428810000
   15      C      -0.0084270000     2.4837260000    -0.5635880000
   16      S      -0.0036910000     0.9706070000    -1.4647480000
   17      C      -0.0113550000     3.3001810000     1.8823800000
   18      H      -0.0099220000     2.8522330000     2.8949740000
   19      H      -0.9059440000     3.9532250000     1.8081370000
   20      H       0.8789010000     3.9591330000     1.8082300000
   21      H      -0.0117270000     3.4417520000    -1.0971140000
   22      H       0.2352060000    -4.4202190000    -1.3673610000
   23      H       1.3891590000    -4.4193950000     0.0078340000
   24      H      -0.6942210000    -1.4506280000    -0.8273190000
 ----------------------------------------------------------------

   10   -1180.7611862862      5.09e-07  Convergence criterion met
 Total energy in the final basis set =    -1180.7611862862
        RIMP2         total energy =     -1182.7649307404 a.u.

                    Orbital Energies (a.u.)
 --------------------------------------------------------------

 Alpha MOs
 -- Occupied --
-91.9849 -91.9433 -11.2837 -11.2642 -11.2618 -11.2579 -11.2506 -11.2425
-11.2352 -11.2321 -11.2288 -11.2210  -8.9846  -8.9480  -6.6655  -6.6650
 -6.6644  -6.6293  -6.6283  -6.6270  -1.1988  -1.1534  -1.0581  -1.0283
 -1.0015  -0.9630  -0.9134  -0.9005  -0.8146  -0.7600  -0.7407  -0.7030
 -0.6540  -0.6382  -0.6111  -0.5900  -0.5795  -0.5694  -0.5666  -0.5542
 -0.5442  -0.5314  -0.5160  -0.5048  -0.4904  -0.4824  -0.4634  -0.4497
 -0.3565  -0.3424  -0.3206  -0.2728

          Ground-State Mulliken Net Atomic Charges

     Atom                 Charge (a.u.)
  ----------------------------------------
      1 C                    -0.074879
      2 C                    -0.327422
      3 C                    -0.023124
      4 H                     0.178282
      5 C                     0.111537
      6 S                    -0.177769
      7 C                    -0.272154
      8 H                     0.115710
      9 H                     0.106696
     10 H                     0.102962
     11 C                    -0.107004
     12 C                    -0.235218
     13 C                     0.016717
     14 H                     0.191785
     15 C                    -0.247716
     16 S                     0.008049
     17 C                    -0.273241
     18 H                     0.101974
     19 H                     0.107910
     20 H                     0.109048
     21 H                     0.198283
     22 H                     0.110590
     23 H                     0.114361
     24 H                     0.164625
  ----------------------------------------
  Sum of atomic charges =     0.000000

                    Cartesian Multipole Moments
 -----------------------------------------------------------------
    Charge (ESU x 10^10)
                -0.0000
    Dipole Moment (Debye)
         X      -2.3817      Y       0.3060      Z       2.4067
       Tot       3.3998
    Quadrupole Moments (Debye-Ang)
        XX     -92.0432     XY       3.6794     YY     -73.2724
        XZ      -0.1531     YZ      -0.1436     ZZ     -85.6905

 Total job time:  55.26s(wall), 1801.37s(cpu)
        *  Thank you very much for using Q-Chem.  Have a nice day.  *
