 Q-Chem 5.4, Q-Chem, Inc., Pleasanton, CA (2021)
 Q-Chem 5.4.0 for Intel X86 EM64T Linux

User input:
--------------------------------------------------------------
$molecule
0 1
C	-0.466510	-3.887800	0.554267
C	0.424173	-3.701456	-0.507121
C	0.697244	-2.345170	-0.831575
H	0.877789	-4.545233	-1.048337
C	0.000000	-1.450135	0.000000
S	-0.982150	-2.321334	1.169911
C	1.627024	-1.934439	-1.939374
H	2.054010	-2.819799	-2.448894
H	2.475299	-1.326210	-1.561545
H	1.108051	-1.325374	-2.708773
C	0.000000	0.000000	0.000000
C	0.729909	0.424971	1.113020
C	1.932179	1.124518	0.820578
H	0.394478	0.229765	2.142881
C	2.146756	1.249161	-0.563588
S	0.838724	0.488500	-1.464748
C	2.852364	1.659924	1.882380
H	2.465145	1.434710	2.894974
H	2.970621	2.761183	1.808137
H	3.868160	1.218416	1.808230
H	2.974781	1.731032	-1.097114
H	0.005807	-4.420219	1.387431
H	-1.369415	-4.419395	0.233510
H	0.827337	-1.450628	0.694200
$end

$rem
JOBTYPE		SP
EXCHANGE	HF
CORRELATION	pRIMP2
BASIS		cc-pvtz
METHOD		rimp2
AUX_BASIS	rimp2-cc-pvtz
SOLVENT_METHOD	PCM
PURECART	11111
SYMMETRY	false
MEM_TOTAL	110000
SCF_CONVERGENCE = 6
THRESH=10
GUI = 2
$end

$solvent
dielectric 4.90
$end
--------------------------------------------------------------

             Standard Nuclear Orientation (Angstroms)
    I     Atom           X                Y                Z
 ----------------------------------------------------------------
    1      C      -0.4665100000    -3.8878000000     0.5542670000
    2      C       0.4241730000    -3.7014560000    -0.5071210000
    3      C       0.6972440000    -2.3451700000    -0.8315750000
    4      H       0.8777890000    -4.5452330000    -1.0483370000
    5      C       0.0000000000    -1.4501350000     0.0000000000
    6      S      -0.9821500000    -2.3213340000     1.1699110000
    7      C       1.6270240000    -1.9344390000    -1.9393740000
    8      H       2.0540100000    -2.8197990000    -2.4488940000
    9      H       2.4752990000    -1.3262100000    -1.5615450000
   10      H       1.1080510000    -1.3253740000    -2.7087730000
   11      C       0.0000000000     0.0000000000     0.0000000000
   12      C       0.7299090000     0.4249710000     1.1130200000
   13      C       1.9321790000     1.1245180000     0.8205780000
   14      H       0.3944780000     0.2297650000     2.1428810000
   15      C       2.1467560000     1.2491610000    -0.5635880000
   16      S       0.8387240000     0.4885000000    -1.4647480000
   17      C       2.8523640000     1.6599240000     1.8823800000
   18      H       2.4651450000     1.4347100000     2.8949740000
   19      H       2.9706210000     2.7611830000     1.8081370000
   20      H       3.8681600000     1.2184160000     1.8082300000
   21      H       2.9747810000     1.7310320000    -1.0971140000
   22      H       0.0058070000    -4.4202190000     1.3874310000
   23      H      -1.3694150000    -4.4193950000     0.2335100000
   24      H       0.8273370000    -1.4506280000     0.6942000000
 ----------------------------------------------------------------

   11   -1180.6401662438      7.71e-07  Convergence criterion met
 Total energy in the final basis set =    -1180.6401662438
        RIMP2         total energy =     -1182.6775499886 a.u.

                    Orbital Energies (a.u.)
 --------------------------------------------------------------

 Alpha MOs
 -- Occupied --
-91.9805 -91.9347 -11.2821 -11.2606 -11.2574 -11.2528 -11.2500 -11.2497
-11.2379 -11.2307 -11.2251 -11.2135  -8.9824  -8.9397  -6.6627  -6.6622
 -6.6619  -6.6211  -6.6201  -6.6188  -1.2107  -1.1521  -1.0600  -1.0303
 -1.0081  -0.9551  -0.9105  -0.9070  -0.8019  -0.7710  -0.7346  -0.7007
 -0.6640  -0.6392  -0.6107  -0.5901  -0.5821  -0.5784  -0.5677  -0.5595
 -0.5424  -0.5272  -0.5200  -0.5172  -0.4928  -0.4540  -0.4415  -0.4366
 -0.3510  -0.3347  -0.3211  -0.2560

          Ground-State Mulliken Net Atomic Charges

     Atom                 Charge (a.u.)
  ----------------------------------------
      1 C                    -0.067692
      2 C                    -0.343629
      3 C                    -0.044234
      4 H                     0.176711
      5 C                     0.071350
      6 S                    -0.217032
      7 C                    -0.258601
      8 H                     0.103944
      9 H                     0.103781
     10 H                     0.111632
     11 C                    -0.145949
     12 C                    -0.148669
     13 C                    -0.013974
     14 H                     0.193082
     15 C                    -0.222367
     16 S                     0.058217
     17 C                    -0.266696
     18 H                     0.104061
     19 H                     0.107720
     20 H                     0.103540
     21 H                     0.203157
     22 H                     0.107063
     23 H                     0.109713
     24 H                     0.174872
  ----------------------------------------
  Sum of atomic charges =     0.000000

                    Cartesian Multipole Moments
 -----------------------------------------------------------------
    Charge (ESU x 10^10)
                -0.0000
    Dipole Moment (Debye)
         X       4.7570      Y       0.4975      Z      -0.3469
       Tot       4.7955
    Quadrupole Moments (Debye-Ang)
        XX     -83.2823     XY       1.9096     YY     -84.8049
        XZ       0.4849     YZ       2.4445     ZZ     -84.2489

 Total job time:  97.06s(wall), 4249.31s(cpu)
        *  Thank you very much for using Q-Chem.  Have a nice day.  *
