 Q-Chem 5.4, Q-Chem, Inc., Pleasanton, CA (2021)
 Q-Chem 5.4.0 for Intel X86 EM64T Linux

User input:
--------------------------------------------------------------
$molecule
0 1
C	0.361285	-3.887800	0.627947
C	-0.331462	-3.701456	-0.572038
C	-0.542953	-2.345170	-0.939610
H	-0.684893	-4.545233	-1.183405
C	0.000000	-1.450135	0.000000
S	0.763441	-2.321334	1.323052
C	-1.265941	-1.934439	-2.192207
H	-1.598695	-2.819799	-2.767709
H	-0.620770	-1.326210	-2.860100
H	-2.166438	-1.325374	-1.967682
C	0.000000	0.000000	0.000000
C	0.354153	0.766774	1.113020
C	0.937751	2.029404	0.820578
H	0.191350	0.414475	2.142881
C	1.042030	2.254581	-0.563588
S	0.406851	0.881228	-1.464748
C	1.384426	2.995779	1.882380
H	1.196413	2.589194	2.894974
H	0.849641	3.965707	1.808137
H	2.469756	3.216753	1.808230
H	1.443919	3.124243	-1.097114
H	1.305744	-4.420219	0.469073
H	-0.248940	-4.419395	1.366694
H	0.935300	-1.450628	-0.540012
$end

$rem
JOBTYPE		SP
EXCHANGE	HF
CORRELATION	pRIMP2
BASIS		cc-pvtz
METHOD		rimp2
AUX_BASIS	rimp2-cc-pvtz
SOLVENT_METHOD	PCM
PURECART	11111
SYMMETRY	false
MEM_TOTAL	110000
SCF_CONVERGENCE = 6
THRESH=10
GUI = 2
$end

$solvent
dielectric 4.90
$end
--------------------------------------------------------------

             Standard Nuclear Orientation (Angstroms)
    I     Atom           X                Y                Z
 ----------------------------------------------------------------
    1      C       0.3612850000    -3.8878000000     0.6279470000
    2      C      -0.3314620000    -3.7014560000    -0.5720380000
    3      C      -0.5429530000    -2.3451700000    -0.9396100000
    4      H      -0.6848930000    -4.5452330000    -1.1834050000
    5      C       0.0000000000    -1.4501350000     0.0000000000
    6      S       0.7634410000    -2.3213340000     1.3230520000
    7      C      -1.2659410000    -1.9344390000    -2.1922070000
    8      H      -1.5986950000    -2.8197990000    -2.7677090000
    9      H      -0.6207700000    -1.3262100000    -2.8601000000
   10      H      -2.1664380000    -1.3253740000    -1.9676820000
   11      C       0.0000000000     0.0000000000     0.0000000000
   12      C       0.3541530000     0.7667740000     1.1130200000
   13      C       0.9377510000     2.0294040000     0.8205780000
   14      H       0.1913500000     0.4144750000     2.1428810000
   15      C       1.0420300000     2.2545810000    -0.5635880000
   16      S       0.4068510000     0.8812280000    -1.4647480000
   17      C       1.3844260000     2.9957790000     1.8823800000
   18      H       1.1964130000     2.5891940000     2.8949740000
   19      H       0.8496410000     3.9657070000     1.8081370000
   20      H       2.4697560000     3.2167530000     1.8082300000
   21      H       1.4439190000     3.1242430000    -1.0971140000
   22      H       1.3057440000    -4.4202190000     0.4690730000
   23      H      -0.2489400000    -4.4193950000     1.3666940000
   24      H       0.9353000000    -1.4506280000    -0.5400120000
 ----------------------------------------------------------------

   10   -1180.7523529265      4.93e-07  Convergence criterion met
 Total energy in the final basis set =    -1180.7523529265
        RIMP2         total energy =     -1182.7588632920 a.u.

                    Orbital Energies (a.u.)
 --------------------------------------------------------------

 Alpha MOs
 -- Occupied --
-91.9807 -91.9455 -11.2854 -11.2623 -11.2605 -11.2600 -11.2507 -11.2428
-11.2352 -11.2327 -11.2282 -11.2218  -8.9811  -8.9498  -6.6621  -6.6615
 -6.6608  -6.6312  -6.6302  -6.6289  -1.2018  -1.1533  -1.0596  -1.0272
 -1.0055  -0.9581  -0.9156  -0.9014  -0.8126  -0.7707  -0.7233  -0.7035
 -0.6565  -0.6443  -0.6117  -0.5919  -0.5787  -0.5739  -0.5691  -0.5530
 -0.5422  -0.5339  -0.5143  -0.5087  -0.4882  -0.4824  -0.4602  -0.4459
 -0.3577  -0.3431  -0.3257  -0.2673

          Ground-State Mulliken Net Atomic Charges

     Atom                 Charge (a.u.)
  ----------------------------------------
      1 C                    -0.075655
      2 C                    -0.315096
      3 C                    -0.056129
      4 H                     0.177724
      5 C                     0.112319
      6 S                    -0.182146
      7 C                    -0.292930
      8 H                     0.117473
      9 H                     0.106682
     10 H                     0.115555
     11 C                    -0.000675
     12 C                    -0.341032
     13 C                     0.061819
     14 H                     0.181541
     15 C                    -0.267133
     16 S                     0.004489
     17 C                    -0.270324
     18 H                     0.103225
     19 H                     0.108398
     20 H                     0.108973
     21 H                     0.196321
     22 H                     0.111841
     23 H                     0.110751
     24 H                     0.184007
  ----------------------------------------
  Sum of atomic charges =     0.000000

                    Cartesian Multipole Moments
 -----------------------------------------------------------------
    Charge (ESU x 10^10)
                -0.0000
    Dipole Moment (Debye)
         X       0.1812      Y      -0.1108      Z      -0.9619
       Tot       0.9850
    Quadrupole Moments (Debye-Ang)
        XX     -89.5791     XY       4.5247     YY     -74.9186
        XZ       0.8818     YZ       5.1129     ZZ     -86.0263

 Total job time:  57.05s(wall), 1879.49s(cpu)
        *  Thank you very much for using Q-Chem.  Have a nice day.  *
