 Q-Chem 5.4, Q-Chem, Inc., Pleasanton, CA (2021)
 Q-Chem 5.4.0 for Intel X86 EM64T Linux

User input:
--------------------------------------------------------------
$molecule
0 1
C	-0.361285	-3.887800	-0.627947
C	0.331462	-3.701456	0.572038
C	0.542953	-2.345170	0.939610
H	0.684893	-4.545233	1.183405
C	0.000000	-1.450135	0.000000
S	-0.763441	-2.321334	-1.323052
C	1.265941	-1.934439	2.192207
H	1.598695	-2.819799	2.767709
H	0.620770	-1.326210	2.860100
H	2.166438	-1.325374	1.967682
C	0.000000	0.000000	0.000000
C	0.645024	0.545262	1.113020
C	1.707554	1.442954	0.820578
H	0.348587	0.294774	2.142881
C	1.897227	1.602964	-0.563588
S	0.741155	0.626722	-1.464748
C	2.520787	2.130014	1.882380
H	2.178559	1.840981	2.894974
H	2.446016	3.235078	1.808137
H	3.597818	1.871604	1.808230
H	2.628997	2.221299	-1.097114
H	-1.305744	-4.420219	-0.469073
H	0.248940	-4.419395	-1.366694
H	-0.935300	-1.450628	0.540012
$end

$rem
JOBTYPE		SP
EXCHANGE	HF
CORRELATION	pRIMP2
BASIS		cc-pvtz
METHOD		rimp2
AUX_BASIS	rimp2-cc-pvtz
SOLVENT_METHOD	PCM
PURECART	11111
SYMMETRY	false
MEM_TOTAL	110000
SCF_CONVERGENCE = 6
THRESH=10
GUI = 2
$end

$solvent
dielectric 4.90
$end
--------------------------------------------------------------

             Standard Nuclear Orientation (Angstroms)
    I     Atom           X                Y                Z
 ----------------------------------------------------------------
    1      C      -0.3612850000    -3.8878000000    -0.6279470000
    2      C       0.3314620000    -3.7014560000     0.5720380000
    3      C       0.5429530000    -2.3451700000     0.9396100000
    4      H       0.6848930000    -4.5452330000     1.1834050000
    5      C       0.0000000000    -1.4501350000     0.0000000000
    6      S      -0.7634410000    -2.3213340000    -1.3230520000
    7      C       1.2659410000    -1.9344390000     2.1922070000
    8      H       1.5986950000    -2.8197990000     2.7677090000
    9      H       0.6207700000    -1.3262100000     2.8601000000
   10      H       2.1664380000    -1.3253740000     1.9676820000
   11      C       0.0000000000     0.0000000000     0.0000000000
   12      C       0.6450240000     0.5452620000     1.1130200000
   13      C       1.7075540000     1.4429540000     0.8205780000
   14      H       0.3485870000     0.2947740000     2.1428810000
   15      C       1.8972270000     1.6029640000    -0.5635880000
   16      S       0.7411550000     0.6267220000    -1.4647480000
   17      C       2.5207870000     2.1300140000     1.8823800000
   18      H       2.1785590000     1.8409810000     2.8949740000
   19      H       2.4460160000     3.2350780000     1.8081370000
   20      H       3.5978180000     1.8716040000     1.8082300000
   21      H       2.6289970000     2.2212990000    -1.0971140000
   22      H      -1.3057440000    -4.4202190000    -0.4690730000
   23      H       0.2489400000    -4.4193950000    -1.3666940000
   24      H      -0.9353000000    -1.4506280000     0.5400120000
 ----------------------------------------------------------------

   11   -1180.6975031098      4.42e-07  Convergence criterion met
 Total energy in the final basis set =    -1180.6975031098
        RIMP2         total energy =     -1182.7202863185 a.u.

                    Orbital Energies (a.u.)
 --------------------------------------------------------------

 Alpha MOs
 -- Occupied --
-91.9764 -91.9393 -11.2776 -11.2617 -11.2616 -11.2521 -11.2517 -11.2506
-11.2398 -11.2317 -11.2308 -11.2159  -8.9772  -8.9439  -6.6580  -6.6572
 -6.6568  -6.6253  -6.6243  -6.6231  -1.2016  -1.1537  -1.0575  -1.0307
 -0.9997  -0.9640  -0.9136  -0.9020  -0.8109  -0.7596  -0.7333  -0.7126
 -0.6500  -0.6433  -0.6132  -0.5947  -0.5923  -0.5703  -0.5593  -0.5510
 -0.5402  -0.5333  -0.5243  -0.5079  -0.4797  -0.4672  -0.4528  -0.4419
 -0.3554  -0.3392  -0.3230  -0.2626

          Ground-State Mulliken Net Atomic Charges

     Atom                 Charge (a.u.)
  ----------------------------------------
      1 C                    -0.070528
      2 C                    -0.338052
      3 C                    -0.056786
      4 H                     0.177147
      5 C                     0.096934
      6 S                    -0.192852
      7 C                    -0.286046
      8 H                     0.120687
      9 H                     0.093799
     10 H                     0.114925
     11 C                    -0.109848
     12 C                    -0.222819
     13 C                     0.013170
     14 H                     0.198235
     15 C                    -0.204892
     16 S                     0.018370
     17 C                    -0.275678
     18 H                     0.103193
     19 H                     0.115250
     20 H                     0.107476
     21 H                     0.198679
     22 H                     0.107783
     23 H                     0.110109
     24 H                     0.181745
  ----------------------------------------
  Sum of atomic charges =     0.000000

                    Cartesian Multipole Moments
 -----------------------------------------------------------------
    Charge (ESU x 10^10)
                -0.0000
    Dipole Moment (Debye)
         X       2.5029      Y       0.5397      Z       4.3001
       Tot       5.0047
    Quadrupole Moments (Debye-Ang)
        XX     -84.6709     XY       5.1665     YY     -80.8376
        XZ       1.0537     YZ      -3.0398     ZZ     -85.8630

 Total job time:  62.10s(wall), 2134.84s(cpu)
        *  Thank you very much for using Q-Chem.  Have a nice day.  *
