 Q-Chem 5.4, Q-Chem, Inc., Pleasanton, CA (2021)
 Q-Chem 5.4.0 for Intel X86 EM64T Linux

User input:
--------------------------------------------------------------
$molecule
0 1
C	0.724460	-3.887800	0.001092
C	-0.661131	-3.701456	0.001036
C	-1.085203	-2.345170	0.000406
H	-1.367305	-4.545233	0.001433
C	0.000000	-1.450135	0.000000
S	1.527517	-2.321334	0.000367
C	-2.531478	-1.934439	0.000233
H	-3.196254	-2.819799	0.000656
H	-2.787305	-1.326210	-0.892447
H	-2.787282	-1.325374	0.892350
C	0.000000	0.000000	0.000000
C	-0.003081	0.844605	1.113020
C	-0.007772	2.235575	0.820578
H	-0.001743	0.456510	2.142881
C	-0.008427	2.483726	-0.563588
S	-0.003691	0.970607	-1.464748
C	-0.011355	3.300181	1.882380
H	-0.009922	2.852233	2.894974
H	-0.905944	3.953225	1.808137
H	0.878901	3.959133	1.808230
H	-0.011727	3.441752	-1.097114
H	1.059101	-4.420219	-0.896272
H	1.059122	-4.419395	0.898936
H	-0.000014	-1.450628	-1.080000
$end

$rem
JOBTYPE		SP
EXCHANGE	HF
CORRELATION	pRIMP2
BASIS		cc-pvtz
METHOD		rimp2
AUX_BASIS	rimp2-cc-pvtz
SOLVENT_METHOD	PCM
PURECART	11111
SYMMETRY	false
MEM_TOTAL	110000
SCF_CONVERGENCE = 6
THRESH=10
GUI = 2
$end

$solvent
dielectric 4.90
$end
--------------------------------------------------------------

             Standard Nuclear Orientation (Angstroms)
    I     Atom           X                Y                Z
 ----------------------------------------------------------------
    1      C       0.7244600000    -3.8878000000     0.0010920000
    2      C      -0.6611310000    -3.7014560000     0.0010360000
    3      C      -1.0852030000    -2.3451700000     0.0004060000
    4      H      -1.3673050000    -4.5452330000     0.0014330000
    5      C       0.0000000000    -1.4501350000     0.0000000000
    6      S       1.5275170000    -2.3213340000     0.0003670000
    7      C      -2.5314780000    -1.9344390000     0.0002330000
    8      H      -3.1962540000    -2.8197990000     0.0006560000
    9      H      -2.7873050000    -1.3262100000    -0.8924470000
   10      H      -2.7872820000    -1.3253740000     0.8923500000
   11      C       0.0000000000     0.0000000000     0.0000000000
   12      C      -0.0030810000     0.8446050000     1.1130200000
   13      C      -0.0077720000     2.2355750000     0.8205780000
   14      H      -0.0017430000     0.4565100000     2.1428810000
   15      C      -0.0084270000     2.4837260000    -0.5635880000
   16      S      -0.0036910000     0.9706070000    -1.4647480000
   17      C      -0.0113550000     3.3001810000     1.8823800000
   18      H      -0.0099220000     2.8522330000     2.8949740000
   19      H      -0.9059440000     3.9532250000     1.8081370000
   20      H       0.8789010000     3.9591330000     1.8082300000
   21      H      -0.0117270000     3.4417520000    -1.0971140000
   22      H       1.0591010000    -4.4202190000    -0.8962720000
   23      H       1.0591220000    -4.4193950000     0.8989360000
   24      H      -0.0000140000    -1.4506280000    -1.0800000000
 ----------------------------------------------------------------

   10   -1180.7613098215      5.01e-07  Convergence criterion met
 Total energy in the final basis set =    -1180.7613098215
        RIMP2         total energy =     -1182.7650025021 a.u.

                    Orbital Energies (a.u.)
 --------------------------------------------------------------

 Alpha MOs
 -- Occupied --
-91.9872 -91.9416 -11.2790 -11.2658 -11.2623 -11.2556 -11.2511 -11.2410
-11.2380 -11.2311 -11.2289 -11.2187  -8.9867  -8.9462  -6.6676  -6.6671
 -6.6665  -6.6276  -6.6265  -6.6253  -1.1970  -1.1538  -1.0574  -1.0256
 -1.0030  -0.9626  -0.9130  -0.9005  -0.8123  -0.7622  -0.7403  -0.7036
 -0.6535  -0.6336  -0.6113  -0.5875  -0.5765  -0.5723  -0.5690  -0.5533
 -0.5421  -0.5291  -0.5126  -0.5049  -0.4921  -0.4826  -0.4635  -0.4488
 -0.3562  -0.3410  -0.3125  -0.2825

          Ground-State Mulliken Net Atomic Charges

     Atom                 Charge (a.u.)
  ----------------------------------------
      1 C                    -0.077134
      2 C                    -0.331315
      3 C                    -0.022427
      4 H                     0.177082
      5 C                     0.110195
      6 S                    -0.177496
      7 C                    -0.265925
      8 H                     0.112960
      9 H                     0.101893
     10 H                     0.105651
     11 C                    -0.121171
     12 C                    -0.215569
     13 C                     0.016894
     14 H                     0.184978
     15 C                    -0.244538
     16 S                     0.016632
     17 C                    -0.272235
     18 H                     0.103109
     19 H                     0.107492
     20 H                     0.108398
     21 H                     0.199384
     22 H                     0.110601
     23 H                     0.112945
     24 H                     0.159596
  ----------------------------------------
  Sum of atomic charges =     0.000000

                    Cartesian Multipole Moments
 -----------------------------------------------------------------
    Charge (ESU x 10^10)
                -0.0000
    Dipole Moment (Debye)
         X      -2.4323      Y       0.7667      Z       0.7338
       Tot       2.6538
    Quadrupole Moments (Debye-Ang)
        XX     -91.7775     XY       3.7026     YY     -73.7087
        XZ      -0.2984     YZ       2.4552     ZZ     -85.9103

 Total job time:  57.47s(wall), 1953.62s(cpu)
        *  Thank you very much for using Q-Chem.  Have a nice day.  *
