 Q-Chem 5.4, Q-Chem, Inc., Pleasanton, CA (2021)
 Q-Chem 5.4.0 for Intel X86 EM64T Linux

User input:
--------------------------------------------------------------
$molecule
0 1
C	-0.554267	-3.887800	-0.466510
C	0.507121	-3.701456	0.424173
C	0.831575	-2.345170	0.697244
H	1.048337	-4.545233	0.877789
C	0.000000	-1.450135	0.000000
S	-1.169911	-2.321334	-0.982150
C	1.939374	-1.934439	1.627024
H	2.448894	-2.819799	2.054010
H	1.561545	-1.326210	2.475299
H	2.708773	-1.325374	1.108051
C	0.000000	0.000000	0.000000
C	0.285976	0.794723	1.113020
C	0.757308	2.103412	0.820578
H	0.154498	0.429575	2.142881
C	0.841565	2.336821	-0.563588
S	0.328498	0.913334	-1.464748
C	1.118059	3.105040	1.882380
H	0.966197	2.683616	2.894974
H	0.500773	4.024668	1.808137
H	2.180000	3.419766	1.808230
H	1.166129	3.238200	-1.097114
H	-1.387431	-4.420219	0.005807
H	-0.233510	-4.419395	-1.369415
H	-0.694200	-1.450628	0.827337
$end

$rem
JOBTYPE		SP
EXCHANGE	HF
CORRELATION	pRIMP2
BASIS		cc-pvtz
METHOD		rimp2
AUX_BASIS	rimp2-cc-pvtz
SOLVENT_METHOD	PCM
PURECART	11111
SYMMETRY	false
MEM_TOTAL	110000
SCF_CONVERGENCE = 6
THRESH=10
GUI = 2
$end

$solvent
dielectric 4.90
$end
--------------------------------------------------------------

             Standard Nuclear Orientation (Angstroms)
    I     Atom           X                Y                Z
 ----------------------------------------------------------------
    1      C      -0.5542670000    -3.8878000000    -0.4665100000
    2      C       0.5071210000    -3.7014560000     0.4241730000
    3      C       0.8315750000    -2.3451700000     0.6972440000
    4      H       1.0483370000    -4.5452330000     0.8777890000
    5      C       0.0000000000    -1.4501350000     0.0000000000
    6      S      -1.1699110000    -2.3213340000    -0.9821500000
    7      C       1.9393740000    -1.9344390000     1.6270240000
    8      H       2.4488940000    -2.8197990000     2.0540100000
    9      H       1.5615450000    -1.3262100000     2.4752990000
   10      H       2.7087730000    -1.3253740000     1.1080510000
   11      C       0.0000000000     0.0000000000     0.0000000000
   12      C       0.2859760000     0.7947230000     1.1130200000
   13      C       0.7573080000     2.1034120000     0.8205780000
   14      H       0.1544980000     0.4295750000     2.1428810000
   15      C       0.8415650000     2.3368210000    -0.5635880000
   16      S       0.3284980000     0.9133340000    -1.4647480000
   17      C       1.1180590000     3.1050400000     1.8823800000
   18      H       0.9661970000     2.6836160000     2.8949740000
   19      H       0.5007730000     4.0246680000     1.8081370000
   20      H       2.1800000000     3.4197660000     1.8082300000
   21      H       1.1661290000     3.2382000000    -1.0971140000
   22      H      -1.3874310000    -4.4202190000     0.0058070000
   23      H      -0.2335100000    -4.4193950000    -1.3694150000
   24      H      -0.6942000000    -1.4506280000     0.8273370000
 ----------------------------------------------------------------

   10   -1180.7549257937      5.31e-07  Convergence criterion met
 Total energy in the final basis set =    -1180.7549257937
        RIMP2         total energy =     -1182.7627855638 a.u.

                    Orbital Energies (a.u.)
 --------------------------------------------------------------

 Alpha MOs
 -- Occupied --
-91.9808 -91.9424 -11.2810 -11.2642 -11.2636 -11.2572 -11.2515 -11.2418
-11.2412 -11.2314 -11.2297 -11.2201  -8.9808  -8.9470  -6.6617  -6.6611
 -6.6605  -6.6284  -6.6274  -6.6261  -1.1986  -1.1536  -1.0576  -1.0273
 -1.0035  -0.9617  -0.9125  -0.9012  -0.8149  -0.7600  -0.7317  -0.7068
 -0.6577  -0.6432  -0.6113  -0.5908  -0.5848  -0.5711  -0.5604  -0.5538
 -0.5411  -0.5309  -0.5184  -0.5066  -0.4859  -0.4785  -0.4620  -0.4472
 -0.3558  -0.3418  -0.3198  -0.2735

          Ground-State Mulliken Net Atomic Charges

     Atom                 Charge (a.u.)
  ----------------------------------------
      1 C                    -0.073125
      2 C                    -0.322531
      3 C                    -0.048494
      4 H                     0.178318
      5 C                     0.094538
      6 S                    -0.177981
      7 C                    -0.274192
      8 H                     0.118151
      9 H                     0.096586
     10 H                     0.114197
     11 C                    -0.056196
     12 C                    -0.280730
     13 C                     0.034948
     14 H                     0.190978
     15 C                    -0.245067
     16 S                     0.008442
     17 C                    -0.271684
     18 H                     0.101632
     19 H                     0.108978
     20 H                     0.108280
     21 H                     0.197311
     22 H                     0.110499
     23 H                     0.110628
     24 H                     0.176515
  ----------------------------------------
  Sum of atomic charges =     0.000000

                    Cartesian Multipole Moments
 -----------------------------------------------------------------
    Charge (ESU x 10^10)
                -0.0000
    Dipole Moment (Debye)
         X       1.9671      Y       0.3659      Z       3.7390
       Tot       4.2408
    Quadrupole Moments (Debye-Ang)
        XX     -90.1988     XY       1.6079     YY     -74.7967
        XZ       0.4701     YZ      -2.2961     ZZ     -86.3243

 Total job time:  55.00s(wall), 1959.33s(cpu)
        *  Thank you very much for using Q-Chem.  Have a nice day.  *
