 Q-Chem 5.4, Q-Chem, Inc., Pleasanton, CA (2021)
 Q-Chem 5.4.0 for Intel X86 EM64T Linux

User input:
--------------------------------------------------------------
$molecule
0 1
C	-0.248806	-3.887800	0.680396
C	0.225147	-3.701456	-0.621614
C	0.370780	-2.345170	-1.019896
H	0.466300	-4.545233	-1.285337
C	0.000000	-1.450135	0.000000
S	-0.522786	-2.321334	1.435271
C	0.865597	-1.934439	-2.378891
H	1.092567	-2.819799	-3.003720
H	1.791940	-1.326210	-2.313975
H	0.114772	-1.325374	-2.924390
C	0.000000	0.000000	0.000000
C	0.645024	0.545262	1.113020
C	1.707554	1.442954	0.820578
H	0.348587	0.294774	2.142881
C	1.897227	1.602964	-0.563588
S	0.741155	0.626722	-1.464748
C	2.520787	2.130014	1.882380
H	2.178559	1.840981	2.894974
H	2.446016	3.235078	1.808137
H	3.597818	1.871604	1.808230
H	2.628997	2.221299	-1.097114
H	0.479986	-4.420219	1.301772
H	-1.206964	-4.419395	0.687795
H	1.014873	-1.450628	0.369368
$end

$rem
JOBTYPE		SP
EXCHANGE	HF
CORRELATION	pRIMP2
BASIS		cc-pvtz
METHOD		rimp2
AUX_BASIS	rimp2-cc-pvtz
SOLVENT_METHOD	PCM
PURECART	11111
SYMMETRY	false
MEM_TOTAL	110000
SCF_CONVERGENCE = 6
THRESH=10
GUI = 2
$end

$solvent
dielectric 4.90
$end
--------------------------------------------------------------

             Standard Nuclear Orientation (Angstroms)
    I     Atom           X                Y                Z
 ----------------------------------------------------------------
    1      C      -0.2488060000    -3.8878000000     0.6803960000
    2      C       0.2251470000    -3.7014560000    -0.6216140000
    3      C       0.3707800000    -2.3451700000    -1.0198960000
    4      H       0.4663000000    -4.5452330000    -1.2853370000
    5      C       0.0000000000    -1.4501350000     0.0000000000
    6      S      -0.5227860000    -2.3213340000     1.4352710000
    7      C       0.8655970000    -1.9344390000    -2.3788910000
    8      H       1.0925670000    -2.8197990000    -3.0037200000
    9      H       1.7919400000    -1.3262100000    -2.3139750000
   10      H       0.1147720000    -1.3253740000    -2.9243900000
   11      C       0.0000000000     0.0000000000     0.0000000000
   12      C       0.6450240000     0.5452620000     1.1130200000
   13      C       1.7075540000     1.4429540000     0.8205780000
   14      H       0.3485870000     0.2947740000     2.1428810000
   15      C       1.8972270000     1.6029640000    -0.5635880000
   16      S       0.7411550000     0.6267220000    -1.4647480000
   17      C       2.5207870000     2.1300140000     1.8823800000
   18      H       2.1785590000     1.8409810000     2.8949740000
   19      H       2.4460160000     3.2350780000     1.8081370000
   20      H       3.5978180000     1.8716040000     1.8082300000
   21      H       2.6289970000     2.2212990000    -1.0971140000
   22      H       0.4799860000    -4.4202190000     1.3017720000
   23      H      -1.2069640000    -4.4193950000     0.6877950000
   24      H       1.0148730000    -1.4506280000     0.3693680000
 ----------------------------------------------------------------

   11   -1180.6877966671      5.26e-07  Convergence criterion met
 Total energy in the final basis set =    -1180.6877966671
        RIMP2         total energy =     -1182.7137050700 a.u.

                    Orbital Energies (a.u.)
 --------------------------------------------------------------

 Alpha MOs
 -- Occupied --
-91.9788 -91.9404 -11.2717 -11.2711 -11.2614 -11.2564 -11.2516 -11.2408
-11.2396 -11.2292 -11.2274 -11.2165  -8.9802  -8.9452  -6.6607  -6.6601
 -6.6597  -6.6266  -6.6255  -6.6243  -1.2066  -1.1524  -1.0599  -1.0281
 -1.0069  -0.9547  -0.9127  -0.9052  -0.8053  -0.7722  -0.7236  -0.7015
 -0.6631  -0.6436  -0.6117  -0.5861  -0.5838  -0.5748  -0.5693  -0.5544
 -0.5409  -0.5314  -0.5184  -0.5172  -0.4915  -0.4623  -0.4479  -0.4403
 -0.3544  -0.3359  -0.3256  -0.2597

          Ground-State Mulliken Net Atomic Charges

     Atom                 Charge (a.u.)
  ----------------------------------------
      1 C                    -0.071494
      2 C                    -0.329598
      3 C                    -0.043651
      4 H                     0.177844
      5 C                     0.068731
      6 S                    -0.204886
      7 C                    -0.274735
      8 H                     0.108734
      9 H                     0.109916
     10 H                     0.109201
     11 C                    -0.077453
     12 C                    -0.204848
     13 C                     0.004837
     14 H                     0.184570
     15 C                    -0.239998
     16 S                     0.033809
     17 C                    -0.267565
     18 H                     0.103641
     19 H                     0.107806
     20 H                     0.105000
     21 H                     0.199634
     22 H                     0.109040
     23 H                     0.111821
     24 H                     0.179645
  ----------------------------------------
  Sum of atomic charges =     0.000000

                    Cartesian Multipole Moments
 -----------------------------------------------------------------
    Charge (ESU x 10^10)
                -0.0000
    Dipole Moment (Debye)
         X       3.3545      Y       0.1511      Z      -0.8576
       Tot       3.4657
    Quadrupole Moments (Debye-Ang)
        XX     -85.4047     XY       2.9644     YY     -81.3480
        XZ       0.6647     YZ       3.3626     ZZ     -84.9104

 Total job time:  81.34s(wall), 3449.58s(cpu)
        *  Thank you very much for using Q-Chem.  Have a nice day.  *
