 Q-Chem 5.4, Q-Chem, Inc., Pleasanton, CA (2021)
 Q-Chem 5.4.0 for Intel X86 EM64T Linux

User input:
--------------------------------------------------------------
$molecule
0 1
C	0.554267	-3.887800	0.466510
C	-0.507121	-3.701456	-0.424173
C	-0.831575	-2.345170	-0.697244
H	-1.048337	-4.545233	-0.877789
C	-0.000000	-1.450135	-0.000000
S	1.169911	-2.321334	0.982150
C	-1.939374	-1.934439	-1.627024
H	-2.448894	-2.819799	-2.054010
H	-1.561545	-1.326210	-2.475299
H	-2.708773	-1.325374	-1.108051
C	0.000000	0.000000	0.000000
C	0.070542	0.841660	1.113020
C	0.187101	2.227746	0.820578
H	0.038051	0.454925	2.142881
C	0.208076	2.475009	-0.563588
S	0.080917	0.967235	-1.464748
C	0.276318	3.288613	1.882380
H	0.238704	2.842244	2.894974
H	-0.557951	4.017140	1.808137
H	1.220618	3.867466	1.808230
H	0.288286	3.429678	-1.097114
H	1.387431	-4.420219	-0.005807
H	0.233510	-4.419395	1.369415
H	0.694200	-1.450628	-0.827337
$end

$rem
JOBTYPE		SP
EXCHANGE	HF
CORRELATION	pRIMP2
BASIS		cc-pvtz
METHOD		rimp2
AUX_BASIS	rimp2-cc-pvtz
SOLVENT_METHOD	PCM
PURECART	11111
SYMMETRY	false
MEM_TOTAL	110000
SCF_CONVERGENCE = 6
THRESH=10
GUI = 2
$end

$solvent
dielectric 4.90
$end
--------------------------------------------------------------

             Standard Nuclear Orientation (Angstroms)
    I     Atom           X                Y                Z
 ----------------------------------------------------------------
    1      C       0.5542670000    -3.8878000000     0.4665100000
    2      C      -0.5071210000    -3.7014560000    -0.4241730000
    3      C      -0.8315750000    -2.3451700000    -0.6972440000
    4      H      -1.0483370000    -4.5452330000    -0.8777890000
    5      C       0.0000000000    -1.4501350000     0.0000000000
    6      S       1.1699110000    -2.3213340000     0.9821500000
    7      C      -1.9393740000    -1.9344390000    -1.6270240000
    8      H      -2.4488940000    -2.8197990000    -2.0540100000
    9      H      -1.5615450000    -1.3262100000    -2.4752990000
   10      H      -2.7087730000    -1.3253740000    -1.1080510000
   11      C       0.0000000000     0.0000000000     0.0000000000
   12      C       0.0705420000     0.8416600000     1.1130200000
   13      C       0.1871010000     2.2277460000     0.8205780000
   14      H       0.0380510000     0.4549250000     2.1428810000
   15      C       0.2080760000     2.4750090000    -0.5635880000
   16      S       0.0809170000     0.9672350000    -1.4647480000
   17      C       0.2763180000     3.2886130000     1.8823800000
   18      H       0.2387040000     2.8422440000     2.8949740000
   19      H      -0.5579510000     4.0171400000     1.8081370000
   20      H       1.2206180000     3.8674660000     1.8082300000
   21      H       0.2882860000     3.4296780000    -1.0971140000
   22      H       1.3874310000    -4.4202190000    -0.0058070000
   23      H       0.2335100000    -4.4193950000     1.3694150000
   24      H       0.6942000000    -1.4506280000    -0.8273370000
 ----------------------------------------------------------------

   10   -1180.7615586665      4.92e-07  Convergence criterion met
 Total energy in the final basis set =    -1180.7615586665
        RIMP2         total energy =     -1182.7653153844 a.u.

                    Orbital Energies (a.u.)
 --------------------------------------------------------------

 Alpha MOs
 -- Occupied --
-91.9846 -91.9446 -11.2842 -11.2631 -11.2615 -11.2582 -11.2506 -11.2424
-11.2351 -11.2318 -11.2283 -11.2206  -8.9844  -8.9490  -6.6654  -6.6649
 -6.6642  -6.6303  -6.6293  -6.6280  -1.1990  -1.1534  -1.0586  -1.0259
 -1.0051  -0.9599  -0.9146  -0.9008  -0.8131  -0.7681  -0.7292  -0.7040
 -0.6550  -0.6390  -0.6110  -0.5911  -0.5765  -0.5738  -0.5692  -0.5530
 -0.5418  -0.5319  -0.5133  -0.5059  -0.4896  -0.4855  -0.4615  -0.4481
 -0.3565  -0.3427  -0.3207  -0.2734

          Ground-State Mulliken Net Atomic Charges

     Atom                 Charge (a.u.)
  ----------------------------------------
      1 C                    -0.076048
      2 C                    -0.322915
      3 C                    -0.053815
      4 H                     0.177967
      5 C                     0.136690
      6 S                    -0.175734
      7 C                    -0.275466
      8 H                     0.115433
      9 H                     0.101622
     10 H                     0.111933
     11 C                    -0.096463
     12 C                    -0.255187
     13 C                     0.029116
     14 H                     0.186454
     15 C                    -0.252237
     16 S                     0.008939
     17 C                    -0.272635
     18 H                     0.103134
     19 H                     0.107996
     20 H                     0.108453
     21 H                     0.197847
     22 H                     0.111969
     23 H                     0.111412
     24 H                     0.171537
  ----------------------------------------
  Sum of atomic charges =     0.000000

                    Cartesian Multipole Moments
 -----------------------------------------------------------------
    Charge (ESU x 10^10)
                -0.0000
    Dipole Moment (Debye)
         X      -1.2034      Y       0.2803      Z      -0.6780
       Tot       1.4094
    Quadrupole Moments (Debye-Ang)
        XX     -91.3083     XY       2.7062     YY     -73.4490
        XZ       0.2346     YZ       4.6366     ZZ     -86.1935

 Total job time:  53.28s(wall), 1867.50s(cpu)
        *  Thank you very much for using Q-Chem.  Have a nice day.  *
