 Q-Chem 5.4, Q-Chem, Inc., Pleasanton, CA (2021)
 Q-Chem 5.4.0 for Intel X86 EM64T Linux

User input:
--------------------------------------------------------------
$molecule
0 1
C	0.361285	-3.887800	0.627947
C	-0.331462	-3.701456	-0.572038
C	-0.542953	-2.345170	-0.939610
H	-0.684893	-4.545233	-1.183405
C	0.000000	-1.450135	0.000000
S	0.763441	-2.321334	1.323052
C	-1.265941	-1.934439	-2.192207
H	-1.598695	-2.819799	-2.767709
H	-0.620770	-1.326210	-2.860100
H	-2.166438	-1.325374	-1.967682
C	0.000000	0.000000	0.000000
C	0.143630	0.832309	1.113020
C	0.380550	2.202961	0.820578
H	0.077556	0.449877	2.142881
C	0.422995	2.447456	-0.563588
S	0.164909	0.956502	-1.464748
C	0.561888	3.252016	1.882380
H	0.485513	2.810624	2.894974
H	-0.205711	4.050482	1.808137
H	1.553045	3.746365	1.808230
H	0.586105	3.391501	-1.097114
H	1.305744	-4.420219	0.469073
H	-0.248940	-4.419395	1.366694
H	0.935300	-1.450628	-0.540012
$end

$rem
JOBTYPE		SP
EXCHANGE	HF
CORRELATION	pRIMP2
BASIS		cc-pvtz
METHOD		rimp2
AUX_BASIS	rimp2-cc-pvtz
SOLVENT_METHOD	PCM
PURECART	11111
SYMMETRY	false
MEM_TOTAL	110000
SCF_CONVERGENCE = 6
THRESH=10
GUI = 2
$end

$solvent
dielectric 4.90
$end
--------------------------------------------------------------

             Standard Nuclear Orientation (Angstroms)
    I     Atom           X                Y                Z
 ----------------------------------------------------------------
    1      C       0.3612850000    -3.8878000000     0.6279470000
    2      C      -0.3314620000    -3.7014560000    -0.5720380000
    3      C      -0.5429530000    -2.3451700000    -0.9396100000
    4      H      -0.6848930000    -4.5452330000    -1.1834050000
    5      C       0.0000000000    -1.4501350000     0.0000000000
    6      S       0.7634410000    -2.3213340000     1.3230520000
    7      C      -1.2659410000    -1.9344390000    -2.1922070000
    8      H      -1.5986950000    -2.8197990000    -2.7677090000
    9      H      -0.6207700000    -1.3262100000    -2.8601000000
   10      H      -2.1664380000    -1.3253740000    -1.9676820000
   11      C       0.0000000000     0.0000000000     0.0000000000
   12      C       0.1436300000     0.8323090000     1.1130200000
   13      C       0.3805500000     2.2029610000     0.8205780000
   14      H       0.0775560000     0.4498770000     2.1428810000
   15      C       0.4229950000     2.4474560000    -0.5635880000
   16      S       0.1649090000     0.9565020000    -1.4647480000
   17      C       0.5618880000     3.2520160000     1.8823800000
   18      H       0.4855130000     2.8106240000     2.8949740000
   19      H      -0.2057110000     4.0504820000     1.8081370000
   20      H       1.5530450000     3.7463650000     1.8082300000
   21      H       0.5861050000     3.3915010000    -1.0971140000
   22      H       1.3057440000    -4.4202190000     0.4690730000
   23      H      -0.2489400000    -4.4193950000     1.3666940000
   24      H       0.9353000000    -1.4506280000    -0.5400120000
 ----------------------------------------------------------------

   10   -1180.7611358996      4.94e-07  Convergence criterion met
 Total energy in the final basis set =    -1180.7611358996
        RIMP2         total energy =     -1182.7653579200 a.u.

                    Orbital Energies (a.u.)
 --------------------------------------------------------------

 Alpha MOs
 -- Occupied --
-91.9824 -91.9464 -11.2882 -11.2641 -11.2612 -11.2575 -11.2502 -11.2438
-11.2328 -11.2324 -11.2279 -11.2226  -8.9825  -8.9507  -6.6634  -6.6629
 -6.6622  -6.6321  -6.6311  -6.6298  -1.2011  -1.1530  -1.0597  -1.0273
 -1.0059  -0.9581  -0.9159  -0.9013  -0.8139  -0.7706  -0.7228  -0.7042
 -0.6567  -0.6446  -0.6113  -0.5927  -0.5790  -0.5730  -0.5690  -0.5532
 -0.5421  -0.5334  -0.5144  -0.5076  -0.4882  -0.4872  -0.4600  -0.4470
 -0.3582  -0.3426  -0.3250  -0.2687

          Ground-State Mulliken Net Atomic Charges

     Atom                 Charge (a.u.)
  ----------------------------------------
      1 C                    -0.074609
      2 C                    -0.316082
      3 C                    -0.060630
      4 H                     0.178782
      5 C                     0.140897
      6 S                    -0.179636
      7 C                    -0.293190
      8 H                     0.117479
      9 H                     0.105480
     10 H                     0.117347
     11 C                    -0.038970
     12 C                    -0.312379
     13 C                     0.048021
     14 H                     0.181482
     15 C                    -0.269529
     16 S                     0.005754
     17 C                    -0.272498
     18 H                     0.103025
     19 H                     0.108117
     20 H                     0.108897
     21 H                     0.196611
     22 H                     0.112637
     23 H                     0.111690
     24 H                     0.181305
  ----------------------------------------
  Sum of atomic charges =     0.000000

                    Cartesian Multipole Moments
 -----------------------------------------------------------------
    Charge (ESU x 10^10)
                -0.0000
    Dipole Moment (Debye)
         X      -0.2518      Y      -0.1846      Z      -1.0612
       Tot       1.1062
    Quadrupole Moments (Debye-Ang)
        XX     -91.1567     XY       2.2330     YY     -73.2690
        XZ       0.6111     YZ       5.1596     ZZ     -86.0189

 Total job time:  53.30s(wall), 1861.66s(cpu)
        *  Thank you very much for using Q-Chem.  Have a nice day.  *
