 Q-Chem 5.4, Q-Chem, Inc., Pleasanton, CA (2021)
 Q-Chem 5.4.0 for Intel X86 EM64T Linux

User input:
--------------------------------------------------------------
$molecule
0 1
C	0.713644	-3.887800	-0.124726
C	-0.650907	-3.701456	0.115824
C	-1.068646	-2.345170	0.188844
H	-1.346284	-4.545233	0.238841
C	-0.000000	-1.450135	-0.000000
S	1.504375	-2.321334	-0.264890
C	-2.492978	-1.934439	0.439816
H	-3.147582	-2.819799	0.555669
H	-2.899931	-1.326210	-0.394879
H	-2.589982	-1.325374	1.362799
C	0.000000	0.000000	0.000000
C	0.070542	0.841660	1.113020
C	0.187101	2.227746	0.820578
H	0.038051	0.454925	2.142881
C	0.208076	2.475009	-0.563588
S	0.080917	0.967235	-1.464748
C	0.276318	3.288613	1.882380
H	0.238704	2.842244	2.894974
H	-0.557951	4.017140	1.808137
H	1.220618	3.867466	1.808230
H	0.288286	3.429678	-1.097114
H	0.887375	-4.420219	-1.066566
H	1.199130	-4.419395	0.701364
H	-0.187554	-1.450628	-1.063590
$end

$rem
JOBTYPE		SP
EXCHANGE	HF
CORRELATION	pRIMP2
BASIS		cc-pvtz
METHOD		rimp2
AUX_BASIS	rimp2-cc-pvtz
SOLVENT_METHOD	PCM
PURECART	11111
SYMMETRY	false
MEM_TOTAL	110000
SCF_CONVERGENCE = 6
THRESH=10
GUI = 2
$end

$solvent
dielectric 4.90
$end
--------------------------------------------------------------

             Standard Nuclear Orientation (Angstroms)
    I     Atom           X                Y                Z
 ----------------------------------------------------------------
    1      C       0.7136440000    -3.8878000000    -0.1247260000
    2      C      -0.6509070000    -3.7014560000     0.1158240000
    3      C      -1.0686460000    -2.3451700000     0.1888440000
    4      H      -1.3462840000    -4.5452330000     0.2388410000
    5      C       0.0000000000    -1.4501350000     0.0000000000
    6      S       1.5043750000    -2.3213340000    -0.2648900000
    7      C      -2.4929780000    -1.9344390000     0.4398160000
    8      H      -3.1475820000    -2.8197990000     0.5556690000
    9      H      -2.8999310000    -1.3262100000    -0.3948790000
   10      H      -2.5899820000    -1.3253740000     1.3627990000
   11      C       0.0000000000     0.0000000000     0.0000000000
   12      C       0.0705420000     0.8416600000     1.1130200000
   13      C       0.1871010000     2.2277460000     0.8205780000
   14      H       0.0380510000     0.4549250000     2.1428810000
   15      C       0.2080760000     2.4750090000    -0.5635880000
   16      S       0.0809170000     0.9672350000    -1.4647480000
   17      C       0.2763180000     3.2886130000     1.8823800000
   18      H       0.2387040000     2.8422440000     2.8949740000
   19      H      -0.5579510000     4.0171400000     1.8081370000
   20      H       1.2206180000     3.8674660000     1.8082300000
   21      H       0.2882860000     3.4296780000    -1.0971140000
   22      H       0.8873750000    -4.4202190000    -1.0665660000
   23      H       1.1991300000    -4.4193950000     0.7013640000
   24      H      -0.1875540000    -1.4506280000    -1.0635900000
 ----------------------------------------------------------------

   10   -1180.7609650694      5.06e-07  Convergence criterion met
 Total energy in the final basis set =    -1180.7609650694
        RIMP2         total energy =     -1182.7646713814 a.u.

                    Orbital Energies (a.u.)
 --------------------------------------------------------------

 Alpha MOs
 -- Occupied --
-91.9869 -91.9416 -11.2790 -11.2657 -11.2624 -11.2557 -11.2510 -11.2411
-11.2379 -11.2313 -11.2289 -11.2188  -8.9864  -8.9463  -6.6673  -6.6668
 -6.6662  -6.6276  -6.6266  -6.6253  -1.1971  -1.1538  -1.0573  -1.0262
 -1.0024  -0.9628  -0.9128  -0.9006  -0.8128  -0.7608  -0.7418  -0.7032
 -0.6535  -0.6338  -0.6113  -0.5875  -0.5773  -0.5715  -0.5684  -0.5536
 -0.5423  -0.5293  -0.5121  -0.5053  -0.4922  -0.4826  -0.4634  -0.4493
 -0.3565  -0.3406  -0.3132  -0.2815

          Ground-State Mulliken Net Atomic Charges

     Atom                 Charge (a.u.)
  ----------------------------------------
      1 C                    -0.076186
      2 C                    -0.330194
      3 C                    -0.023504
      4 H                     0.177187
      5 C                     0.110014
      6 S                    -0.177168
      7 C                    -0.266339
      8 H                     0.112990
      9 H                     0.102774
     10 H                     0.104427
     11 C                    -0.121275
     12 C                    -0.215000
     13 C                     0.015980
     14 H                     0.185431
     15 C                    -0.243199
     16 S                     0.016029
     17 C                    -0.272321
     18 H                     0.102888
     19 H                     0.107442
     20 H                     0.108496
     21 H                     0.199211
     22 H                     0.110471
     23 H                     0.113254
     24 H                     0.158591
  ----------------------------------------
  Sum of atomic charges =     0.000000

                    Cartesian Multipole Moments
 -----------------------------------------------------------------
    Charge (ESU x 10^10)
                -0.0000
    Dipole Moment (Debye)
         X      -2.3583      Y       0.7371      Z       1.1647
       Tot       2.7316
    Quadrupole Moments (Debye-Ang)
        XX     -91.7873     XY       4.8417     YY     -73.7330
        XZ      -0.2031     YZ       1.7661     ZZ     -85.8149

 Total job time:  55.27s(wall), 1878.25s(cpu)
        *  Thank you very much for using Q-Chem.  Have a nice day.  *
