 Q-Chem 5.4, Q-Chem, Inc., Pleasanton, CA (2021)
 Q-Chem 5.4.0 for Intel X86 EM64T Linux

User input:
--------------------------------------------------------------
$molecule
0 1
C	0.466510	-3.887800	-0.554267
C	-0.424173	-3.701456	0.507121
C	-0.697244	-2.345170	0.831575
H	-0.877789	-4.545233	1.048337
C	-0.000000	-1.450135	-0.000000
S	0.982150	-2.321334	-1.169911
C	-1.627024	-1.934439	1.939374
H	-2.054010	-2.819799	2.448894
H	-2.475299	-1.326210	1.561545
H	-1.108051	-1.325374	2.708773
C	0.000000	0.000000	0.000000
C	0.540541	0.648986	1.113020
C	1.431046	1.717546	0.820578
H	0.292104	0.350827	2.142881
C	1.590053	1.908061	-0.563588
S	0.621066	0.745901	-1.464748
C	2.112618	2.535384	1.882380
H	1.825779	2.191315	2.894974
H	1.847090	3.610676	1.808137
H	3.218159	2.467925	1.808230
H	2.203332	2.644073	-1.097114
H	-0.005807	-4.420219	-1.387431
H	1.369415	-4.419395	-0.233510
H	-0.827337	-1.450628	-0.694200
$end

$rem
JOBTYPE		SP
EXCHANGE	HF
CORRELATION	pRIMP2
BASIS		cc-pvtz
METHOD		rimp2
AUX_BASIS	rimp2-cc-pvtz
SOLVENT_METHOD	PCM
PURECART	11111
SYMMETRY	false
MEM_TOTAL	110000
SCF_CONVERGENCE = 6
THRESH=10
GUI = 2
$end

$solvent
dielectric 4.90
$end
--------------------------------------------------------------

             Standard Nuclear Orientation (Angstroms)
    I     Atom           X                Y                Z
 ----------------------------------------------------------------
    1      C       0.4665100000    -3.8878000000    -0.5542670000
    2      C      -0.4241730000    -3.7014560000     0.5071210000
    3      C      -0.6972440000    -2.3451700000     0.8315750000
    4      H      -0.8777890000    -4.5452330000     1.0483370000
    5      C       0.0000000000    -1.4501350000     0.0000000000
    6      S       0.9821500000    -2.3213340000    -1.1699110000
    7      C      -1.6270240000    -1.9344390000     1.9393740000
    8      H      -2.0540100000    -2.8197990000     2.4488940000
    9      H      -2.4752990000    -1.3262100000     1.5615450000
   10      H      -1.1080510000    -1.3253740000     2.7087730000
   11      C       0.0000000000     0.0000000000     0.0000000000
   12      C       0.5405410000     0.6489860000     1.1130200000
   13      C       1.4310460000     1.7175460000     0.8205780000
   14      H       0.2921040000     0.3508270000     2.1428810000
   15      C       1.5900530000     1.9080610000    -0.5635880000
   16      S       0.6210660000     0.7459010000    -1.4647480000
   17      C       2.1126180000     2.5353840000     1.8823800000
   18      H       1.8257790000     2.1913150000     2.8949740000
   19      H       1.8470900000     3.6106760000     1.8081370000
   20      H       3.2181590000     2.4679250000     1.8082300000
   21      H       2.2033320000     2.6440730000    -1.0971140000
   22      H      -0.0058070000    -4.4202190000    -1.3874310000
   23      H       1.3694150000    -4.4193950000    -0.2335100000
   24      H      -0.8273370000    -1.4506280000    -0.6942000000
 ----------------------------------------------------------------

   10   -1180.7230251414      6.59e-07  Convergence criterion met
 Total energy in the final basis set =    -1180.7230251414
        RIMP2         total energy =     -1182.7366233348 a.u.

                    Orbital Energies (a.u.)
 --------------------------------------------------------------

 Alpha MOs
 -- Occupied --
-91.9835 -91.9404 -11.2721 -11.2693 -11.2611 -11.2515 -11.2515 -11.2438
-11.2384 -11.2318 -11.2293 -11.2162  -8.9836  -8.9450  -6.6645  -6.6639
 -6.6634  -6.6263  -6.6253  -6.6240  -1.1987  -1.1537  -1.0564  -1.0288
 -0.9990  -0.9647  -0.9109  -0.9012  -0.8133  -0.7566  -0.7412  -0.7042
 -0.6515  -0.6348  -0.6113  -0.5901  -0.5826  -0.5684  -0.5665  -0.5521
 -0.5431  -0.5323  -0.5143  -0.5061  -0.4876  -0.4735  -0.4638  -0.4437
 -0.3536  -0.3416  -0.3227  -0.2634

          Ground-State Mulliken Net Atomic Charges

     Atom                 Charge (a.u.)
  ----------------------------------------
      1 C                    -0.080455
      2 C                    -0.329883
      3 C                    -0.048032
      4 H                     0.175116
      5 C                     0.072441
      6 S                    -0.173125
      7 C                    -0.282223
      8 H                     0.115770
      9 H                     0.106776
     10 H                     0.102540
     11 C                    -0.110959
     12 C                    -0.180966
     13 C                     0.005533
     14 H                     0.194331
     15 C                    -0.209058
     16 S                     0.004014
     17 C                    -0.270582
     18 H                     0.101149
     19 H                     0.107830
     20 H                     0.107450
     21 H                     0.200249
     22 H                     0.107195
     23 H                     0.110946
     24 H                     0.173941
  ----------------------------------------
  Sum of atomic charges =     0.000000

                    Cartesian Multipole Moments
 -----------------------------------------------------------------
    Charge (ESU x 10^10)
                -0.0000
    Dipole Moment (Debye)
         X      -0.6455      Y       0.7531      Z       2.7905
       Tot       2.9616
    Quadrupole Moments (Debye-Ang)
        XX     -87.3475     XY       9.0745     YY     -78.8971
        XZ       0.4743     YZ      -1.1351     ZZ     -85.2829

 Total job time:  55.15s(wall), 1911.50s(cpu)
        *  Thank you very much for using Q-Chem.  Have a nice day.  *
