 Q-Chem 5.4, Q-Chem, Inc., Pleasanton, CA (2021)
 Q-Chem 5.4.0 for Intel X86 EM64T Linux

User input:
--------------------------------------------------------------
$molecule
0 1
C	0.554267	-3.887800	0.466510
C	-0.507121	-3.701456	-0.424173
C	-0.831575	-2.345170	-0.697244
H	-1.048337	-4.545233	-0.877789
C	-0.000000	-1.450135	-0.000000
S	1.169911	-2.321334	0.982150
C	-1.939374	-1.934439	-1.627024
H	-2.448894	-2.819799	-2.054010
H	-1.561545	-1.326210	-2.475299
H	-2.708773	-1.325374	-1.108051
C	0.000000	0.000000	0.000000
C	0.540541	0.648986	1.113020
C	1.431046	1.717546	0.820578
H	0.292104	0.350827	2.142881
C	1.590053	1.908061	-0.563588
S	0.621066	0.745901	-1.464748
C	2.112618	2.535384	1.882380
H	1.825779	2.191315	2.894974
H	1.847090	3.610676	1.808137
H	3.218159	2.467925	1.808230
H	2.203332	2.644073	-1.097114
H	1.387431	-4.420219	-0.005807
H	0.233510	-4.419395	1.369415
H	0.694200	-1.450628	-0.827337
$end

$rem
JOBTYPE		SP
EXCHANGE	HF
CORRELATION	pRIMP2
BASIS		cc-pvtz
METHOD		rimp2
AUX_BASIS	rimp2-cc-pvtz
SOLVENT_METHOD	PCM
PURECART	11111
SYMMETRY	false
MEM_TOTAL	110000
SCF_CONVERGENCE = 6
THRESH=10
GUI = 2
$end

$solvent
dielectric 4.90
$end
--------------------------------------------------------------

             Standard Nuclear Orientation (Angstroms)
    I     Atom           X                Y                Z
 ----------------------------------------------------------------
    1      C       0.5542670000    -3.8878000000     0.4665100000
    2      C      -0.5071210000    -3.7014560000    -0.4241730000
    3      C      -0.8315750000    -2.3451700000    -0.6972440000
    4      H      -1.0483370000    -4.5452330000    -0.8777890000
    5      C       0.0000000000    -1.4501350000     0.0000000000
    6      S       1.1699110000    -2.3213340000     0.9821500000
    7      C      -1.9393740000    -1.9344390000    -1.6270240000
    8      H      -2.4488940000    -2.8197990000    -2.0540100000
    9      H      -1.5615450000    -1.3262100000    -2.4752990000
   10      H      -2.7087730000    -1.3253740000    -1.1080510000
   11      C       0.0000000000     0.0000000000     0.0000000000
   12      C       0.5405410000     0.6489860000     1.1130200000
   13      C       1.4310460000     1.7175460000     0.8205780000
   14      H       0.2921040000     0.3508270000     2.1428810000
   15      C       1.5900530000     1.9080610000    -0.5635880000
   16      S       0.6210660000     0.7459010000    -1.4647480000
   17      C       2.1126180000     2.5353840000     1.8823800000
   18      H       1.8257790000     2.1913150000     2.8949740000
   19      H       1.8470900000     3.6106760000     1.8081370000
   20      H       3.2181590000     2.4679250000     1.8082300000
   21      H       2.2033320000     2.6440730000    -1.0971140000
   22      H       1.3874310000    -4.4202190000    -0.0058070000
   23      H       0.2335100000    -4.4193950000     1.3694150000
   24      H       0.6942000000    -1.4506280000    -0.8273370000
 ----------------------------------------------------------------

   10   -1180.7294488156      5.86e-07  Convergence criterion met
 Total energy in the final basis set =    -1180.7294488156
        RIMP2         total energy =     -1182.7406364897 a.u.

                    Orbital Energies (a.u.)
 --------------------------------------------------------------

 Alpha MOs
 -- Occupied --
-91.9797 -91.9416 -11.2738 -11.2711 -11.2578 -11.2527 -11.2516 -11.2450
-11.2394 -11.2313 -11.2291 -11.2166  -8.9806  -8.9460  -6.6615  -6.6608
 -6.6602  -6.6274  -6.6264  -6.6251  -1.2014  -1.1536  -1.0586  -1.0254
 -1.0039  -0.9600  -0.9138  -0.9006  -0.8094  -0.7684  -0.7312  -0.7030
 -0.6529  -0.6369  -0.6124  -0.5893  -0.5769  -0.5758  -0.5685  -0.5518
 -0.5414  -0.5334  -0.5131  -0.5076  -0.4868  -0.4737  -0.4625  -0.4449
 -0.3543  -0.3442  -0.3228  -0.2669

          Ground-State Mulliken Net Atomic Charges

     Atom                 Charge (a.u.)
  ----------------------------------------
      1 C                    -0.077583
      2 C                    -0.325798
      3 C                    -0.050903
      4 H                     0.174970
      5 C                     0.089129
      6 S                    -0.183817
      7 C                    -0.277936
      8 H                     0.115123
      9 H                     0.101825
     10 H                     0.109184
     11 C                    -0.048764
     12 C                    -0.286790
     13 C                     0.051630
     14 H                     0.189298
     15 C                    -0.229402
     16 S                     0.004372
     17 C                    -0.267794
     18 H                     0.103266
     19 H                     0.108498
     20 H                     0.108185
     21 H                     0.198629
     22 H                     0.109635
     23 H                     0.107883
     24 H                     0.177158
  ----------------------------------------
  Sum of atomic charges =     0.000000

                    Cartesian Multipole Moments
 -----------------------------------------------------------------
    Charge (ESU x 10^10)
                -0.0000
    Dipole Moment (Debye)
         X       0.0638      Y       0.5560      Z      -0.4239
       Tot       0.7021
    Quadrupole Moments (Debye-Ang)
        XX     -86.7408     XY       7.4398     YY     -78.7590
        XZ       0.7256     YZ       4.4181     ZZ     -85.9853

 Total job time:  54.03s(wall), 1893.14s(cpu)
        *  Thank you very much for using Q-Chem.  Have a nice day.  *
