 Q-Chem 5.4, Q-Chem, Inc., Pleasanton, CA (2021)
 Q-Chem 5.4.0 for Intel X86 EM64T Linux

User input:
--------------------------------------------------------------
$molecule
0 1
C	0.681143	-3.887800	-0.246754
C	-0.620906	-3.701456	0.227093
C	-1.019618	-2.345170	0.371543
H	-1.284357	-4.545233	0.468992
C	0.000000	-1.450135	0.000000
S	1.435522	-2.321334	-0.522097
C	-2.378731	-1.934439	0.866035
H	-3.003272	-2.819799	1.093799
H	-2.924444	-1.326210	0.114688
H	-2.313987	-1.325374	1.791841
C	0.000000	0.000000	0.000000
C	0.645024	0.545262	1.113020
C	1.707554	1.442954	0.820578
H	0.348587	0.294774	2.142881
C	1.897227	1.602964	-0.563588
S	0.741155	0.626722	-1.464748
C	2.520787	2.130014	1.882380
H	2.178559	1.840981	2.894974
H	2.446016	3.235078	1.808137
H	3.597818	1.871604	1.808230
H	2.628997	2.221299	-1.097114
H	0.688686	-4.420219	-1.204454
H	1.302703	-4.419395	0.482482
H	-0.369395	-1.450628	-1.014863
$end

$rem
JOBTYPE		SP
EXCHANGE	HF
CORRELATION	pRIMP2
BASIS		cc-pvtz
METHOD		rimp2
AUX_BASIS	rimp2-cc-pvtz
SOLVENT_METHOD	PCM
PURECART	11111
SYMMETRY	false
MEM_TOTAL	110000
SCF_CONVERGENCE = 6
THRESH=10
GUI = 2
$end

$solvent
dielectric 4.90
$end
--------------------------------------------------------------

             Standard Nuclear Orientation (Angstroms)
    I     Atom           X                Y                Z
 ----------------------------------------------------------------
    1      C       0.6811430000    -3.8878000000    -0.2467540000
    2      C      -0.6209060000    -3.7014560000     0.2270930000
    3      C      -1.0196180000    -2.3451700000     0.3715430000
    4      H      -1.2843570000    -4.5452330000     0.4689920000
    5      C       0.0000000000    -1.4501350000     0.0000000000
    6      S       1.4355220000    -2.3213340000    -0.5220970000
    7      C      -2.3787310000    -1.9344390000     0.8660350000
    8      H      -3.0032720000    -2.8197990000     1.0937990000
    9      H      -2.9244440000    -1.3262100000     0.1146880000
   10      H      -2.3139870000    -1.3253740000     1.7918410000
   11      C       0.0000000000     0.0000000000     0.0000000000
   12      C       0.6450240000     0.5452620000     1.1130200000
   13      C       1.7075540000     1.4429540000     0.8205780000
   14      H       0.3485870000     0.2947740000     2.1428810000
   15      C       1.8972270000     1.6029640000    -0.5635880000
   16      S       0.7411550000     0.6267220000    -1.4647480000
   17      C       2.5207870000     2.1300140000     1.8823800000
   18      H       2.1785590000     1.8409810000     2.8949740000
   19      H       2.4460160000     3.2350780000     1.8081370000
   20      H       3.5978180000     1.8716040000     1.8082300000
   21      H       2.6289970000     2.2212990000    -1.0971140000
   22      H       0.6886860000    -4.4202190000    -1.2044540000
   23      H       1.3027030000    -4.4193950000     0.4824820000
   24      H      -0.3693950000    -1.4506280000    -1.0148630000
 ----------------------------------------------------------------

   10   -1180.7114443861      7.20e-07  Convergence criterion met
 Total energy in the final basis set =    -1180.7114443861
        RIMP2         total energy =     -1182.7269539397 a.u.

                    Orbital Energies (a.u.)
 --------------------------------------------------------------

 Alpha MOs
 -- Occupied --
-91.9827 -91.9347 -11.2829 -11.2570 -11.2565 -11.2524 -11.2513 -11.2500
-11.2369 -11.2296 -11.2294 -11.2128  -8.9831  -8.9397  -6.6640  -6.6633
 -6.6629  -6.6210  -6.6200  -6.6187  -1.1998  -1.1537  -1.0565  -1.0255
 -0.9994  -0.9645  -0.9090  -0.9013  -0.8093  -0.7564  -0.7472  -0.7032
 -0.6497  -0.6283  -0.6137  -0.5870  -0.5794  -0.5732  -0.5652  -0.5510
 -0.5409  -0.5316  -0.5062  -0.5058  -0.4900  -0.4690  -0.4603  -0.4451
 -0.3584  -0.3316  -0.3163  -0.2734

          Ground-State Mulliken Net Atomic Charges

     Atom                 Charge (a.u.)
  ----------------------------------------
      1 C                    -0.079550
      2 C                    -0.329801
      3 C                    -0.056347
      4 H                     0.174016
      5 C                     0.055367
      6 S                    -0.180800
      7 C                    -0.272590
      8 H                     0.112231
      9 H                     0.103435
     10 H                     0.102865
     11 C                    -0.143079
     12 C                    -0.123866
     13 C                    -0.007603
     14 H                     0.187577
     15 C                    -0.185648
     16 S                     0.016752
     17 C                    -0.269055
     18 H                     0.102550
     19 H                     0.107482
     20 H                     0.107112
     21 H                     0.201760
     22 H                     0.105975
     23 H                     0.109948
     24 H                     0.161269
  ----------------------------------------
  Sum of atomic charges =     0.000000

                    Cartesian Multipole Moments
 -----------------------------------------------------------------
    Charge (ESU x 10^10)
                -0.0000
    Dipole Moment (Debye)
         X      -0.2945      Y       1.1244      Z       1.7239
       Tot       2.0791
    Quadrupole Moments (Debye-Ang)
        XX     -84.9762     XY      10.1392     YY     -81.6825
        XZ       0.2915     YZ       0.6049     ZZ     -85.1248

 Total job time:  62.89s(wall), 1974.38s(cpu)
        *  Thank you very much for using Q-Chem.  Have a nice day.  *
