 Q-Chem 5.4, Q-Chem, Inc., Pleasanton, CA (2021)
 Q-Chem 5.4.0 for Intel X86 EM64T Linux

User input:
--------------------------------------------------------------
$molecule
0 1
C	0.680396	-3.887800	0.248806
C	-0.621614	-3.701456	-0.225147
C	-1.019896	-2.345170	-0.370780
H	-1.285337	-4.545233	-0.466300
C	0.000000	-1.450135	0.000000
S	1.435271	-2.321334	0.522786
C	-2.378891	-1.934439	-0.865597
H	-3.003720	-2.819799	-1.092567
H	-2.313975	-1.326210	-1.791940
H	-2.924390	-1.325374	-0.114772
C	0.000000	0.000000	0.000000
C	0.143630	0.832309	1.113020
C	0.380550	2.202961	0.820578
H	0.077556	0.449877	2.142881
C	0.422995	2.447456	-0.563588
S	0.164909	0.956502	-1.464748
C	0.561888	3.252016	1.882380
H	0.485513	2.810624	2.894974
H	-0.205711	4.050482	1.808137
H	1.553045	3.746365	1.808230
H	0.586105	3.391501	-1.097114
H	1.301772	-4.420219	-0.479986
H	0.687795	-4.419395	1.206964
H	0.369368	-1.450628	-1.014873
$end

$rem
JOBTYPE		SP
EXCHANGE	HF
CORRELATION	pRIMP2
BASIS		cc-pvtz
METHOD		rimp2
AUX_BASIS	rimp2-cc-pvtz
SOLVENT_METHOD	PCM
PURECART	11111
SYMMETRY	false
MEM_TOTAL	110000
SCF_CONVERGENCE = 6
THRESH=10
GUI = 2
$end

$solvent
dielectric 4.90
$end
--------------------------------------------------------------

             Standard Nuclear Orientation (Angstroms)
    I     Atom           X                Y                Z
 ----------------------------------------------------------------
    1      C       0.6803960000    -3.8878000000     0.2488060000
    2      C      -0.6216140000    -3.7014560000    -0.2251470000
    3      C      -1.0198960000    -2.3451700000    -0.3707800000
    4      H      -1.2853370000    -4.5452330000    -0.4663000000
    5      C       0.0000000000    -1.4501350000     0.0000000000
    6      S       1.4352710000    -2.3213340000     0.5227860000
    7      C      -2.3788910000    -1.9344390000    -0.8655970000
    8      H      -3.0037200000    -2.8197990000    -1.0925670000
    9      H      -2.3139750000    -1.3262100000    -1.7919400000
   10      H      -2.9243900000    -1.3253740000    -0.1147720000
   11      C       0.0000000000     0.0000000000     0.0000000000
   12      C       0.1436300000     0.8323090000     1.1130200000
   13      C       0.3805500000     2.2029610000     0.8205780000
   14      H       0.0775560000     0.4498770000     2.1428810000
   15      C       0.4229950000     2.4474560000    -0.5635880000
   16      S       0.1649090000     0.9565020000    -1.4647480000
   17      C       0.5618880000     3.2520160000     1.8823800000
   18      H       0.4855130000     2.8106240000     2.8949740000
   19      H      -0.2057110000     4.0504820000     1.8081370000
   20      H       1.5530450000     3.7463650000     1.8082300000
   21      H       0.5861050000     3.3915010000    -1.0971140000
   22      H       1.3017720000    -4.4202190000    -0.4799860000
   23      H       0.6877950000    -4.4193950000     1.2069640000
   24      H       0.3693680000    -1.4506280000    -1.0148730000
 ----------------------------------------------------------------

   10   -1180.7600150654      5.01e-07  Convergence criterion met
 Total energy in the final basis set =    -1180.7600150654
        RIMP2         total energy =     -1182.7639087037 a.u.

                    Orbital Energies (a.u.)
 --------------------------------------------------------------

 Alpha MOs
 -- Occupied --
-91.9861 -91.9429 -11.2800 -11.2649 -11.2619 -11.2560 -11.2510 -11.2412
-11.2377 -11.2313 -11.2287 -11.2187  -8.9858  -8.9473  -6.6667  -6.6662
 -6.6655  -6.6287  -6.6277  -6.6264  -1.1976  -1.1537  -1.0577  -1.0255
 -1.0038  -0.9614  -0.9136  -0.9005  -0.8123  -0.7651  -0.7355  -0.7036
 -0.6539  -0.6350  -0.6111  -0.5887  -0.5765  -0.5731  -0.5689  -0.5529
 -0.5418  -0.5305  -0.5121  -0.5054  -0.4901  -0.4841  -0.4629  -0.4485
 -0.3561  -0.3416  -0.3156  -0.2791

          Ground-State Mulliken Net Atomic Charges

     Atom                 Charge (a.u.)
  ----------------------------------------
      1 C                    -0.075219
      2 C                    -0.327276
      3 C                    -0.044323
      4 H                     0.176860
      5 C                     0.117822
      6 S                    -0.174551
      7 C                    -0.267150
      8 H                     0.112848
      9 H                     0.099961
     10 H                     0.108012
     11 C                    -0.104563
     12 C                    -0.236124
     13 C                     0.027553
     14 H                     0.185363
     15 C                    -0.245757
     16 S                     0.013321
     17 C                    -0.272092
     18 H                     0.103113
     19 H                     0.107771
     20 H                     0.108390
     21 H                     0.198969
     22 H                     0.110691
     23 H                     0.111166
     24 H                     0.165218
  ----------------------------------------
  Sum of atomic charges =     0.000000

                    Cartesian Multipole Moments
 -----------------------------------------------------------------
    Charge (ESU x 10^10)
                -0.0000
    Dipole Moment (Debye)
         X      -1.6810      Y       0.6467      Z      -0.0249
       Tot       1.8013
    Quadrupole Moments (Debye-Ang)
        XX     -91.1950     XY       4.7660     YY     -74.0209
        XZ       0.0445     YZ       3.6681     ZZ     -86.0904

 Total job time:  54.26s(wall), 1881.59s(cpu)
        *  Thank you very much for using Q-Chem.  Have a nice day.  *
