 Q-Chem 5.4, Q-Chem, Inc., Pleasanton, CA (2021)
 Q-Chem 5.4.0 for Intel X86 EM64T Linux

User input:
--------------------------------------------------------------
$molecule
0 1
C	-0.680396	-3.887800	-0.248806
C	0.621614	-3.701456	0.225147
C	1.019896	-2.345170	0.370780
H	1.285337	-4.545233	0.466300
C	-0.000000	-1.450135	-0.000000
S	-1.435271	-2.321334	-0.522786
C	2.378891	-1.934439	0.865597
H	3.003720	-2.819799	1.092567
H	2.313975	-1.326210	1.791940
H	2.924390	-1.325374	0.114772
C	0.000000	0.000000	0.000000
C	0.070542	0.841660	1.113020
C	0.187101	2.227746	0.820578
H	0.038051	0.454925	2.142881
C	0.208076	2.475009	-0.563588
S	0.080917	0.967235	-1.464748
C	0.276318	3.288613	1.882380
H	0.238704	2.842244	2.894974
H	-0.557951	4.017140	1.808137
H	1.220618	3.867466	1.808230
H	0.288286	3.429678	-1.097114
H	-1.301772	-4.420219	0.479986
H	-0.687795	-4.419395	-1.206964
H	-0.369368	-1.450628	1.014873
$end

$rem
JOBTYPE		SP
EXCHANGE	HF
CORRELATION	pRIMP2
BASIS		cc-pvtz
METHOD		rimp2
AUX_BASIS	rimp2-cc-pvtz
SOLVENT_METHOD	PCM
PURECART	11111
SYMMETRY	false
MEM_TOTAL	110000
SCF_CONVERGENCE = 6
THRESH=10
GUI = 2
$end

$solvent
dielectric 4.90
$end
--------------------------------------------------------------

             Standard Nuclear Orientation (Angstroms)
    I     Atom           X                Y                Z
 ----------------------------------------------------------------
    1      C      -0.6803960000    -3.8878000000    -0.2488060000
    2      C       0.6216140000    -3.7014560000     0.2251470000
    3      C       1.0198960000    -2.3451700000     0.3707800000
    4      H       1.2853370000    -4.5452330000     0.4663000000
    5      C       0.0000000000    -1.4501350000     0.0000000000
    6      S      -1.4352710000    -2.3213340000    -0.5227860000
    7      C       2.3788910000    -1.9344390000     0.8655970000
    8      H       3.0037200000    -2.8197990000     1.0925670000
    9      H       2.3139750000    -1.3262100000     1.7919400000
   10      H       2.9243900000    -1.3253740000     0.1147720000
   11      C       0.0000000000     0.0000000000     0.0000000000
   12      C       0.0705420000     0.8416600000     1.1130200000
   13      C       0.1871010000     2.2277460000     0.8205780000
   14      H       0.0380510000     0.4549250000     2.1428810000
   15      C       0.2080760000     2.4750090000    -0.5635880000
   16      S       0.0809170000     0.9672350000    -1.4647480000
   17      C       0.2763180000     3.2886130000     1.8823800000
   18      H       0.2387040000     2.8422440000     2.8949740000
   19      H      -0.5579510000     4.0171400000     1.8081370000
   20      H       1.2206180000     3.8674660000     1.8082300000
   21      H       0.2882860000     3.4296780000    -1.0971140000
   22      H      -1.3017720000    -4.4202190000     0.4799860000
   23      H      -0.6877950000    -4.4193950000    -1.2069640000
   24      H      -0.3693680000    -1.4506280000     1.0148730000
 ----------------------------------------------------------------

   10   -1180.7649890394      5.01e-07  Convergence criterion met
 Total energy in the final basis set =    -1180.7649890394
        RIMP2         total energy =     -1182.7693007459 a.u.

                    Orbital Energies (a.u.)
 --------------------------------------------------------------

 Alpha MOs
 -- Occupied --
-91.9810 -91.9423 -11.2825 -11.2643 -11.2629 -11.2568 -11.2511 -11.2422
-11.2415 -11.2315 -11.2296 -11.2196  -8.9809  -8.9468  -6.6618  -6.6613
 -6.6607  -6.6282  -6.6272  -6.6259  -1.1976  -1.1538  -1.0572  -1.0262
 -1.0050  -0.9607  -0.9119  -0.9013  -0.8152  -0.7597  -0.7342  -0.7039
 -0.6602  -0.6417  -0.6109  -0.5898  -0.5814  -0.5711  -0.5641  -0.5514
 -0.5413  -0.5295  -0.5147  -0.5057  -0.4913  -0.4821  -0.4607  -0.4485
 -0.3560  -0.3413  -0.3153  -0.2800

          Ground-State Mulliken Net Atomic Charges

     Atom                 Charge (a.u.)
  ----------------------------------------
      1 C                    -0.076872
      2 C                    -0.329396
      3 C                    -0.022446
      4 H                     0.177394
      5 C                     0.083790
      6 S                    -0.175762
      7 C                    -0.267819
      8 H                     0.114984
      9 H                     0.099548
     10 H                     0.110064
     11 C                    -0.078043
     12 C                    -0.243018
     13 C                     0.016918
     14 H                     0.183470
     15 C                    -0.238879
     16 S                     0.005924
     17 C                    -0.271923
     18 H                     0.101939
     19 H                     0.108829
     20 H                     0.108118
     21 H                     0.197349
     22 H                     0.111762
     23 H                     0.111916
     24 H                     0.172153
  ----------------------------------------
  Sum of atomic charges =     0.000000

                    Cartesian Multipole Moments
 -----------------------------------------------------------------
    Charge (ESU x 10^10)
                -0.0000
    Dipole Moment (Debye)
         X       2.1680      Y       0.5146      Z       3.0916
       Tot       3.8110
    Quadrupole Moments (Debye-Ang)
        XX     -91.4552     XY      -2.0489     YY     -73.7051
        XZ      -0.0891     YZ      -1.3553     ZZ     -86.2663

 Total job time:  61.25s(wall), 1916.53s(cpu)
        *  Thank you very much for using Q-Chem.  Have a nice day.  *
