 Q-Chem 5.4, Q-Chem, Inc., Pleasanton, CA (2021)
 Q-Chem 5.4.0 for Intel X86 EM64T Linux

User input:
--------------------------------------------------------------
$molecule
0 1
C	0.554267	-3.887800	0.466510
C	-0.507121	-3.701456	-0.424173
C	-0.831575	-2.345170	-0.697244
H	-1.048337	-4.545233	-0.877789
C	0.000000	-1.450135	0.000000
S	1.169911	-2.321334	0.982150
C	-1.939374	-1.934439	-1.627024
H	-2.448894	-2.819799	-2.054010
H	-1.561545	-1.326210	-2.475299
H	-2.708773	-1.325374	-1.108051
C	0.000000	0.000000	0.000000
C	-0.003081	0.844605	1.113020
C	-0.007772	2.235575	0.820578
H	-0.001743	0.456510	2.142881
C	-0.008427	2.483726	-0.563588
S	-0.003691	0.970607	-1.464748
C	-0.011355	3.300181	1.882380
H	-0.009922	2.852233	2.894974
H	-0.905944	3.953225	1.808137
H	0.878901	3.959133	1.808230
H	-0.011727	3.441752	-1.097114
H	1.387431	-4.420219	-0.005807
H	0.233510	-4.419395	1.369415
H	0.694200	-1.450628	-0.827337
$end

$rem
JOBTYPE		SP
EXCHANGE	HF
CORRELATION	pRIMP2
BASIS		cc-pvtz
METHOD		rimp2
AUX_BASIS	rimp2-cc-pvtz
SOLVENT_METHOD	PCM
PURECART	11111
SYMMETRY	false
MEM_TOTAL	110000
SCF_CONVERGENCE = 6
THRESH=10
GUI = 2
$end

$solvent
dielectric 4.90
$end
--------------------------------------------------------------

             Standard Nuclear Orientation (Angstroms)
    I     Atom           X                Y                Z
 ----------------------------------------------------------------
    1      C       0.5542670000    -3.8878000000     0.4665100000
    2      C      -0.5071210000    -3.7014560000    -0.4241730000
    3      C      -0.8315750000    -2.3451700000    -0.6972440000
    4      H      -1.0483370000    -4.5452330000    -0.8777890000
    5      C       0.0000000000    -1.4501350000     0.0000000000
    6      S       1.1699110000    -2.3213340000     0.9821500000
    7      C      -1.9393740000    -1.9344390000    -1.6270240000
    8      H      -2.4488940000    -2.8197990000    -2.0540100000
    9      H      -1.5615450000    -1.3262100000    -2.4752990000
   10      H      -2.7087730000    -1.3253740000    -1.1080510000
   11      C       0.0000000000     0.0000000000     0.0000000000
   12      C      -0.0030810000     0.8446050000     1.1130200000
   13      C      -0.0077720000     2.2355750000     0.8205780000
   14      H      -0.0017430000     0.4565100000     2.1428810000
   15      C      -0.0084270000     2.4837260000    -0.5635880000
   16      S      -0.0036910000     0.9706070000    -1.4647480000
   17      C      -0.0113550000     3.3001810000     1.8823800000
   18      H      -0.0099220000     2.8522330000     2.8949740000
   19      H      -0.9059440000     3.9532250000     1.8081370000
   20      H       0.8789010000     3.9591330000     1.8082300000
   21      H      -0.0117270000     3.4417520000    -1.0971140000
   22      H       1.3874310000    -4.4202190000    -0.0058070000
   23      H       0.2335100000    -4.4193950000     1.3694150000
   24      H       0.6942000000    -1.4506280000    -0.8273370000
 ----------------------------------------------------------------

   10   -1180.7613659978      4.91e-07  Convergence criterion met
 Total energy in the final basis set =    -1180.7613659978
        RIMP2         total energy =     -1182.7653378142 a.u.

                    Orbital Energies (a.u.)
 --------------------------------------------------------------

 Alpha MOs
 -- Occupied --
-91.9848 -91.9445 -11.2841 -11.2634 -11.2615 -11.2582 -11.2506 -11.2424
-11.2349 -11.2316 -11.2283 -11.2206  -8.9846  -8.9489  -6.6656  -6.6651
 -6.6644  -6.6303  -6.6293  -6.6280  -1.1989  -1.1534  -1.0585  -1.0257
 -1.0052  -0.9600  -0.9144  -0.9009  -0.8130  -0.7681  -0.7292  -0.7043
 -0.6549  -0.6388  -0.6110  -0.5911  -0.5764  -0.5738  -0.5693  -0.5529
 -0.5418  -0.5316  -0.5135  -0.5059  -0.4902  -0.4849  -0.4613  -0.4481
 -0.3565  -0.3426  -0.3205  -0.2736

          Ground-State Mulliken Net Atomic Charges

     Atom                 Charge (a.u.)
  ----------------------------------------
      1 C                    -0.075999
      2 C                    -0.324470
      3 C                    -0.049833
      4 H                     0.178117
      5 C                     0.135697
      6 S                    -0.175616
      7 C                    -0.276855
      8 H                     0.115685
      9 H                     0.102135
     10 H                     0.112637
     11 C                    -0.106574
     12 C                    -0.243299
     13 C                     0.024111
     14 H                     0.186628
     15 C                    -0.250315
     16 S                     0.008676
     17 C                    -0.272524
     18 H                     0.103154
     19 H                     0.107951
     20 H                     0.108301
     21 H                     0.197955
     22 H                     0.112129
     23 H                     0.111691
     24 H                     0.170618
  ----------------------------------------
  Sum of atomic charges =     0.000000

                    Cartesian Multipole Moments
 -----------------------------------------------------------------
    Charge (ESU x 10^10)
                -0.0000
    Dipole Moment (Debye)
         X      -1.3557      Y       0.2965      Z      -0.6967
       Tot       1.5528
    Quadrupole Moments (Debye-Ang)
        XX     -91.3939     XY       1.7785     YY     -73.3879
        XZ       0.1371     YZ       4.6204     ZZ     -86.1892

 Total job time:  61.12s(wall), 1978.35s(cpu)
        *  Thank you very much for using Q-Chem.  Have a nice day.  *
