 Q-Chem 5.4, Q-Chem, Inc., Pleasanton, CA (2021)
 Q-Chem 5.4.0 for Intel X86 EM64T Linux

User input:
--------------------------------------------------------------
$molecule
0 1
C	-0.713644	-3.887800	0.124726
C	0.650907	-3.701456	-0.115824
C	1.068646	-2.345170	-0.188844
H	1.346284	-4.545233	-0.238841
C	0.000000	-1.450135	0.000000
S	-1.504375	-2.321334	0.264890
C	2.492978	-1.934439	-0.439816
H	3.147582	-2.819799	-0.555669
H	2.899931	-1.326210	0.394879
H	2.589982	-1.325374	-1.362799
C	0.000000	0.000000	0.000000
C	0.143630	0.832309	1.113020
C	0.380550	2.202961	0.820578
H	0.077556	0.449877	2.142881
C	0.422995	2.447456	-0.563588
S	0.164909	0.956502	-1.464748
C	0.561888	3.252016	1.882380
H	0.485513	2.810624	2.894974
H	-0.205711	4.050482	1.808137
H	1.553045	3.746365	1.808230
H	0.586105	3.391501	-1.097114
H	-0.887375	-4.420219	1.066566
H	-1.199130	-4.419395	-0.701364
H	0.187554	-1.450628	1.063590
$end

$rem
JOBTYPE		SP
EXCHANGE	HF
CORRELATION	pRIMP2
BASIS		cc-pvtz
METHOD		rimp2
AUX_BASIS	rimp2-cc-pvtz
SOLVENT_METHOD	PCM
PURECART	11111
SYMMETRY	false
MEM_TOTAL	110000
SCF_CONVERGENCE = 6
THRESH=10
GUI = 2
$end

$solvent
dielectric 4.90
$end
--------------------------------------------------------------

             Standard Nuclear Orientation (Angstroms)
    I     Atom           X                Y                Z
 ----------------------------------------------------------------
    1      C      -0.7136440000    -3.8878000000     0.1247260000
    2      C       0.6509070000    -3.7014560000    -0.1158240000
    3      C       1.0686460000    -2.3451700000    -0.1888440000
    4      H       1.3462840000    -4.5452330000    -0.2388410000
    5      C       0.0000000000    -1.4501350000     0.0000000000
    6      S      -1.5043750000    -2.3213340000     0.2648900000
    7      C       2.4929780000    -1.9344390000    -0.4398160000
    8      H       3.1475820000    -2.8197990000    -0.5556690000
    9      H       2.8999310000    -1.3262100000     0.3948790000
   10      H       2.5899820000    -1.3253740000    -1.3627990000
   11      C       0.0000000000     0.0000000000     0.0000000000
   12      C       0.1436300000     0.8323090000     1.1130200000
   13      C       0.3805500000     2.2029610000     0.8205780000
   14      H       0.0775560000     0.4498770000     2.1428810000
   15      C       0.4229950000     2.4474560000    -0.5635880000
   16      S       0.1649090000     0.9565020000    -1.4647480000
   17      C       0.5618880000     3.2520160000     1.8823800000
   18      H       0.4855130000     2.8106240000     2.8949740000
   19      H      -0.2057110000     4.0504820000     1.8081370000
   20      H       1.5530450000     3.7463650000     1.8082300000
   21      H       0.5861050000     3.3915010000    -1.0971140000
   22      H      -0.8873750000    -4.4202190000     1.0665660000
   23      H      -1.1991300000    -4.4193950000    -0.7013640000
   24      H       0.1875540000    -1.4506280000     1.0635900000
 ----------------------------------------------------------------

   10   -1180.7632537664      5.04e-07  Convergence criterion met
 Total energy in the final basis set =    -1180.7632537664
        RIMP2         total energy =     -1182.7679426149 a.u.

                    Orbital Energies (a.u.)
 --------------------------------------------------------------

 Alpha MOs
 -- Occupied --
-91.9812 -91.9408 -11.2814 -11.2655 -11.2626 -11.2559 -11.2511 -11.2434
-11.2409 -11.2309 -11.2296 -11.2195  -8.9811  -8.9455  -6.6620  -6.6615
 -6.6609  -6.6268  -6.6258  -6.6245  -1.1974  -1.1539  -1.0571  -1.0248
 -1.0068  -0.9596  -0.9119  -0.9015  -0.8138  -0.7622  -0.7346  -0.7017
 -0.6606  -0.6406  -0.6107  -0.5888  -0.5794  -0.5721  -0.5665  -0.5502
 -0.5412  -0.5294  -0.5146  -0.5047  -0.4942  -0.4805  -0.4594  -0.4488
 -0.3555  -0.3420  -0.3137  -0.2805

          Ground-State Mulliken Net Atomic Charges

     Atom                 Charge (a.u.)
  ----------------------------------------
      1 C                    -0.077990
      2 C                    -0.328821
      3 C                    -0.013306
      4 H                     0.177296
      5 C                     0.074942
      6 S                    -0.179136
      7 C                    -0.267397
      8 H                     0.113676
      9 H                     0.102976
     10 H                     0.106937
     11 C                    -0.075057
     12 C                    -0.244075
     13 C                     0.023928
     14 H                     0.181482
     15 C                    -0.237737
     16 S                     0.007122
     17 C                    -0.271675
     18 H                     0.102278
     19 H                     0.108785
     20 H                     0.107998
     21 H                     0.197291
     22 H                     0.110834
     23 H                     0.112335
     24 H                     0.167313
  ----------------------------------------
  Sum of atomic charges =     0.000000

                    Cartesian Multipole Moments
 -----------------------------------------------------------------
    Charge (ESU x 10^10)
                -0.0000
    Dipole Moment (Debye)
         X       2.8639      Y       0.6225      Z       1.8780
       Tot       3.4808
    Quadrupole Moments (Debye-Ang)
        XX     -91.6040     XY      -2.2156     YY     -74.1016
        XZ      -0.1102     YZ       0.5197     ZZ     -85.9027

 Total job time:  55.25s(wall), 1893.93s(cpu)
        *  Thank you very much for using Q-Chem.  Have a nice day.  *
