 Q-Chem 5.4, Q-Chem, Inc., Pleasanton, CA (2021)
 Q-Chem 5.4.0 for Intel X86 EM64T Linux

User input:
--------------------------------------------------------------
$molecule
0 1
C	0.713264	-3.887800	0.126876
C	-0.651267	-3.701456	-0.113784
C	-1.068787	-2.345170	-0.188043
H	-1.346782	-4.545233	-0.236019
C	0.000000	-1.450135	0.000000
S	1.504247	-2.321334	0.265612
C	-2.493059	-1.934439	-0.439357
H	-3.147809	-2.819799	-0.554378
H	-2.589987	-1.326210	-1.362899
H	-2.899892	-1.325374	0.394786
C	0.000000	0.000000	0.000000
C	0.645024	0.545262	1.113020
C	1.707554	1.442954	0.820578
H	0.348587	0.294774	2.142881
C	1.897227	1.602964	-0.563588
S	0.741155	0.626722	-1.464748
C	2.520787	2.130014	1.882380
H	2.178559	1.840981	2.894974
H	2.446016	3.235078	1.808137
H	3.597818	1.871604	1.808230
H	2.628997	2.221299	-1.097114
H	1.198647	-4.420219	-0.698744
H	0.886933	-4.419395	1.069193
H	0.187526	-1.450628	-1.063595
$end

$rem
JOBTYPE		SP
EXCHANGE	HF
CORRELATION	pRIMP2
BASIS		cc-pvtz
METHOD		rimp2
AUX_BASIS	rimp2-cc-pvtz
SOLVENT_METHOD	PCM
PURECART	11111
SYMMETRY	false
MEM_TOTAL	110000
SCF_CONVERGENCE = 6
THRESH=10
GUI = 2
$end

$solvent
dielectric 4.90
$end
--------------------------------------------------------------

             Standard Nuclear Orientation (Angstroms)
    I     Atom           X                Y                Z
 ----------------------------------------------------------------
    1      C       0.7132640000    -3.8878000000     0.1268760000
    2      C      -0.6512670000    -3.7014560000    -0.1137840000
    3      C      -1.0687870000    -2.3451700000    -0.1880430000
    4      H      -1.3467820000    -4.5452330000    -0.2360190000
    5      C       0.0000000000    -1.4501350000     0.0000000000
    6      S       1.5042470000    -2.3213340000     0.2656120000
    7      C      -2.4930590000    -1.9344390000    -0.4393570000
    8      H      -3.1478090000    -2.8197990000    -0.5543780000
    9      H      -2.5899870000    -1.3262100000    -1.3628990000
   10      H      -2.8998920000    -1.3253740000     0.3947860000
   11      C       0.0000000000     0.0000000000     0.0000000000
   12      C       0.6450240000     0.5452620000     1.1130200000
   13      C       1.7075540000     1.4429540000     0.8205780000
   14      H       0.3485870000     0.2947740000     2.1428810000
   15      C       1.8972270000     1.6029640000    -0.5635880000
   16      S       0.7411550000     0.6267220000    -1.4647480000
   17      C       2.5207870000     2.1300140000     1.8823800000
   18      H       2.1785590000     1.8409810000     2.8949740000
   19      H       2.4460160000     3.2350780000     1.8081370000
   20      H       3.5978180000     1.8716040000     1.8082300000
   21      H       2.6289970000     2.2212990000    -1.0971140000
   22      H       1.1986470000    -4.4202190000    -0.6987440000
   23      H       0.8869330000    -4.4193950000     1.0691930000
   24      H       0.1875260000    -1.4506280000    -1.0635950000
 ----------------------------------------------------------------

   10   -1180.7103304917      7.20e-07  Convergence criterion met
 Total energy in the final basis set =    -1180.7103304917
        RIMP2         total energy =     -1182.7256036030 a.u.

                    Orbital Energies (a.u.)
 --------------------------------------------------------------

 Alpha MOs
 -- Occupied --
-91.9812 -91.9370 -11.2819 -11.2588 -11.2555 -11.2537 -11.2516 -11.2489
-11.2376 -11.2296 -11.2290 -11.2115  -8.9820  -8.9418  -6.6628  -6.6621
 -6.6616  -6.6232  -6.6222  -6.6209  -1.2014  -1.1536  -1.0577  -1.0240
 -1.0016  -0.9627  -0.9114  -0.9002  -0.8074  -0.7638  -0.7417  -0.7031
 -0.6499  -0.6289  -0.6144  -0.5866  -0.5776  -0.5759  -0.5660  -0.5507
 -0.5407  -0.5320  -0.5079  -0.5058  -0.4876  -0.4676  -0.4628  -0.4447
 -0.3582  -0.3350  -0.3158  -0.2741

          Ground-State Mulliken Net Atomic Charges

     Atom                 Charge (a.u.)
  ----------------------------------------
      1 C                    -0.076546
      2 C                    -0.336042
      3 C                    -0.049231
      4 H                     0.173729
      5 C                     0.063835
      6 S                    -0.188550
      7 C                    -0.273550
      8 H                     0.112777
      9 H                     0.100961
     10 H                     0.105814
     11 C                    -0.115093
     12 C                    -0.185770
     13 C                     0.023396
     14 H                     0.184725
     15 C                    -0.193955
     16 S                     0.013986
     17 C                    -0.267385
     18 H                     0.103206
     19 H                     0.108072
     20 H                     0.107070
     21 H                     0.201452
     22 H                     0.108131
     23 H                     0.108864
     24 H                     0.170105
  ----------------------------------------
  Sum of atomic charges =     0.000000

                    Cartesian Multipole Moments
 -----------------------------------------------------------------
    Charge (ESU x 10^10)
                -0.0000
    Dipole Moment (Debye)
         X      -0.0911      Y       1.0746      Z       0.5853
       Tot       1.2271
    Quadrupole Moments (Debye-Ang)
        XX     -84.7738     XY       9.3449     YY     -81.7973
        XZ       0.3570     YZ       2.6222     ZZ     -85.4041

 Total job time:  66.19s(wall), 2495.55s(cpu)
        *  Thank you very much for using Q-Chem.  Have a nice day.  *
