 Q-Chem 5.4, Q-Chem, Inc., Pleasanton, CA (2021)
 Q-Chem 5.4.0 for Intel X86 EM64T Linux

User input:
--------------------------------------------------------------
$molecule
0 1
C	0.713644	-3.887800	-0.124726
C	-0.650907	-3.701456	0.115824
C	-1.068646	-2.345170	0.188844
H	-1.346284	-4.545233	0.238841
C	0.000000	-1.450135	0.000000
S	1.504375	-2.321334	-0.264890
C	-2.492978	-1.934439	0.439816
H	-3.147582	-2.819799	0.555669
H	-2.899931	-1.326210	-0.394879
H	-2.589982	-1.325374	1.362799
C	0.000000	0.000000	0.000000
C	0.143630	0.832309	1.113020
C	0.380550	2.202961	0.820578
H	0.077556	0.449877	2.142881
C	0.422995	2.447456	-0.563588
S	0.164909	0.956502	-1.464748
C	0.561888	3.252016	1.882380
H	0.485513	2.810624	2.894974
H	-0.205711	4.050482	1.808137
H	1.553045	3.746365	1.808230
H	0.586105	3.391501	-1.097114
H	0.887375	-4.420219	-1.066566
H	1.199130	-4.419395	0.701364
H	-0.187554	-1.450628	-1.063590
$end

$rem
JOBTYPE		SP
EXCHANGE	HF
CORRELATION	pRIMP2
BASIS		cc-pvtz
METHOD		rimp2
AUX_BASIS	rimp2-cc-pvtz
SOLVENT_METHOD	PCM
PURECART	11111
SYMMETRY	false
MEM_TOTAL	110000
SCF_CONVERGENCE = 6
THRESH=10
GUI = 2
$end

$solvent
dielectric 4.90
$end
--------------------------------------------------------------

             Standard Nuclear Orientation (Angstroms)
    I     Atom           X                Y                Z
 ----------------------------------------------------------------
    1      C       0.7136440000    -3.8878000000    -0.1247260000
    2      C      -0.6509070000    -3.7014560000     0.1158240000
    3      C      -1.0686460000    -2.3451700000     0.1888440000
    4      H      -1.3462840000    -4.5452330000     0.2388410000
    5      C       0.0000000000    -1.4501350000     0.0000000000
    6      S       1.5043750000    -2.3213340000    -0.2648900000
    7      C      -2.4929780000    -1.9344390000     0.4398160000
    8      H      -3.1475820000    -2.8197990000     0.5556690000
    9      H      -2.8999310000    -1.3262100000    -0.3948790000
   10      H      -2.5899820000    -1.3253740000     1.3627990000
   11      C       0.0000000000     0.0000000000     0.0000000000
   12      C       0.1436300000     0.8323090000     1.1130200000
   13      C       0.3805500000     2.2029610000     0.8205780000
   14      H       0.0775560000     0.4498770000     2.1428810000
   15      C       0.4229950000     2.4474560000    -0.5635880000
   16      S       0.1649090000     0.9565020000    -1.4647480000
   17      C       0.5618880000     3.2520160000     1.8823800000
   18      H       0.4855130000     2.8106240000     2.8949740000
   19      H      -0.2057110000     4.0504820000     1.8081370000
   20      H       1.5530450000     3.7463650000     1.8082300000
   21      H       0.5861050000     3.3915010000    -1.0971140000
   22      H       0.8873750000    -4.4202190000    -1.0665660000
   23      H       1.1991300000    -4.4193950000     0.7013640000
   24      H      -0.1875540000    -1.4506280000    -1.0635900000
 ----------------------------------------------------------------

   10   -1180.7596842983      5.09e-07  Convergence criterion met
 Total energy in the final basis set =    -1180.7596842983
        RIMP2         total energy =     -1182.7637023420 a.u.

                    Orbital Energies (a.u.)
 --------------------------------------------------------------

 Alpha MOs
 -- Occupied --
-91.9867 -91.9416 -11.2783 -11.2662 -11.2622 -11.2555 -11.2510 -11.2410
-11.2382 -11.2313 -11.2289 -11.2185  -8.9863  -8.9462  -6.6672  -6.6667
 -6.6661  -6.6276  -6.6266  -6.6253  -1.1970  -1.1538  -1.0572  -1.0262
 -1.0022  -0.9628  -0.9127  -0.9006  -0.8127  -0.7606  -0.7418  -0.7031
 -0.6534  -0.6336  -0.6113  -0.5875  -0.5776  -0.5715  -0.5681  -0.5535
 -0.5422  -0.5294  -0.5113  -0.5055  -0.4921  -0.4824  -0.4634  -0.4493
 -0.3567  -0.3402  -0.3131  -0.2815

          Ground-State Mulliken Net Atomic Charges

     Atom                 Charge (a.u.)
  ----------------------------------------
      1 C                    -0.074835
      2 C                    -0.329052
      3 C                    -0.028331
      4 H                     0.176989
      5 C                     0.106722
      6 S                    -0.175818
      7 C                    -0.266839
      8 H                     0.112613
      9 H                     0.102805
     10 H                     0.104236
     11 C                    -0.117262
     12 C                    -0.215920
     13 C                     0.018297
     14 H                     0.184976
     15 C                    -0.242135
     16 S                     0.015651
     17 C                    -0.272167
     18 H                     0.102833
     19 H                     0.107435
     20 H                     0.108447
     21 H                     0.199146
     22 H                     0.110086
     23 H                     0.112829
     24 H                     0.159295
  ----------------------------------------
  Sum of atomic charges =     0.000000

                    Cartesian Multipole Moments
 -----------------------------------------------------------------
    Charge (ESU x 10^10)
                -0.0000
    Dipole Moment (Debye)
         X      -2.1802      Y       0.7523      Z       1.1706
       Tot       2.5864
    Quadrupole Moments (Debye-Ang)
        XX     -91.5326     XY       5.7555     YY     -73.9949
        XZ      -0.1100     YZ       1.7455     ZZ     -85.8023

 Total job time:  53.39s(wall), 1865.89s(cpu)
        *  Thank you very much for using Q-Chem.  Have a nice day.  *
