 Q-Chem 5.4, Q-Chem, Inc., Pleasanton, CA (2021)
 Q-Chem 5.4.0 for Intel X86 EM64T Linux

User input:
--------------------------------------------------------------
$molecule
0 1
C	0.555670	-3.887800	-0.464838
C	-0.505790	-3.701456	0.425760
C	-0.831053	-2.345170	0.697866
H	-1.046496	-4.545233	0.879984
C	-0.000000	-1.450135	-0.000000
S	1.170382	-2.321334	-0.981588
C	-1.939074	-1.934439	1.627381
H	-2.448051	-2.819799	2.055015
H	-2.708853	-1.326210	1.107991
H	-1.561590	-1.325374	2.475210
C	0.000000	0.000000	0.000000
C	0.540541	0.648986	1.113020
C	1.431046	1.717546	0.820578
H	0.292104	0.350827	2.142881
C	1.590053	1.908061	-0.563588
S	0.621066	0.745901	-1.464748
C	2.112618	2.535384	1.882380
H	1.825779	2.191315	2.894974
H	1.847090	3.610676	1.808137
H	3.218159	2.467925	1.808230
H	2.203332	2.644073	-1.097114
H	0.235206	-4.420219	-1.367361
H	1.389159	-4.419395	0.007834
H	-0.694221	-1.450628	-0.827319
$end

$rem
JOBTYPE		SP
EXCHANGE	HF
CORRELATION	pRIMP2
BASIS		cc-pvtz
METHOD		rimp2
AUX_BASIS	rimp2-cc-pvtz
SOLVENT_METHOD	PCM
PURECART	11111
SYMMETRY	false
MEM_TOTAL	110000
SCF_CONVERGENCE = 6
THRESH=10
GUI = 2
$end

$solvent
dielectric 4.90
$end
--------------------------------------------------------------

             Standard Nuclear Orientation (Angstroms)
    I     Atom           X                Y                Z
 ----------------------------------------------------------------
    1      C       0.5556700000    -3.8878000000    -0.4648380000
    2      C      -0.5057900000    -3.7014560000     0.4257600000
    3      C      -0.8310530000    -2.3451700000     0.6978660000
    4      H      -1.0464960000    -4.5452330000     0.8799840000
    5      C       0.0000000000    -1.4501350000     0.0000000000
    6      S       1.1703820000    -2.3213340000    -0.9815880000
    7      C      -1.9390740000    -1.9344390000     1.6273810000
    8      H      -2.4480510000    -2.8197990000     2.0550150000
    9      H      -2.7088530000    -1.3262100000     1.1079910000
   10      H      -1.5615900000    -1.3253740000     2.4752100000
   11      C       0.0000000000     0.0000000000     0.0000000000
   12      C       0.5405410000     0.6489860000     1.1130200000
   13      C       1.4310460000     1.7175460000     0.8205780000
   14      H       0.2921040000     0.3508270000     2.1428810000
   15      C       1.5900530000     1.9080610000    -0.5635880000
   16      S       0.6210660000     0.7459010000    -1.4647480000
   17      C       2.1126180000     2.5353840000     1.8823800000
   18      H       1.8257790000     2.1913150000     2.8949740000
   19      H       1.8470900000     3.6106760000     1.8081370000
   20      H       3.2181590000     2.4679250000     1.8082300000
   21      H       2.2033320000     2.6440730000    -1.0971140000
   22      H       0.2352060000    -4.4202190000    -1.3673610000
   23      H       1.3891590000    -4.4193950000     0.0078340000
   24      H      -0.6942210000    -1.4506280000    -0.8273190000
 ----------------------------------------------------------------

   10   -1180.7259911007      6.31e-07  Convergence criterion met
 Total energy in the final basis set =    -1180.7259911007
        RIMP2         total energy =     -1182.7385885237 a.u.

                    Orbital Energies (a.u.)
 --------------------------------------------------------------

 Alpha MOs
 -- Occupied --
-91.9838 -91.9391 -11.2740 -11.2673 -11.2603 -11.2515 -11.2513 -11.2450
-11.2382 -11.2311 -11.2293 -11.2156  -8.9839  -8.9437  -6.6648  -6.6642
 -6.6637  -6.6250  -6.6240  -6.6227  -1.1982  -1.1538  -1.0562  -1.0277
 -0.9992  -0.9645  -0.9102  -0.9012  -0.8124  -0.7559  -0.7436  -0.7035
 -0.6512  -0.6326  -0.6116  -0.5886  -0.5813  -0.5697  -0.5661  -0.5522
 -0.5423  -0.5316  -0.5117  -0.5063  -0.4890  -0.4725  -0.4635  -0.4455
 -0.3540  -0.3396  -0.3207  -0.2671

          Ground-State Mulliken Net Atomic Charges

     Atom                 Charge (a.u.)
  ----------------------------------------
      1 C                    -0.079678
      2 C                    -0.329691
      3 C                    -0.046332
      4 H                     0.174730
      5 C                     0.063740
      6 S                    -0.172810
      7 C                    -0.276719
      8 H                     0.114212
      9 H                     0.104955
     10 H                     0.103158
     11 C                    -0.118640
     12 C                    -0.168867
     13 C                     0.002800
     14 H                     0.192968
     15 C                    -0.203521
     16 S                     0.005946
     17 C                    -0.270325
     18 H                     0.101654
     19 H                     0.107578
     20 H                     0.107504
     21 H                     0.200269
     22 H                     0.106782
     23 H                     0.110735
     24 H                     0.169552
  ----------------------------------------
  Sum of atomic charges =     0.000000

                    Cartesian Multipole Moments
 -----------------------------------------------------------------
    Charge (ESU x 10^10)
                -0.0000
    Dipole Moment (Debye)
         X      -0.7735      Y       0.8980      Z       2.4465
       Tot       2.7185
    Quadrupole Moments (Debye-Ang)
        XX     -87.3255     XY       9.4668     YY     -79.0321
        XZ       0.3985     YZ      -0.5717     ZZ     -85.2835

 Total job time:  55.06s(wall), 1911.27s(cpu)
        *  Thank you very much for using Q-Chem.  Have a nice day.  *
