 Q-Chem 5.4, Q-Chem, Inc., Pleasanton, CA (2021)
 Q-Chem 5.4.0 for Intel X86 EM64T Linux

User input:
--------------------------------------------------------------
$molecule
0 1
C	-0.681143	-3.887800	0.246754
C	0.620906	-3.701456	-0.227093
C	1.019618	-2.345170	-0.371543
H	1.284357	-4.545233	-0.468992
C	0.000000	-1.450135	0.000000
S	-1.435522	-2.321334	0.522097
C	2.378731	-1.934439	-0.866035
H	3.003272	-2.819799	-1.093799
H	2.924444	-1.326210	-0.114688
H	2.313987	-1.325374	-1.791841
C	0.000000	0.000000	0.000000
C	0.354153	0.766774	1.113020
C	0.937751	2.029404	0.820578
H	0.191350	0.414475	2.142881
C	1.042030	2.254581	-0.563588
S	0.406851	0.881228	-1.464748
C	1.384426	2.995779	1.882380
H	1.196413	2.589194	2.894974
H	0.849641	3.965707	1.808137
H	2.469756	3.216753	1.808230
H	1.443919	3.124243	-1.097114
H	-0.688686	-4.420219	1.204454
H	-1.302703	-4.419395	-0.482482
H	0.369395	-1.450628	1.014863
$end

$rem
JOBTYPE		SP
EXCHANGE	HF
CORRELATION	pRIMP2
BASIS		cc-pvtz
METHOD		rimp2
AUX_BASIS	rimp2-cc-pvtz
SOLVENT_METHOD	PCM
PURECART	11111
SYMMETRY	false
MEM_TOTAL	110000
SCF_CONVERGENCE = 6
THRESH=10
GUI = 2
$end

$solvent
dielectric 4.90
$end
--------------------------------------------------------------

             Standard Nuclear Orientation (Angstroms)
    I     Atom           X                Y                Z
 ----------------------------------------------------------------
    1      C      -0.6811430000    -3.8878000000     0.2467540000
    2      C       0.6209060000    -3.7014560000    -0.2270930000
    3      C       1.0196180000    -2.3451700000    -0.3715430000
    4      H       1.2843570000    -4.5452330000    -0.4689920000
    5      C       0.0000000000    -1.4501350000     0.0000000000
    6      S      -1.4355220000    -2.3213340000     0.5220970000
    7      C       2.3787310000    -1.9344390000    -0.8660350000
    8      H       3.0032720000    -2.8197990000    -1.0937990000
    9      H       2.9244440000    -1.3262100000    -0.1146880000
   10      H       2.3139870000    -1.3253740000    -1.7918410000
   11      C       0.0000000000     0.0000000000     0.0000000000
   12      C       0.3541530000     0.7667740000     1.1130200000
   13      C       0.9377510000     2.0294040000     0.8205780000
   14      H       0.1913500000     0.4144750000     2.1428810000
   15      C       1.0420300000     2.2545810000    -0.5635880000
   16      S       0.4068510000     0.8812280000    -1.4647480000
   17      C       1.3844260000     2.9957790000     1.8823800000
   18      H       1.1964130000     2.5891940000     2.8949740000
   19      H       0.8496410000     3.9657070000     1.8081370000
   20      H       2.4697560000     3.2167530000     1.8082300000
   21      H       1.4439190000     3.1242430000    -1.0971140000
   22      H      -0.6886860000    -4.4202190000     1.2044540000
   23      H      -1.3027030000    -4.4193950000    -0.4824820000
   24      H       0.3693950000    -1.4506280000     1.0148630000
 ----------------------------------------------------------------

   10   -1180.7492405609      5.66e-07  Convergence criterion met
 Total energy in the final basis set =    -1180.7492405609
        RIMP2         total energy =     -1182.7580180077 a.u.

                    Orbital Energies (a.u.)
 --------------------------------------------------------------

 Alpha MOs
 -- Occupied --
-91.9818 -91.9388 -11.2787 -11.2673 -11.2624 -11.2543 -11.2516 -11.2440
-11.2400 -11.2299 -11.2296 -11.2186  -8.9818  -8.9436  -6.6627  -6.6621
 -6.6616  -6.6250  -6.6239  -6.6227  -1.1983  -1.1538  -1.0573  -1.0236
 -1.0076  -0.9591  -0.9111  -0.9020  -0.8116  -0.7634  -0.7345  -0.7009
 -0.6603  -0.6399  -0.6105  -0.5879  -0.5793  -0.5731  -0.5670  -0.5507
 -0.5415  -0.5288  -0.5167  -0.5043  -0.4945  -0.4747  -0.4591  -0.4473
 -0.3541  -0.3435  -0.3160  -0.2746

          Ground-State Mulliken Net Atomic Charges

     Atom                 Charge (a.u.)
  ----------------------------------------
      1 C                    -0.074074
      2 C                    -0.328863
      3 C                    -0.022088
      4 H                     0.177240
      5 C                     0.062536
      6 S                    -0.187006
      7 C                    -0.274099
      8 H                     0.114929
      9 H                     0.106171
     10 H                     0.109860
     11 C                    -0.058085
     12 C                    -0.246209
     13 C                     0.027101
     14 H                     0.181035
     15 C                    -0.235866
     16 S                     0.008030
     17 C                    -0.270442
     18 H                     0.102592
     19 H                     0.108505
     20 H                     0.107422
     21 H                     0.197384
     22 H                     0.109077
     23 H                     0.110580
     24 H                     0.174269
  ----------------------------------------
  Sum of atomic charges =     0.000000

                    Cartesian Multipole Moments
 -----------------------------------------------------------------
    Charge (ESU x 10^10)
                -0.0000
    Dipole Moment (Debye)
         X       3.4495      Y       0.6717      Z       1.4006
       Tot       3.7831
    Quadrupole Moments (Debye-Ang)
        XX     -90.2281     XY      -0.0045     YY     -76.2155
        XZ       0.2172     YZ       1.1420     ZZ     -85.6032

 Total job time:  68.12s(wall), 2569.36s(cpu)
        *  Thank you very much for using Q-Chem.  Have a nice day.  *
