 Q-Chem 5.4, Q-Chem, Inc., Pleasanton, CA (2021)
 Q-Chem 5.4.0 for Intel X86 EM64T Linux

User input:
--------------------------------------------------------------
$molecule
0 1
C	-0.681143	-3.887800	0.246754
C	0.620906	-3.701456	-0.227093
C	1.019618	-2.345170	-0.371543
H	1.284357	-4.545233	-0.468992
C	0.000000	-1.450135	0.000000
S	-1.435522	-2.321334	0.522097
C	2.378731	-1.934439	-0.866035
H	3.003272	-2.819799	-1.093799
H	2.924444	-1.326210	-0.114688
H	2.313987	-1.325374	-1.791841
C	0.000000	0.000000	0.000000
C	0.285976	0.794723	1.113020
C	0.757308	2.103412	0.820578
H	0.154498	0.429575	2.142881
C	0.841565	2.336821	-0.563588
S	0.328498	0.913334	-1.464748
C	1.118059	3.105040	1.882380
H	0.966197	2.683616	2.894974
H	0.500773	4.024668	1.808137
H	2.180000	3.419766	1.808230
H	1.166129	3.238200	-1.097114
H	-0.688686	-4.420219	1.204454
H	-1.302703	-4.419395	-0.482482
H	0.369395	-1.450628	1.014863
$end

$rem
JOBTYPE		SP
EXCHANGE	HF
CORRELATION	pRIMP2
BASIS		cc-pvtz
METHOD		rimp2
AUX_BASIS	rimp2-cc-pvtz
SOLVENT_METHOD	PCM
PURECART	11111
SYMMETRY	false
MEM_TOTAL	110000
SCF_CONVERGENCE = 6
THRESH=10
GUI = 2
$end

$solvent
dielectric 4.90
$end
--------------------------------------------------------------

             Standard Nuclear Orientation (Angstroms)
    I     Atom           X                Y                Z
 ----------------------------------------------------------------
    1      C      -0.6811430000    -3.8878000000     0.2467540000
    2      C       0.6209060000    -3.7014560000    -0.2270930000
    3      C       1.0196180000    -2.3451700000    -0.3715430000
    4      H       1.2843570000    -4.5452330000    -0.4689920000
    5      C       0.0000000000    -1.4501350000     0.0000000000
    6      S      -1.4355220000    -2.3213340000     0.5220970000
    7      C       2.3787310000    -1.9344390000    -0.8660350000
    8      H       3.0032720000    -2.8197990000    -1.0937990000
    9      H       2.9244440000    -1.3262100000    -0.1146880000
   10      H       2.3139870000    -1.3253740000    -1.7918410000
   11      C       0.0000000000     0.0000000000     0.0000000000
   12      C       0.2859760000     0.7947230000     1.1130200000
   13      C       0.7573080000     2.1034120000     0.8205780000
   14      H       0.1544980000     0.4295750000     2.1428810000
   15      C       0.8415650000     2.3368210000    -0.5635880000
   16      S       0.3284980000     0.9133340000    -1.4647480000
   17      C       1.1180590000     3.1050400000     1.8823800000
   18      H       0.9661970000     2.6836160000     2.8949740000
   19      H       0.5007730000     4.0246680000     1.8081370000
   20      H       2.1800000000     3.4197660000     1.8082300000
   21      H       1.1661290000     3.2382000000    -1.0971140000
   22      H      -0.6886860000    -4.4202190000     1.2044540000
   23      H      -1.3027030000    -4.4193950000    -0.4824820000
   24      H       0.3693950000    -1.4506280000     1.0148630000
 ----------------------------------------------------------------

   10   -1180.7547026071      5.34e-07  Convergence criterion met
 Total energy in the final basis set =    -1180.7547026071
        RIMP2         total energy =     -1182.7618919746 a.u.

                    Orbital Energies (a.u.)
 --------------------------------------------------------------

 Alpha MOs
 -- Occupied --
-91.9819 -91.9397 -11.2804 -11.2659 -11.2627 -11.2550 -11.2514 -11.2430
-11.2405 -11.2301 -11.2297 -11.2191  -8.9817  -8.9445  -6.6626  -6.6621
 -6.6616  -6.6259  -6.6248  -6.6235  -1.1980  -1.1538  -1.0573  -1.0241
 -1.0074  -0.9591  -0.9115  -0.9018  -0.8124  -0.7635  -0.7338  -0.7010
 -0.6606  -0.6404  -0.6105  -0.5879  -0.5793  -0.5728  -0.5671  -0.5506
 -0.5414  -0.5293  -0.5159  -0.5044  -0.4945  -0.4770  -0.4591  -0.4480
 -0.3546  -0.3432  -0.3158  -0.2757

          Ground-State Mulliken Net Atomic Charges

     Atom                 Charge (a.u.)
  ----------------------------------------
      1 C                    -0.075077
      2 C                    -0.328322
      3 C                    -0.018176
      4 H                     0.177374
      5 C                     0.062917
      6 S                    -0.183391
      7 C                    -0.272295
      8 H                     0.114558
      9 H                     0.105758
     10 H                     0.108836
     11 C                    -0.059696
     12 C                    -0.248904
     13 C                     0.027209
     14 H                     0.181150
     15 C                    -0.238729
     16 S                     0.007879
     17 C                    -0.270952
     18 H                     0.102503
     19 H                     0.108609
     20 H                     0.107671
     21 H                     0.197181
     22 H                     0.109635
     23 H                     0.111257
     24 H                     0.173003
  ----------------------------------------
  Sum of atomic charges =     0.000000

                    Cartesian Multipole Moments
 -----------------------------------------------------------------
    Charge (ESU x 10^10)
                -0.0000
    Dipole Moment (Debye)
         X       3.2476      Y       0.6130      Z       1.4047
       Tot       3.5910
    Quadrupole Moments (Debye-Ang)
        XX     -90.8467     XY      -0.6900     YY     -75.3710
        XZ       0.1307     YZ       1.1726     ZZ     -85.6718

 Total job time:  54.54s(wall), 1912.34s(cpu)
        *  Thank you very much for using Q-Chem.  Have a nice day.  *
