 Q-Chem 5.4, Q-Chem, Inc., Pleasanton, CA (2021)
 Q-Chem 5.4.0 for Intel X86 EM64T Linux

User input:
--------------------------------------------------------------
$molecule
0 1
C	-0.713264	-3.887800	-0.126876
C	0.651267	-3.701456	0.113784
C	1.068787	-2.345170	0.188043
H	1.346782	-4.545233	0.236019
C	0.000000	-1.450135	0.000000
S	-1.504247	-2.321334	-0.265612
C	2.493059	-1.934439	0.439357
H	3.147809	-2.819799	0.554378
H	2.589987	-1.326210	1.362899
H	2.899892	-1.325374	-0.394786
C	0.000000	0.000000	0.000000
C	0.419634	0.732990	1.113020
C	1.111057	1.939951	0.820578
H	0.226746	0.396221	2.142881
C	1.234565	2.155183	-0.563588
S	0.482106	0.842416	-1.464748
C	1.640257	2.863718	1.882380
H	1.417524	2.475067	2.894974
H	1.192042	3.876565	1.808137
H	2.740717	2.989259	1.808230
H	1.710720	2.986508	-1.097114
H	-1.198647	-4.420219	0.698744
H	-0.886933	-4.419395	-1.069193
H	-0.187526	-1.450628	1.063595
$end

$rem
JOBTYPE		SP
EXCHANGE	HF
CORRELATION	pRIMP2
BASIS		cc-pvtz
METHOD		rimp2
AUX_BASIS	rimp2-cc-pvtz
SOLVENT_METHOD	PCM
PURECART	11111
SYMMETRY	false
MEM_TOTAL	110000
SCF_CONVERGENCE = 6
THRESH=10
GUI = 2
$end

$solvent
dielectric 4.90
$end
--------------------------------------------------------------

             Standard Nuclear Orientation (Angstroms)
    I     Atom           X                Y                Z
 ----------------------------------------------------------------
    1      C      -0.7132640000    -3.8878000000    -0.1268760000
    2      C       0.6512670000    -3.7014560000     0.1137840000
    3      C       1.0687870000    -2.3451700000     0.1880430000
    4      H       1.3467820000    -4.5452330000     0.2360190000
    5      C       0.0000000000    -1.4501350000     0.0000000000
    6      S      -1.5042470000    -2.3213340000    -0.2656120000
    7      C       2.4930590000    -1.9344390000     0.4393570000
    8      H       3.1478090000    -2.8197990000     0.5543780000
    9      H       2.5899870000    -1.3262100000     1.3628990000
   10      H       2.8998920000    -1.3253740000    -0.3947860000
   11      C       0.0000000000     0.0000000000     0.0000000000
   12      C       0.4196340000     0.7329900000     1.1130200000
   13      C       1.1110570000     1.9399510000     0.8205780000
   14      H       0.2267460000     0.3962210000     2.1428810000
   15      C       1.2345650000     2.1551830000    -0.5635880000
   16      S       0.4821060000     0.8424160000    -1.4647480000
   17      C       1.6402570000     2.8637180000     1.8823800000
   18      H       1.4175240000     2.4750670000     2.8949740000
   19      H       1.1920420000     3.8765650000     1.8081370000
   20      H       2.7407170000     2.9892590000     1.8082300000
   21      H       1.7107200000     2.9865080000    -1.0971140000
   22      H      -1.1986470000    -4.4202190000     0.6987440000
   23      H      -0.8869330000    -4.4193950000    -1.0691930000
   24      H      -0.1875260000    -1.4506280000     1.0635950000
 ----------------------------------------------------------------

   10   -1180.7485730741      5.88e-07  Convergence criterion met
 Total energy in the final basis set =    -1180.7485730741
        RIMP2         total energy =     -1182.7579298816 a.u.

                    Orbital Energies (a.u.)
 --------------------------------------------------------------

 Alpha MOs
 -- Occupied --
-91.9801 -91.9377 -11.2744 -11.2719 -11.2616 -11.2543 -11.2522 -11.2488
-11.2393 -11.2306 -11.2304 -11.2185  -8.9802  -8.9425  -6.6611  -6.6605
 -6.6600  -6.6239  -6.6228  -6.6216  -1.1980  -1.1544  -1.0571  -1.0243
 -1.0059  -0.9612  -0.9109  -0.9020  -0.8121  -0.7596  -0.7379  -0.7038
 -0.6583  -0.6396  -0.6113  -0.5902  -0.5807  -0.5725  -0.5651  -0.5511
 -0.5409  -0.5277  -0.5187  -0.5050  -0.4914  -0.4724  -0.4598  -0.4464
 -0.3537  -0.3423  -0.3147  -0.2800

          Ground-State Mulliken Net Atomic Charges

     Atom                 Charge (a.u.)
  ----------------------------------------
      1 C                    -0.074843
      2 C                    -0.326351
      3 C                    -0.021374
      4 H                     0.176809
      5 C                     0.063045
      6 S                    -0.188636
      7 C                    -0.272943
      8 H                     0.116446
      9 H                     0.100914
     10 H                     0.111596
     11 C                    -0.053459
     12 C                    -0.269916
     13 C                     0.043997
     14 H                     0.185729
     15 C                    -0.229059
     16 S                     0.004266
     17 C                    -0.269348
     18 H                     0.102494
     19 H                     0.108982
     20 H                     0.107583
     21 H                     0.198862
     22 H                     0.108608
     23 H                     0.109551
     24 H                     0.167046
  ----------------------------------------
  Sum of atomic charges =     0.000000

                    Cartesian Multipole Moments
 -----------------------------------------------------------------
    Charge (ESU x 10^10)
                -0.0000
    Dipole Moment (Debye)
         X       3.4114      Y       0.8459      Z       2.8232
       Tot       4.5082
    Quadrupole Moments (Debye-Ang)
        XX     -89.0580     XY       1.2511     YY     -76.6454
        XZ       0.2707     YZ      -1.0178     ZZ     -86.0533

 Total job time:  55.24s(wall), 1935.72s(cpu)
        *  Thank you very much for using Q-Chem.  Have a nice day.  *
