 Q-Chem 5.4, Q-Chem, Inc., Pleasanton, CA (2021)
 Q-Chem 5.4.0 for Intel X86 EM64T Linux

User input:
--------------------------------------------------------------
$molecule
0 1
C	0.680396	-3.887800	0.248806
C	-0.621614	-3.701456	-0.225147
C	-1.019896	-2.345170	-0.370780
H	-1.285337	-4.545233	-0.466300
C	0.000000	-1.450135	0.000000
S	1.435271	-2.321334	0.522786
C	-2.378891	-1.934439	-0.865597
H	-3.003720	-2.819799	-1.092567
H	-2.313975	-1.326210	-1.791940
H	-2.924390	-1.325374	-0.114772
C	0.000000	0.000000	0.000000
C	0.285976	0.794723	1.113020
C	0.757308	2.103412	0.820578
H	0.154498	0.429575	2.142881
C	0.841565	2.336821	-0.563588
S	0.328498	0.913334	-1.464748
C	1.118059	3.105040	1.882380
H	0.966197	2.683616	2.894974
H	0.500773	4.024668	1.808137
H	2.180000	3.419766	1.808230
H	1.166129	3.238200	-1.097114
H	1.301772	-4.420219	-0.479986
H	0.687795	-4.419395	1.206964
H	0.369368	-1.450628	-1.014873
$end

$rem
JOBTYPE		SP
EXCHANGE	HF
CORRELATION	pRIMP2
BASIS		cc-pvtz
METHOD		rimp2
AUX_BASIS	rimp2-cc-pvtz
SOLVENT_METHOD	PCM
PURECART	11111
SYMMETRY	false
MEM_TOTAL	110000
SCF_CONVERGENCE = 6
THRESH=10
GUI = 2
$end

$solvent
dielectric 4.90
$end
--------------------------------------------------------------

             Standard Nuclear Orientation (Angstroms)
    I     Atom           X                Y                Z
 ----------------------------------------------------------------
    1      C       0.6803960000    -3.8878000000     0.2488060000
    2      C      -0.6216140000    -3.7014560000    -0.2251470000
    3      C      -1.0198960000    -2.3451700000    -0.3707800000
    4      H      -1.2853370000    -4.5452330000    -0.4663000000
    5      C       0.0000000000    -1.4501350000     0.0000000000
    6      S       1.4352710000    -2.3213340000     0.5227860000
    7      C      -2.3788910000    -1.9344390000    -0.8655970000
    8      H      -3.0037200000    -2.8197990000    -1.0925670000
    9      H      -2.3139750000    -1.3262100000    -1.7919400000
   10      H      -2.9243900000    -1.3253740000    -0.1147720000
   11      C       0.0000000000     0.0000000000     0.0000000000
   12      C       0.2859760000     0.7947230000     1.1130200000
   13      C       0.7573080000     2.1034120000     0.8205780000
   14      H       0.1544980000     0.4295750000     2.1428810000
   15      C       0.8415650000     2.3368210000    -0.5635880000
   16      S       0.3284980000     0.9133340000    -1.4647480000
   17      C       1.1180590000     3.1050400000     1.8823800000
   18      H       0.9661970000     2.6836160000     2.8949740000
   19      H       0.5007730000     4.0246680000     1.8081370000
   20      H       2.1800000000     3.4197660000     1.8082300000
   21      H       1.1661290000     3.2382000000    -1.0971140000
   22      H       1.3017720000    -4.4202190000    -0.4799860000
   23      H       0.6877950000    -4.4193950000     1.2069640000
   24      H       0.3693680000    -1.4506280000    -1.0148730000
 ----------------------------------------------------------------

   10   -1180.7544118484      5.13e-07  Convergence criterion met
 Total energy in the final basis set =    -1180.7544118484
        RIMP2         total energy =     -1182.7595761389 a.u.

                    Orbital Energies (a.u.)
 --------------------------------------------------------------

 Alpha MOs
 -- Occupied --
-91.9851 -91.9424 -11.2779 -11.2665 -11.2608 -11.2550 -11.2510 -11.2407
-11.2394 -11.2312 -11.2287 -11.2177  -8.9849  -8.9468  -6.6658  -6.6653
 -6.6646  -6.6282  -6.6272  -6.6259  -1.1979  -1.1537  -1.0576  -1.0255
 -1.0033  -0.9614  -0.9134  -0.9004  -0.8117  -0.7649  -0.7358  -0.7032
 -0.6534  -0.6344  -0.6113  -0.5884  -0.5768  -0.5734  -0.5684  -0.5526
 -0.5416  -0.5308  -0.5113  -0.5061  -0.4888  -0.4825  -0.4630  -0.4481
 -0.3560  -0.3412  -0.3159  -0.2780

          Ground-State Mulliken Net Atomic Charges

     Atom                 Charge (a.u.)
  ----------------------------------------
      1 C                    -0.073875
      2 C                    -0.326756
      3 C                    -0.045179
      4 H                     0.175995
      5 C                     0.100183
      6 S                    -0.174165
      7 C                    -0.269026
      8 H                     0.112778
      9 H                     0.099958
     10 H                     0.108033
     11 C                    -0.078357
     12 C                    -0.257804
     13 C                     0.040864
     14 H                     0.184824
     15 C                    -0.243988
     16 S                     0.011421
     17 C                    -0.271126
     18 H                     0.103129
     19 H                     0.107764
     20 H                     0.108334
     21 H                     0.199109
     22 H                     0.109895
     23 H                     0.110084
     24 H                     0.167906
  ----------------------------------------
  Sum of atomic charges =     0.000000

                    Cartesian Multipole Moments
 -----------------------------------------------------------------
    Charge (ESU x 10^10)
                -0.0000
    Dipole Moment (Debye)
         X      -1.3270      Y       0.6951      Z       0.0200
       Tot       1.4982
    Quadrupole Moments (Debye-Ang)
        XX     -90.2548     XY       6.4321     YY     -75.1509
        XZ       0.2249     YZ       3.6027     ZZ     -86.0249

 Total job time:  54.98s(wall), 1883.81s(cpu)
        *  Thank you very much for using Q-Chem.  Have a nice day.  *
