 Q-Chem 5.4, Q-Chem, Inc., Pleasanton, CA (2021)
 Q-Chem 5.4.0 for Intel X86 EM64T Linux

User input:
--------------------------------------------------------------
$molecule
0 1
C	0.681143	-3.887800	-0.246754
C	-0.620906	-3.701456	0.227093
C	-1.019618	-2.345170	0.371543
H	-1.284357	-4.545233	0.468992
C	0.000000	-1.450135	0.000000
S	1.435522	-2.321334	-0.522097
C	-2.378731	-1.934439	0.866035
H	-3.003272	-2.819799	1.093799
H	-2.924444	-1.326210	0.114688
H	-2.313987	-1.325374	1.791841
C	0.000000	0.000000	0.000000
C	0.143630	0.832309	1.113020
C	0.380550	2.202961	0.820578
H	0.077556	0.449877	2.142881
C	0.422995	2.447456	-0.563588
S	0.164909	0.956502	-1.464748
C	0.561888	3.252016	1.882380
H	0.485513	2.810624	2.894974
H	-0.205711	4.050482	1.808137
H	1.553045	3.746365	1.808230
H	0.586105	3.391501	-1.097114
H	0.688686	-4.420219	-1.204454
H	1.302703	-4.419395	0.482482
H	-0.369395	-1.450628	-1.014863
$end

$rem
JOBTYPE		SP
EXCHANGE	HF
CORRELATION	pRIMP2
BASIS		cc-pvtz
METHOD		rimp2
AUX_BASIS	rimp2-cc-pvtz
SOLVENT_METHOD	PCM
PURECART	11111
SYMMETRY	false
MEM_TOTAL	110000
SCF_CONVERGENCE = 6
THRESH=10
GUI = 2
$end

$solvent
dielectric 4.90
$end
--------------------------------------------------------------

             Standard Nuclear Orientation (Angstroms)
    I     Atom           X                Y                Z
 ----------------------------------------------------------------
    1      C       0.6811430000    -3.8878000000    -0.2467540000
    2      C      -0.6209060000    -3.7014560000     0.2270930000
    3      C      -1.0196180000    -2.3451700000     0.3715430000
    4      H      -1.2843570000    -4.5452330000     0.4689920000
    5      C       0.0000000000    -1.4501350000     0.0000000000
    6      S       1.4355220000    -2.3213340000    -0.5220970000
    7      C      -2.3787310000    -1.9344390000     0.8660350000
    8      H      -3.0032720000    -2.8197990000     1.0937990000
    9      H      -2.9244440000    -1.3262100000     0.1146880000
   10      H      -2.3139870000    -1.3253740000     1.7918410000
   11      C       0.0000000000     0.0000000000     0.0000000000
   12      C       0.1436300000     0.8323090000     1.1130200000
   13      C       0.3805500000     2.2029610000     0.8205780000
   14      H       0.0775560000     0.4498770000     2.1428810000
   15      C       0.4229950000     2.4474560000    -0.5635880000
   16      S       0.1649090000     0.9565020000    -1.4647480000
   17      C       0.5618880000     3.2520160000     1.8823800000
   18      H       0.4855130000     2.8106240000     2.8949740000
   19      H      -0.2057110000     4.0504820000     1.8081370000
   20      H       1.5530450000     3.7463650000     1.8082300000
   21      H       0.5861050000     3.3915010000    -1.0971140000
   22      H       0.6886860000    -4.4202190000    -1.2044540000
   23      H       1.3027030000    -4.4193950000     0.4824820000
   24      H      -0.3693950000    -1.4506280000    -1.0148630000
 ----------------------------------------------------------------

   10   -1180.7595543616      5.12e-07  Convergence criterion met
 Total energy in the final basis set =    -1180.7595543616
        RIMP2         total energy =     -1182.7635931032 a.u.

                    Orbital Energies (a.u.)
 --------------------------------------------------------------

 Alpha MOs
 -- Occupied --
-91.9863 -91.9418 -11.2792 -11.2655 -11.2626 -11.2557 -11.2508 -11.2413
-11.2378 -11.2315 -11.2288 -11.2189  -8.9859  -8.9464  -6.6668  -6.6663
 -6.6657  -6.6278  -6.6268  -6.6255  -1.1973  -1.1537  -1.0572  -1.0268
 -1.0019  -0.9630  -0.9126  -0.9006  -0.8133  -0.7595  -0.7425  -0.7029
 -0.6535  -0.6343  -0.6112  -0.5879  -0.5782  -0.5706  -0.5677  -0.5538
 -0.5426  -0.5298  -0.5120  -0.5055  -0.4921  -0.4821  -0.4632  -0.4497
 -0.3566  -0.3405  -0.3151  -0.2789

          Ground-State Mulliken Net Atomic Charges

     Atom                 Charge (a.u.)
  ----------------------------------------
      1 C                    -0.074945
      2 C                    -0.329574
      3 C                    -0.023848
      4 H                     0.177273
      5 C                     0.103734
      6 S                    -0.176255
      7 C                    -0.267549
      8 H                     0.113241
      9 H                     0.103674
     10 H                     0.103608
     11 C                    -0.117899
     12 C                    -0.216192
     13 C                     0.015706
     14 H                     0.186969
     15 C                    -0.240365
     16 S                     0.013962
     17 C                    -0.272548
     18 H                     0.102563
     19 H                     0.107468
     20 H                     0.108574
     21 H                     0.198810
     22 H                     0.110230
     23 H                     0.113366
     24 H                     0.159996
  ----------------------------------------
  Sum of atomic charges =     0.000000

                    Cartesian Multipole Moments
 -----------------------------------------------------------------
    Charge (ESU x 10^10)
                -0.0000
    Dipole Moment (Debye)
         X      -2.2115      Y       0.6774      Z       1.5893
       Tot       2.8063
    Quadrupole Moments (Debye-Ang)
        XX     -91.6295     XY       5.8155     YY     -73.9300
        XZ      -0.0859     YZ       1.0764     ZZ     -85.7302

 Total job time:  58.31s(wall), 1941.31s(cpu)
        *  Thank you very much for using Q-Chem.  Have a nice day.  *
