 Q-Chem 5.4, Q-Chem, Inc., Pleasanton, CA (2021)
 Q-Chem 5.4.0 for Intel X86 EM64T Linux

User input:
--------------------------------------------------------------
$molecule
0 1
C	0.246754	-3.887800	0.681143
C	-0.227093	-3.701456	-0.620906
C	-0.371543	-2.345170	-1.019618
H	-0.468992	-4.545233	-1.284357
C	0.000000	-1.450135	0.000000
S	0.522097	-2.321334	1.435522
C	-0.866035	-1.934439	-2.378731
H	-1.093799	-2.819799	-3.003272
H	-0.114688	-1.326210	-2.924444
H	-1.791841	-1.325374	-2.313987
C	0.000000	0.000000	0.000000
C	0.143630	0.832309	1.113020
C	0.380550	2.202961	0.820578
H	0.077556	0.449877	2.142881
C	0.422995	2.447456	-0.563588
S	0.164909	0.956502	-1.464748
C	0.561888	3.252016	1.882380
H	0.485513	2.810624	2.894974
H	-0.205711	4.050482	1.808137
H	1.553045	3.746365	1.808230
H	0.586105	3.391501	-1.097114
H	1.204454	-4.420219	0.688686
H	-0.482482	-4.419395	1.302703
H	1.014863	-1.450628	-0.369395
$end

$rem
JOBTYPE		SP
EXCHANGE	HF
CORRELATION	pRIMP2
BASIS		cc-pvtz
METHOD		rimp2
AUX_BASIS	rimp2-cc-pvtz
SOLVENT_METHOD	PCM
PURECART	11111
SYMMETRY	false
MEM_TOTAL	110000
SCF_CONVERGENCE = 6
THRESH=10
GUI = 2
$end

$solvent
dielectric 4.90
$end
--------------------------------------------------------------

             Standard Nuclear Orientation (Angstroms)
    I     Atom           X                Y                Z
 ----------------------------------------------------------------
    1      C       0.2467540000    -3.8878000000     0.6811430000
    2      C      -0.2270930000    -3.7014560000    -0.6209060000
    3      C      -0.3715430000    -2.3451700000    -1.0196180000
    4      H      -0.4689920000    -4.5452330000    -1.2843570000
    5      C       0.0000000000    -1.4501350000     0.0000000000
    6      S       0.5220970000    -2.3213340000     1.4355220000
    7      C      -0.8660350000    -1.9344390000    -2.3787310000
    8      H      -1.0937990000    -2.8197990000    -3.0032720000
    9      H      -0.1146880000    -1.3262100000    -2.9244440000
   10      H      -1.7918410000    -1.3253740000    -2.3139870000
   11      C       0.0000000000     0.0000000000     0.0000000000
   12      C       0.1436300000     0.8323090000     1.1130200000
   13      C       0.3805500000     2.2029610000     0.8205780000
   14      H       0.0775560000     0.4498770000     2.1428810000
   15      C       0.4229950000     2.4474560000    -0.5635880000
   16      S       0.1649090000     0.9565020000    -1.4647480000
   17      C       0.5618880000     3.2520160000     1.8823800000
   18      H       0.4855130000     2.8106240000     2.8949740000
   19      H      -0.2057110000     4.0504820000     1.8081370000
   20      H       1.5530450000     3.7463650000     1.8082300000
   21      H       0.5861050000     3.3915010000    -1.0971140000
   22      H       1.2044540000    -4.4202190000     0.6886860000
   23      H      -0.4824820000    -4.4193950000     1.3027030000
   24      H       1.0148630000    -1.4506280000    -0.3693950000
 ----------------------------------------------------------------

   10   -1180.7609122128      4.97e-07  Convergence criterion met
 Total energy in the final basis set =    -1180.7609122128
        RIMP2         total energy =     -1182.7654785377 a.u.

                    Orbital Energies (a.u.)
 --------------------------------------------------------------

 Alpha MOs
 -- Occupied --
-91.9818 -91.9471 -11.2897 -11.2648 -11.2625 -11.2556 -11.2501 -11.2444
-11.2330 -11.2310 -11.2277 -11.2232  -8.9819  -8.9515  -6.6629  -6.6624
 -6.6616  -6.6329  -6.6318  -6.6306  -1.2018  -1.1528  -1.0600  -1.0279
 -1.0063  -0.9573  -0.9164  -0.9016  -0.8142  -0.7714  -0.7199  -0.7045
 -0.6578  -0.6469  -0.6114  -0.5928  -0.5804  -0.5722  -0.5688  -0.5534
 -0.5422  -0.5337  -0.5151  -0.5083  -0.4885  -0.4872  -0.4591  -0.4463
 -0.3590  -0.3424  -0.3263  -0.2672

          Ground-State Mulliken Net Atomic Charges

     Atom                 Charge (a.u.)
  ----------------------------------------
      1 C                    -0.073469
      2 C                    -0.315143
      3 C                    -0.061868
      4 H                     0.179345
      5 C                     0.144610
      6 S                    -0.182496
      7 C                    -0.302352
      8 H                     0.119613
      9 H                     0.106391
     10 H                     0.119590
     11 C                    -0.021719
     12 C                    -0.326416
     13 C                     0.052212
     14 H                     0.178538
     15 C                    -0.277482
     16 S                     0.005841
     17 C                    -0.272151
     18 H                     0.102925
     19 H                     0.108151
     20 H                     0.108955
     21 H                     0.196450
     22 H                     0.112614
     23 H                     0.112067
     24 H                     0.185795
  ----------------------------------------
  Sum of atomic charges =     0.000000

                    Cartesian Multipole Moments
 -----------------------------------------------------------------
    Charge (ESU x 10^10)
                -0.0000
    Dipole Moment (Debye)
         X       0.1949      Y      -0.3723      Z      -1.1569
       Tot       1.2309
    Quadrupole Moments (Debye-Ang)
        XX     -91.2768     XY       1.5083     YY     -73.1701
        XZ       0.6592     YZ       5.2142     ZZ     -85.8385

 Total job time:  60.27s(wall), 1895.41s(cpu)
        *  Thank you very much for using Q-Chem.  Have a nice day.  *
