 Q-Chem 5.4, Q-Chem, Inc., Pleasanton, CA (2021)
 Q-Chem 5.4.0 for Intel X86 EM64T Linux

User input:
--------------------------------------------------------------
$molecule
0 1
C	0.724460	-3.887800	0.001092
C	-0.661131	-3.701456	0.001036
C	-1.085203	-2.345170	0.000406
H	-1.367305	-4.545233	0.001433
C	0.000000	-1.450135	0.000000
S	1.527517	-2.321334	0.000367
C	-2.531478	-1.934439	0.000233
H	-3.196254	-2.819799	0.000656
H	-2.787305	-1.326210	-0.892447
H	-2.787282	-1.325374	0.892350
C	0.000000	0.000000	0.000000
C	0.354153	0.766774	1.113020
C	0.937751	2.029404	0.820578
H	0.191350	0.414475	2.142881
C	1.042030	2.254581	-0.563588
S	0.406851	0.881228	-1.464748
C	1.384426	2.995779	1.882380
H	1.196413	2.589194	2.894974
H	0.849641	3.965707	1.808137
H	2.469756	3.216753	1.808230
H	1.443919	3.124243	-1.097114
H	1.059101	-4.420219	-0.896272
H	1.059122	-4.419395	0.898936
H	-0.000014	-1.450628	-1.080000
$end

$rem
JOBTYPE		SP
EXCHANGE	HF
CORRELATION	pRIMP2
BASIS		cc-pvtz
METHOD		rimp2
AUX_BASIS	rimp2-cc-pvtz
SOLVENT_METHOD	PCM
PURECART	11111
SYMMETRY	false
MEM_TOTAL	110000
SCF_CONVERGENCE = 6
THRESH=10
GUI = 2
$end

$solvent
dielectric 4.90
$end
--------------------------------------------------------------

             Standard Nuclear Orientation (Angstroms)
    I     Atom           X                Y                Z
 ----------------------------------------------------------------
    1      C       0.7244600000    -3.8878000000     0.0010920000
    2      C      -0.6611310000    -3.7014560000     0.0010360000
    3      C      -1.0852030000    -2.3451700000     0.0004060000
    4      H      -1.3673050000    -4.5452330000     0.0014330000
    5      C       0.0000000000    -1.4501350000     0.0000000000
    6      S       1.5275170000    -2.3213340000     0.0003670000
    7      C      -2.5314780000    -1.9344390000     0.0002330000
    8      H      -3.1962540000    -2.8197990000     0.0006560000
    9      H      -2.7873050000    -1.3262100000    -0.8924470000
   10      H      -2.7872820000    -1.3253740000     0.8923500000
   11      C       0.0000000000     0.0000000000     0.0000000000
   12      C       0.3541530000     0.7667740000     1.1130200000
   13      C       0.9377510000     2.0294040000     0.8205780000
   14      H       0.1913500000     0.4144750000     2.1428810000
   15      C       1.0420300000     2.2545810000    -0.5635880000
   16      S       0.4068510000     0.8812280000    -1.4647480000
   17      C       1.3844260000     2.9957790000     1.8823800000
   18      H       1.1964130000     2.5891940000     2.8949740000
   19      H       0.8496410000     3.9657070000     1.8081370000
   20      H       2.4697560000     3.2167530000     1.8082300000
   21      H       1.4439190000     3.1242430000    -1.0971140000
   22      H       1.0591010000    -4.4202190000    -0.8962720000
   23      H       1.0591220000    -4.4193950000     0.8989360000
   24      H      -0.0000140000    -1.4506280000    -1.0800000000
 ----------------------------------------------------------------

   10   -1180.7500756393      5.30e-07  Convergence criterion met
 Total energy in the final basis set =    -1180.7500756393
        RIMP2         total energy =     -1182.7565048543 a.u.

                    Orbital Energies (a.u.)
 --------------------------------------------------------------

 Alpha MOs
 -- Occupied --
-91.9856 -91.9408 -11.2737 -11.2694 -11.2603 -11.2539 -11.2511 -11.2412
-11.2402 -11.2308 -11.2289 -11.2167  -8.9854  -8.9454  -6.6663  -6.6658
 -6.6652  -6.6267  -6.6257  -6.6244  -1.1972  -1.1538  -1.0570  -1.0257
 -1.0019  -0.9625  -0.9123  -0.9005  -0.8114  -0.7614  -0.7408  -0.7030
 -0.6526  -0.6322  -0.6116  -0.5870  -0.5777  -0.5727  -0.5674  -0.5526
 -0.5416  -0.5300  -0.5092  -0.5063  -0.4905  -0.4795  -0.4636  -0.4484
 -0.3571  -0.3386  -0.3125  -0.2813

          Ground-State Mulliken Net Atomic Charges

     Atom                 Charge (a.u.)
  ----------------------------------------
      1 C                    -0.072204
      2 C                    -0.327253
      3 C                    -0.040332
      4 H                     0.175736
      5 C                     0.083322
      6 S                    -0.173458
      7 C                    -0.269904
      8 H                     0.112357
      9 H                     0.102477
     10 H                     0.105197
     11 C                    -0.091439
     12 C                    -0.226982
     13 C                     0.032440
     14 H                     0.182590
     15 C                    -0.236795
     16 S                     0.013383
     17 C                    -0.270465
     18 H                     0.103044
     19 H                     0.107426
     20 H                     0.108039
     21 H                     0.199712
     22 H                     0.108652
     23 H                     0.110709
     24 H                     0.163747
  ----------------------------------------
  Sum of atomic charges =     0.000000

                    Cartesian Multipole Moments
 -----------------------------------------------------------------
    Charge (ESU x 10^10)
                -0.0000
    Dipole Moment (Debye)
         X      -1.5015      Y       0.8684      Z       0.8064
       Tot       1.9128
    Quadrupole Moments (Debye-Ang)
        XX     -89.7868     XY       7.9476     YY     -75.9304
        XZ       0.1541     YZ       2.2986     ZZ     -85.7849

 Total job time:  53.16s(wall), 1858.62s(cpu)
        *  Thank you very much for using Q-Chem.  Have a nice day.  *
