 Q-Chem 5.4, Q-Chem, Inc., Pleasanton, CA (2021)
 Q-Chem 5.4.0 for Intel X86 EM64T Linux

User input:
--------------------------------------------------------------
$molecule
0 1
C	0.674034	-3.828925	0.724460
C	0.641731	-3.645403	-0.661131
C	0.406834	-2.309612	-1.085203
H	0.787861	-4.476429	-1.367305
C	0.251813	-1.428104	0.000000
S	0.402734	-2.286131	1.527517
C	0.335682	-1.905091	-2.531478
H	0.489007	-2.777074	-3.196254
H	1.109183	-1.151090	-2.787305
H	-0.648644	-1.460194	-2.787282
C	0.000000	0.000000	0.000000
C	0.540541	0.648986	1.113020
C	1.431046	1.717546	0.820578
H	0.292104	0.350827	2.142881
C	1.590053	1.908061	-0.563588
S	0.621066	0.745901	-1.464748
C	2.112618	2.535384	1.882380
H	1.825779	2.191315	2.894974
H	1.847090	3.610676	1.808137
H	3.218159	2.467925	1.808230
H	2.203332	2.644073	-1.097114
H	1.650218	-4.197430	1.059101
H	-0.117859	-4.508353	1.059122
H	1.315491	-1.241050	-0.000014
$end

$rem
JOBTYPE		SP
EXCHANGE	HF
CORRELATION	pRIMP2
BASIS		cc-pvtz
METHOD		rimp2
AUX_BASIS	rimp2-cc-pvtz
SOLVENT_METHOD	PCM
PURECART	11111
SYMMETRY	false
MEM_TOTAL	110000
SCF_CONVERGENCE = 6
THRESH=10
GUI = 2
$end

$solvent
dielectric 4.90
$end
--------------------------------------------------------------

             Standard Nuclear Orientation (Angstroms)
    I     Atom           X                Y                Z
 ----------------------------------------------------------------
    1      C       0.6740340000    -3.8289250000     0.7244600000
    2      C       0.6417310000    -3.6454030000    -0.6611310000
    3      C       0.4068340000    -2.3096120000    -1.0852030000
    4      H       0.7878610000    -4.4764290000    -1.3673050000
    5      C       0.2518130000    -1.4281040000     0.0000000000
    6      S       0.4027340000    -2.2861310000     1.5275170000
    7      C       0.3356820000    -1.9050910000    -2.5314780000
    8      H       0.4890070000    -2.7770740000    -3.1962540000
    9      H       1.1091830000    -1.1510900000    -2.7873050000
   10      H      -0.6486440000    -1.4601940000    -2.7872820000
   11      C       0.0000000000     0.0000000000     0.0000000000
   12      C       0.5405410000     0.6489860000     1.1130200000
   13      C       1.4310460000     1.7175460000     0.8205780000
   14      H       0.2921040000     0.3508270000     2.1428810000
   15      C       1.5900530000     1.9080610000    -0.5635880000
   16      S       0.6210660000     0.7459010000    -1.4647480000
   17      C       2.1126180000     2.5353840000     1.8823800000
   18      H       1.8257790000     2.1913150000     2.8949740000
   19      H       1.8470900000     3.6106760000     1.8081370000
   20      H       3.2181590000     2.4679250000     1.8082300000
   21      H       2.2033320000     2.6440730000    -1.0971140000
   22      H       1.6502180000    -4.1974300000     1.0591010000
   23      H      -0.1178590000    -4.5083530000     1.0591220000
   24      H       1.3154910000    -1.2410500000    -0.0000140000
 ----------------------------------------------------------------

   10   -1180.7021821001      9.50e-07  Convergence criterion met
 Total energy in the final basis set =    -1180.7021821001
        RIMP2         total energy =     -1182.7240647122 a.u.

                    Orbital Energies (a.u.)
 --------------------------------------------------------------

 Alpha MOs
 -- Occupied --
-91.9766 -91.9426 -11.2741 -11.2711 -11.2601 -11.2589 -11.2523 -11.2413
-11.2412 -11.2291 -11.2275 -11.2182  -8.9782  -8.9473  -6.6589  -6.6582
 -6.6577  -6.6286  -6.6276  -6.6264  -1.2073  -1.1531  -1.0605  -1.0277
 -1.0064  -0.9554  -0.9137  -0.9047  -0.8072  -0.7737  -0.7207  -0.7029
 -0.6606  -0.6461  -0.6133  -0.5876  -0.5852  -0.5731  -0.5703  -0.5522
 -0.5408  -0.5344  -0.5172  -0.5155  -0.4897  -0.4652  -0.4523  -0.4388
 -0.3570  -0.3393  -0.3281  -0.2612

          Ground-State Mulliken Net Atomic Charges

     Atom                 Charge (a.u.)
  ----------------------------------------
      1 C                    -0.075509
      2 C                    -0.323447
      3 C                    -0.050447
      4 H                     0.177283
      5 C                     0.097719
      6 S                    -0.203010
      7 C                    -0.295543
      8 H                     0.112876
      9 H                     0.112310
     10 H                     0.115874
     11 C                    -0.053976
     12 C                    -0.237635
     13 C                     0.021058
     14 H                     0.181698
     15 C                    -0.241282
     16 S                     0.018498
     17 C                    -0.267265
     18 H                     0.103804
     19 H                     0.108353
     20 H                     0.106541
     21 H                     0.198868
     22 H                     0.110003
     23 H                     0.112538
     24 H                     0.170693
  ----------------------------------------
  Sum of atomic charges =     0.000000

                    Cartesian Multipole Moments
 -----------------------------------------------------------------
    Charge (ESU x 10^10)
                -0.0000
    Dipole Moment (Debye)
         X       2.4517      Y       0.4394      Z      -1.0001
       Tot       2.6840
    Quadrupole Moments (Debye-Ang)
        XX     -86.5182     XY       3.0349     YY     -79.0258
        XZ       0.1667     YZ       4.2930     ZZ     -85.2538

 Total job time:  57.80s(wall), 1978.61s(cpu)
        *  Thank you very much for using Q-Chem.  Have a nice day.  *
