 Q-Chem 5.4, Q-Chem, Inc., Pleasanton, CA (2021)
 Q-Chem 5.4.0 for Intel X86 EM64T Linux

User input:
--------------------------------------------------------------
$molecule
0 1
C	0.713644	-3.887800	-0.124726
C	-0.650907	-3.701456	0.115824
C	-1.068646	-2.345170	0.188844
H	-1.346284	-4.545233	0.238841
C	0.000000	-1.450135	0.000000
S	1.504375	-2.321334	-0.264890
C	-2.492978	-1.934439	0.439816
H	-3.147582	-2.819799	0.555669
H	-2.899931	-1.326210	-0.394879
H	-2.589982	-1.325374	1.362799
C	0.000000	0.000000	0.000000
C	0.354153	0.766774	1.113020
C	0.937751	2.029404	0.820578
H	0.191350	0.414475	2.142881
C	1.042030	2.254581	-0.563588
S	0.406851	0.881228	-1.464748
C	1.384426	2.995779	1.882380
H	1.196413	2.589194	2.894974
H	0.849641	3.965707	1.808137
H	2.469756	3.216753	1.808230
H	1.443919	3.124243	-1.097114
H	0.887375	-4.420219	-1.066566
H	1.199130	-4.419395	0.701364
H	-0.187554	-1.450628	-1.063590
$end

$rem
JOBTYPE		SP
EXCHANGE	HF
CORRELATION	pRIMP2
BASIS		cc-pvtz
METHOD		rimp2
AUX_BASIS	rimp2-cc-pvtz
SOLVENT_METHOD	PCM
PURECART	11111
SYMMETRY	false
MEM_TOTAL	110000
SCF_CONVERGENCE = 6
THRESH=10
GUI = 2
$end

$solvent
dielectric 4.90
$end
--------------------------------------------------------------

             Standard Nuclear Orientation (Angstroms)
    I     Atom           X                Y                Z
 ----------------------------------------------------------------
    1      C       0.7136440000    -3.8878000000    -0.1247260000
    2      C      -0.6509070000    -3.7014560000     0.1158240000
    3      C      -1.0686460000    -2.3451700000     0.1888440000
    4      H      -1.3462840000    -4.5452330000     0.2388410000
    5      C       0.0000000000    -1.4501350000     0.0000000000
    6      S       1.5043750000    -2.3213340000    -0.2648900000
    7      C      -2.4929780000    -1.9344390000     0.4398160000
    8      H      -3.1475820000    -2.8197990000     0.5556690000
    9      H      -2.8999310000    -1.3262100000    -0.3948790000
   10      H      -2.5899820000    -1.3253740000     1.3627990000
   11      C       0.0000000000     0.0000000000     0.0000000000
   12      C       0.3541530000     0.7667740000     1.1130200000
   13      C       0.9377510000     2.0294040000     0.8205780000
   14      H       0.1913500000     0.4144750000     2.1428810000
   15      C       1.0420300000     2.2545810000    -0.5635880000
   16      S       0.4068510000     0.8812280000    -1.4647480000
   17      C       1.3844260000     2.9957790000     1.8823800000
   18      H       1.1964130000     2.5891940000     2.8949740000
   19      H       0.8496410000     3.9657070000     1.8081370000
   20      H       2.4697560000     3.2167530000     1.8082300000
   21      H       1.4439190000     3.1242430000    -1.0971140000
   22      H       0.8873750000    -4.4202190000    -1.0665660000
   23      H       1.1991300000    -4.4193950000     0.7013640000
   24      H      -0.1875540000    -1.4506280000    -1.0635900000
 ----------------------------------------------------------------

   10   -1180.7499466214      5.32e-07  Convergence criterion met
 Total energy in the final basis set =    -1180.7499466214
        RIMP2         total energy =     -1182.7564778607 a.u.

                    Orbital Energies (a.u.)
 --------------------------------------------------------------

 Alpha MOs
 -- Occupied --
-91.9858 -91.9405 -11.2736 -11.2695 -11.2607 -11.2540 -11.2510 -11.2410
-11.2403 -11.2309 -11.2289 -11.2169  -8.9855  -8.9452  -6.6664  -6.6659
 -6.6652  -6.6265  -6.6255  -6.6242  -1.1971  -1.1538  -1.0568  -1.0261
 -1.0014  -0.9629  -0.9119  -0.9006  -0.8118  -0.7598  -0.7424  -0.7029
 -0.6525  -0.6322  -0.6115  -0.5870  -0.5782  -0.5720  -0.5672  -0.5528
 -0.5418  -0.5298  -0.5091  -0.5062  -0.4915  -0.4789  -0.4635  -0.4488
 -0.3572  -0.3383  -0.3130  -0.2805

          Ground-State Mulliken Net Atomic Charges

     Atom                 Charge (a.u.)
  ----------------------------------------
      1 C                    -0.072392
      2 C                    -0.327043
      3 C                    -0.036852
      4 H                     0.175857
      5 C                     0.079091
      6 S                    -0.173032
      7 C                    -0.269510
      8 H                     0.112469
      9 H                     0.103272
     10 H                     0.103972
     11 C                    -0.100565
     12 C                    -0.212668
     13 C                     0.024002
     14 H                     0.183460
     15 C                    -0.232883
     16 S                     0.013465
     17 C                    -0.270719
     18 H                     0.102869
     19 H                     0.107343
     20 H                     0.108042
     21 H                     0.199509
     22 H                     0.108495
     23 H                     0.111345
     24 H                     0.162470
  ----------------------------------------
  Sum of atomic charges =     0.000000

                    Cartesian Multipole Moments
 -----------------------------------------------------------------
    Charge (ESU x 10^10)
                -0.0000
    Dipole Moment (Debye)
         X      -1.5951      Y       0.8631      Z       1.2138
       Tot       2.1824
    Quadrupole Moments (Debye-Ang)
        XX     -89.8876     XY       8.1660     YY     -75.8670
        XZ       0.1343     YZ       1.6159     ZZ     -85.6953

 Total job time:  56.06s(wall), 1884.40s(cpu)
        *  Thank you very much for using Q-Chem.  Have a nice day.  *
