 Q-Chem 5.4, Q-Chem, Inc., Pleasanton, CA (2021)
 Q-Chem 5.4.0 for Intel X86 EM64T Linux

User input:
--------------------------------------------------------------
$molecule
0 1
C	-0.464838	-3.887800	-0.555670
C	0.425760	-3.701456	0.505790
C	0.697866	-2.345170	0.831053
H	0.879984	-4.545233	1.046496
C	0.000000	-1.450135	0.000000
S	-0.981588	-2.321334	-1.170382
C	1.627381	-1.934439	1.939074
H	2.055015	-2.819799	2.448051
H	1.107991	-1.326210	2.708853
H	2.475210	-1.325374	1.561590
C	0.000000	0.000000	0.000000
C	0.645024	0.545262	1.113020
C	1.707554	1.442954	0.820578
H	0.348587	0.294774	2.142881
C	1.897227	1.602964	-0.563588
S	0.741155	0.626722	-1.464748
C	2.520787	2.130014	1.882380
H	2.178559	1.840981	2.894974
H	2.446016	3.235078	1.808137
H	3.597818	1.871604	1.808230
H	2.628997	2.221299	-1.097114
H	-1.367361	-4.420219	-0.235206
H	0.007834	-4.419395	-1.389159
H	-0.827319	-1.450628	0.694221
$end

$rem
JOBTYPE		SP
EXCHANGE	HF
CORRELATION	pRIMP2
BASIS		cc-pvtz
METHOD		rimp2
AUX_BASIS	rimp2-cc-pvtz
SOLVENT_METHOD	PCM
PURECART	11111
SYMMETRY	false
MEM_TOTAL	110000
SCF_CONVERGENCE = 6
THRESH=10
GUI = 2
$end

$solvent
dielectric 4.90
$end
--------------------------------------------------------------

             Standard Nuclear Orientation (Angstroms)
    I     Atom           X                Y                Z
 ----------------------------------------------------------------
    1      C      -0.4648380000    -3.8878000000    -0.5556700000
    2      C       0.4257600000    -3.7014560000     0.5057900000
    3      C       0.6978660000    -2.3451700000     0.8310530000
    4      H       0.8799840000    -4.5452330000     1.0464960000
    5      C       0.0000000000    -1.4501350000     0.0000000000
    6      S      -0.9815880000    -2.3213340000    -1.1703820000
    7      C       1.6273810000    -1.9344390000     1.9390740000
    8      H       2.0550150000    -2.8197990000     2.4480510000
    9      H       1.1079910000    -1.3262100000     2.7088530000
   10      H       2.4752100000    -1.3253740000     1.5615900000
   11      C       0.0000000000     0.0000000000     0.0000000000
   12      C       0.6450240000     0.5452620000     1.1130200000
   13      C       1.7075540000     1.4429540000     0.8205780000
   14      H       0.3485870000     0.2947740000     2.1428810000
   15      C       1.8972270000     1.6029640000    -0.5635880000
   16      S       0.7411550000     0.6267220000    -1.4647480000
   17      C       2.5207870000     2.1300140000     1.8823800000
   18      H       2.1785590000     1.8409810000     2.8949740000
   19      H       2.4460160000     3.2350780000     1.8081370000
   20      H       3.5978180000     1.8716040000     1.8082300000
   21      H       2.6289970000     2.2212990000    -1.0971140000
   22      H      -1.3673610000    -4.4202190000    -0.2352060000
   23      H       0.0078340000    -4.4193950000    -1.3891590000
   24      H      -0.8273190000    -1.4506280000     0.6942210000
 ----------------------------------------------------------------

   10   -1180.7036351175      9.30e-07  Convergence criterion met
 Total energy in the final basis set =    -1180.7036351175
        RIMP2         total energy =     -1182.7252575636 a.u.

                    Orbital Energies (a.u.)
 --------------------------------------------------------------

 Alpha MOs
 -- Occupied --
-91.9764 -91.9381 -11.2794 -11.2613 -11.2608 -11.2540 -11.2525 -11.2521
-11.2391 -11.2313 -11.2306 -11.2161  -8.9772  -8.9428  -6.6580  -6.6572
 -6.6568  -6.6242  -6.6232  -6.6220  -1.2016  -1.1541  -1.0576  -1.0293
 -1.0008  -0.9639  -0.9126  -0.9024  -0.8105  -0.7594  -0.7356  -0.7113
 -0.6508  -0.6420  -0.6136  -0.5927  -0.5921  -0.5708  -0.5599  -0.5529
 -0.5396  -0.5314  -0.5233  -0.5094  -0.4810  -0.4660  -0.4525  -0.4430
 -0.3536  -0.3397  -0.3222  -0.2668

          Ground-State Mulliken Net Atomic Charges

     Atom                 Charge (a.u.)
  ----------------------------------------
      1 C                    -0.069709
      2 C                    -0.335040
      3 C                    -0.056342
      4 H                     0.177180
      5 C                     0.102744
      6 S                    -0.194390
      7 C                    -0.291217
      8 H                     0.120544
      9 H                     0.096679
     10 H                     0.115178
     11 C                    -0.120389
     12 C                    -0.201160
     13 C                     0.001278
     14 H                     0.193981
     15 C                    -0.197044
     16 S                     0.013787
     17 C                    -0.274796
     18 H                     0.103726
     19 H                     0.115997
     20 H                     0.107504
     21 H                     0.199541
     22 H                     0.106729
     23 H                     0.109357
     24 H                     0.175863
  ----------------------------------------
  Sum of atomic charges =     0.000000

                    Cartesian Multipole Moments
 -----------------------------------------------------------------
    Charge (ESU x 10^10)
                -0.0000
    Dipole Moment (Debye)
         X       3.0081      Y       0.6681      Z       4.2095
       Tot       5.2168
    Quadrupole Moments (Debye-Ang)
        XX     -84.5767     XY       4.6119     YY     -80.8227
        XZ       0.9454     YZ      -2.9329     ZZ     -86.0058

 Total job time:  61.40s(wall), 2290.04s(cpu)
        *  Thank you very much for using Q-Chem.  Have a nice day.  *
