 Q-Chem 5.4, Q-Chem, Inc., Pleasanton, CA (2021)
 Q-Chem 5.4.0 for Intel X86 EM64T Linux

User input:
--------------------------------------------------------------
$molecule
0 1
C	0.464838	-3.887800	0.555670
C	-0.425760	-3.701456	-0.505790
C	-0.697866	-2.345170	-0.831053
H	-0.879984	-4.545233	-1.046496
C	0.000000	-1.450135	0.000000
S	0.981588	-2.321334	1.170382
C	-1.627381	-1.934439	-1.939074
H	-2.055015	-2.819799	-2.448051
H	-1.107991	-1.326210	-2.708853
H	-2.475210	-1.325374	-1.561590
C	0.000000	0.000000	0.000000
C	0.645024	0.545262	1.113020
C	1.707554	1.442954	0.820578
H	0.348587	0.294774	2.142881
C	1.897227	1.602964	-0.563588
S	0.741155	0.626722	-1.464748
C	2.520787	2.130014	1.882380
H	2.178559	1.840981	2.894974
H	2.446016	3.235078	1.808137
H	3.597818	1.871604	1.808230
H	2.628997	2.221299	-1.097114
H	1.367361	-4.420219	0.235206
H	-0.007834	-4.419395	1.389159
H	0.827319	-1.450628	-0.694221
$end

$rem
JOBTYPE		SP
EXCHANGE	HF
CORRELATION	pRIMP2
BASIS		cc-pvtz
METHOD		rimp2
AUX_BASIS	rimp2-cc-pvtz
SOLVENT_METHOD	PCM
PURECART	11111
SYMMETRY	false
MEM_TOTAL	110000
SCF_CONVERGENCE = 6
THRESH=10
GUI = 2
$end

$solvent
dielectric 4.90
$end
--------------------------------------------------------------

             Standard Nuclear Orientation (Angstroms)
    I     Atom           X                Y                Z
 ----------------------------------------------------------------
    1      C       0.4648380000    -3.8878000000     0.5556700000
    2      C      -0.4257600000    -3.7014560000    -0.5057900000
    3      C      -0.6978660000    -2.3451700000    -0.8310530000
    4      H      -0.8799840000    -4.5452330000    -1.0464960000
    5      C       0.0000000000    -1.4501350000     0.0000000000
    6      S       0.9815880000    -2.3213340000     1.1703820000
    7      C      -1.6273810000    -1.9344390000    -1.9390740000
    8      H      -2.0550150000    -2.8197990000    -2.4480510000
    9      H      -1.1079910000    -1.3262100000    -2.7088530000
   10      H      -2.4752100000    -1.3253740000    -1.5615900000
   11      C       0.0000000000     0.0000000000     0.0000000000
   12      C       0.6450240000     0.5452620000     1.1130200000
   13      C       1.7075540000     1.4429540000     0.8205780000
   14      H       0.3485870000     0.2947740000     2.1428810000
   15      C       1.8972270000     1.6029640000    -0.5635880000
   16      S       0.7411550000     0.6267220000    -1.4647480000
   17      C       2.5207870000     2.1300140000     1.8823800000
   18      H       2.1785590000     1.8409810000     2.8949740000
   19      H       2.4460160000     3.2350780000     1.8081370000
   20      H       3.5978180000     1.8716040000     1.8082300000
   21      H       2.6289970000     2.2212990000    -1.0971140000
   22      H       1.3673610000    -4.4202190000     0.2352060000
   23      H      -0.0078340000    -4.4193950000     1.3891590000
   24      H       0.8273190000    -1.4506280000    -0.6942210000
 ----------------------------------------------------------------

   10   -1180.7091031453      7.24e-07  Convergence criterion met
 Total energy in the final basis set =    -1180.7091031453
        RIMP2         total energy =     -1182.7255684923 a.u.

                    Orbital Energies (a.u.)
 --------------------------------------------------------------

 Alpha MOs
 -- Occupied --
-91.9765 -91.9409 -11.2759 -11.2698 -11.2562 -11.2526 -11.2518 -11.2495
-11.2386 -11.2310 -11.2296 -11.2165  -8.9781  -8.9454  -6.6589  -6.6582
 -6.6577  -6.6268  -6.6257  -6.6245  -1.2052  -1.1537  -1.0597  -1.0256
 -1.0049  -0.9592  -0.9143  -0.9012  -0.8081  -0.7709  -0.7295  -0.7033
 -0.6528  -0.6394  -0.6136  -0.5895  -0.5793  -0.5757  -0.5690  -0.5512
 -0.5416  -0.5349  -0.5150  -0.5081  -0.4872  -0.4671  -0.4621  -0.4413
 -0.3551  -0.3445  -0.3262  -0.2613

          Ground-State Mulliken Net Atomic Charges

     Atom                 Charge (a.u.)
  ----------------------------------------
      1 C                    -0.082474
      2 C                    -0.320218
      3 C                    -0.069229
      4 H                     0.174936
      5 C                     0.103547
      6 S                    -0.189294
      7 C                    -0.284132
      8 H                     0.115705
      9 H                     0.105136
     10 H                     0.109630
     11 C                    -0.069412
     12 C                    -0.242862
     13 C                     0.029874
     14 H                     0.191619
     15 C                    -0.215127
     16 S                    -0.003257
     17 C                    -0.267599
     18 H                     0.103677
     19 H                     0.109434
     20 H                     0.108252
     21 H                     0.199557
     22 H                     0.109019
     23 H                     0.107759
     24 H                     0.175461
  ----------------------------------------
  Sum of atomic charges =     0.000000

                    Cartesian Multipole Moments
 -----------------------------------------------------------------
    Charge (ESU x 10^10)
                -0.0000
    Dipole Moment (Debye)
         X       0.8945      Y       0.4293      Z      -0.5201
       Tot       1.1202
    Quadrupole Moments (Debye-Ang)
        XX     -84.5087     XY       7.0841     YY     -80.7507
        XZ       0.9612     YZ       4.6974     ZZ     -85.9236

 Total job time:  54.29s(wall), 1913.13s(cpu)
        *  Thank you very much for using Q-Chem.  Have a nice day.  *
