 Q-Chem 5.4, Q-Chem, Inc., Pleasanton, CA (2021)
 Q-Chem 5.4.0 for Intel X86 EM64T Linux

User input:
--------------------------------------------------------------
$molecule
0 1
C	0.627947	-3.887800	-0.361285
C	-0.572038	-3.701456	0.331462
C	-0.939610	-2.345170	0.542953
H	-1.183405	-4.545233	0.684893
C	-0.000000	-1.450135	-0.000000
S	1.323052	-2.321334	-0.763441
C	-2.192207	-1.934439	1.265941
H	-2.767709	-2.819799	1.598695
H	-2.860100	-1.326210	0.620770
H	-1.967682	-1.325374	2.166438
C	0.000000	0.000000	0.000000
C	0.070542	0.841660	1.113020
C	0.187101	2.227746	0.820578
H	0.038051	0.454925	2.142881
C	0.208076	2.475009	-0.563588
S	0.080917	0.967235	-1.464748
C	0.276318	3.288613	1.882380
H	0.238704	2.842244	2.894974
H	-0.557951	4.017140	1.808137
H	1.220618	3.867466	1.808230
H	0.288286	3.429678	-1.097114
H	0.469073	-4.420219	-1.305744
H	1.366694	-4.419395	0.248940
H	-0.540012	-1.450628	-0.935300
$end

$rem
JOBTYPE		SP
EXCHANGE	HF
CORRELATION	pRIMP2
BASIS		cc-pvtz
METHOD		rimp2
AUX_BASIS	rimp2-cc-pvtz
SOLVENT_METHOD	PCM
PURECART	11111
SYMMETRY	false
MEM_TOTAL	110000
SCF_CONVERGENCE = 6
THRESH=10
GUI = 2
$end

$solvent
dielectric 4.90
$end
--------------------------------------------------------------

             Standard Nuclear Orientation (Angstroms)
    I     Atom           X                Y                Z
 ----------------------------------------------------------------
    1      C       0.6279470000    -3.8878000000    -0.3612850000
    2      C      -0.5720380000    -3.7014560000     0.3314620000
    3      C      -0.9396100000    -2.3451700000     0.5429530000
    4      H      -1.1834050000    -4.5452330000     0.6848930000
    5      C       0.0000000000    -1.4501350000     0.0000000000
    6      S       1.3230520000    -2.3213340000    -0.7634410000
    7      C      -2.1922070000    -1.9344390000     1.2659410000
    8      H      -2.7677090000    -2.8197990000     1.5986950000
    9      H      -2.8601000000    -1.3262100000     0.6207700000
   10      H      -1.9676820000    -1.3253740000     2.1664380000
   11      C       0.0000000000     0.0000000000     0.0000000000
   12      C       0.0705420000     0.8416600000     1.1130200000
   13      C       0.1871010000     2.2277460000     0.8205780000
   14      H       0.0380510000     0.4549250000     2.1428810000
   15      C       0.2080760000     2.4750090000    -0.5635880000
   16      S       0.0809170000     0.9672350000    -1.4647480000
   17      C       0.2763180000     3.2886130000     1.8823800000
   18      H       0.2387040000     2.8422440000     2.8949740000
   19      H      -0.5579510000     4.0171400000     1.8081370000
   20      H       1.2206180000     3.8674660000     1.8082300000
   21      H       0.2882860000     3.4296780000    -1.0971140000
   22      H       0.4690730000    -4.4202190000    -1.3057440000
   23      H       1.3666940000    -4.4193950000     0.2489400000
   24      H      -0.5400120000    -1.4506280000    -0.9353000000
 ----------------------------------------------------------------

   10   -1180.7608176178      5.11e-07  Convergence criterion met
 Total energy in the final basis set =    -1180.7608176178
        RIMP2         total energy =     -1182.7645521707 a.u.

                    Orbital Energies (a.u.)
 --------------------------------------------------------------

 Alpha MOs
 -- Occupied --
-91.9857 -91.9425 -11.2814 -11.2638 -11.2634 -11.2567 -11.2507 -11.2418
-11.2366 -11.2318 -11.2288 -11.2199  -8.9853  -8.9471  -6.6662  -6.6658
 -6.6651  -6.6285  -6.6275  -6.6262  -1.1979  -1.1536  -1.0576  -1.0275
 -1.0017  -0.9631  -0.9129  -0.9006  -0.8140  -0.7595  -0.7421  -0.7028
 -0.6538  -0.6360  -0.6111  -0.5888  -0.5788  -0.5698  -0.5674  -0.5541
 -0.5433  -0.5304  -0.5139  -0.5052  -0.4915  -0.4823  -0.4631  -0.4499
 -0.3564  -0.3415  -0.3179  -0.2758

          Ground-State Mulliken Net Atomic Charges

     Atom                 Charge (a.u.)
  ----------------------------------------
      1 C                    -0.075896
      2 C                    -0.329448
      3 C                    -0.020522
      4 H                     0.177759
      5 C                     0.108666
      6 S                    -0.177478
      7 C                    -0.268503
      8 H                     0.114268
      9 H                     0.104875
     10 H                     0.103450
     11 C                    -0.117381
     12 C                    -0.222579
     13 C                     0.013624
     14 H                     0.190104
     15 C                    -0.242296
     16 S                     0.011222
     17 C                    -0.273092
     18 H                     0.102279
     19 H                     0.107622
     20 H                     0.108823
     21 H                     0.198556
     22 H                     0.110726
     23 H                     0.114120
     24 H                     0.161102
  ----------------------------------------
  Sum of atomic charges =     0.000000

                    Cartesian Multipole Moments
 -----------------------------------------------------------------
    Charge (ESU x 10^10)
                -0.0000
    Dipole Moment (Debye)
         X      -2.3411      Y       0.5173      Z       2.0046
       Tot       3.1252
    Quadrupole Moments (Debye-Ang)
        XX     -91.9374     XY       4.8139     YY     -73.5428
        XZ      -0.1259     YZ       0.4469     ZZ     -85.6973

 Total job time:  55.20s(wall), 1889.94s(cpu)
        *  Thank you very much for using Q-Chem.  Have a nice day.  *
