 Q-Chem 5.4, Q-Chem, Inc., Pleasanton, CA (2021)
 Q-Chem 5.4.0 for Intel X86 EM64T Linux

User input:
--------------------------------------------------------------
$molecule
0 1
C	0.466510	-3.887800	-0.554267
C	-0.424173	-3.701456	0.507121
C	-0.697244	-2.345170	0.831575
H	-0.877789	-4.545233	1.048337
C	0.000000	-1.450135	0.000000
S	0.982150	-2.321334	-1.169911
C	-1.627024	-1.934439	1.939374
H	-2.054010	-2.819799	2.448894
H	-2.475299	-1.326210	1.561545
H	-1.108051	-1.325374	2.708773
C	0.000000	0.000000	0.000000
C	0.354153	0.766774	1.113020
C	0.937751	2.029404	0.820578
H	0.191350	0.414475	2.142881
C	1.042030	2.254581	-0.563588
S	0.406851	0.881228	-1.464748
C	1.384426	2.995779	1.882380
H	1.196413	2.589194	2.894974
H	0.849641	3.965707	1.808137
H	2.469756	3.216753	1.808230
H	1.443919	3.124243	-1.097114
H	-0.005807	-4.420219	-1.387431
H	1.369415	-4.419395	-0.233510
H	-0.827337	-1.450628	-0.694200
$end

$rem
JOBTYPE		SP
EXCHANGE	HF
CORRELATION	pRIMP2
BASIS		cc-pvtz
METHOD		rimp2
AUX_BASIS	rimp2-cc-pvtz
SOLVENT_METHOD	PCM
PURECART	11111
SYMMETRY	false
MEM_TOTAL	110000
SCF_CONVERGENCE = 6
THRESH=10
GUI = 2
$end

$solvent
dielectric 4.90
$end
--------------------------------------------------------------

             Standard Nuclear Orientation (Angstroms)
    I     Atom           X                Y                Z
 ----------------------------------------------------------------
    1      C       0.4665100000    -3.8878000000    -0.5542670000
    2      C      -0.4241730000    -3.7014560000     0.5071210000
    3      C      -0.6972440000    -2.3451700000     0.8315750000
    4      H      -0.8777890000    -4.5452330000     1.0483370000
    5      C       0.0000000000    -1.4501350000     0.0000000000
    6      S       0.9821500000    -2.3213340000    -1.1699110000
    7      C      -1.6270240000    -1.9344390000     1.9393740000
    8      H      -2.0540100000    -2.8197990000     2.4488940000
    9      H      -2.4752990000    -1.3262100000     1.5615450000
   10      H      -1.1080510000    -1.3253740000     2.7087730000
   11      C       0.0000000000     0.0000000000     0.0000000000
   12      C       0.3541530000     0.7667740000     1.1130200000
   13      C       0.9377510000     2.0294040000     0.8205780000
   14      H       0.1913500000     0.4144750000     2.1428810000
   15      C       1.0420300000     2.2545810000    -0.5635880000
   16      S       0.4068510000     0.8812280000    -1.4647480000
   17      C       1.3844260000     2.9957790000     1.8823800000
   18      H       1.1964130000     2.5891940000     2.8949740000
   19      H       0.8496410000     3.9657070000     1.8081370000
   20      H       2.4697560000     3.2167530000     1.8082300000
   21      H       1.4439190000     3.1242430000    -1.0971140000
   22      H      -0.0058070000    -4.4202190000    -1.3874310000
   23      H       1.3694150000    -4.4193950000    -0.2335100000
   24      H      -0.8273370000    -1.4506280000    -0.6942000000
 ----------------------------------------------------------------

   10   -1180.7455294217      5.26e-07  Convergence criterion met
 Total energy in the final basis set =    -1180.7455294217
        RIMP2         total energy =     -1182.7534370839 a.u.

                    Orbital Energies (a.u.)
 --------------------------------------------------------------

 Alpha MOs
 -- Occupied --
-91.9846 -91.9433 -11.2793 -11.2644 -11.2634 -11.2556 -11.2508 -11.2414
-11.2373 -11.2326 -11.2288 -11.2194  -8.9844  -8.9479  -6.6653  -6.6648
 -6.6641  -6.6292  -6.6282  -6.6269  -1.1988  -1.1535  -1.0574  -1.0292
 -1.0004  -0.9635  -0.9129  -0.9007  -0.8150  -0.7586  -0.7394  -0.7036
 -0.6533  -0.6379  -0.6108  -0.5906  -0.5820  -0.5681  -0.5665  -0.5530
 -0.5440  -0.5322  -0.5157  -0.5051  -0.4893  -0.4778  -0.4661  -0.4468
 -0.3557  -0.3424  -0.3225  -0.2672

          Ground-State Mulliken Net Atomic Charges

     Atom                 Charge (a.u.)
  ----------------------------------------
      1 C                    -0.077125
      2 C                    -0.326225
      3 C                    -0.039303
      4 H                     0.176983
      5 C                     0.089160
      6 S                    -0.171252
      7 C                    -0.281435
      8 H                     0.115966
      9 H                     0.107593
     10 H                     0.103257
     11 C                    -0.096658
     12 C                    -0.213739
     13 C                     0.013447
     14 H                     0.192290
     15 C                    -0.231279
     16 S                    -0.000108
     17 C                    -0.272648
     18 H                     0.101274
     19 H                     0.107990
     20 H                     0.108225
     21 H                     0.198729
     22 H                     0.109673
     23 H                     0.113128
     24 H                     0.172056
  ----------------------------------------
  Sum of atomic charges =     0.000000

                    Cartesian Multipole Moments
 -----------------------------------------------------------------
    Charge (ESU x 10^10)
                -0.0000
    Dipole Moment (Debye)
         X      -1.3729      Y       0.3917      Z       2.7495
       Tot       3.0981
    Quadrupole Moments (Debye-Ang)
        XX     -90.1225     XY       7.5456     YY     -75.4003
        XZ       0.3272     YZ      -0.8935     ZZ     -85.4967

 Total job time:  59.30s(wall), 1910.64s(cpu)
        *  Thank you very much for using Q-Chem.  Have a nice day.  *
