 Q-Chem 5.4, Q-Chem, Inc., Pleasanton, CA (2021)
 Q-Chem 5.4.0 for Intel X86 EM64T Linux

User input:
--------------------------------------------------------------
$molecule
0 1
C	-0.466510	-3.887800	0.554267
C	0.424173	-3.701456	-0.507121
C	0.697244	-2.345170	-0.831575
H	0.877789	-4.545233	-1.048337
C	0.000000	-1.450135	0.000000
S	-0.982150	-2.321334	1.169911
C	1.627024	-1.934439	-1.939374
H	2.054010	-2.819799	-2.448894
H	2.475299	-1.326210	-1.561545
H	1.108051	-1.325374	-2.708773
C	0.000000	0.000000	0.000000
C	0.354153	0.766774	1.113020
C	0.937751	2.029404	0.820578
H	0.191350	0.414475	2.142881
C	1.042030	2.254581	-0.563588
S	0.406851	0.881228	-1.464748
C	1.384426	2.995779	1.882380
H	1.196413	2.589194	2.894974
H	0.849641	3.965707	1.808137
H	2.469756	3.216753	1.808230
H	1.443919	3.124243	-1.097114
H	0.005807	-4.420219	1.387431
H	-1.369415	-4.419395	0.233510
H	0.827337	-1.450628	0.694200
$end

$rem
JOBTYPE		SP
EXCHANGE	HF
CORRELATION	pRIMP2
BASIS		cc-pvtz
METHOD		rimp2
AUX_BASIS	rimp2-cc-pvtz
SOLVENT_METHOD	PCM
PURECART	11111
SYMMETRY	false
MEM_TOTAL	110000
SCF_CONVERGENCE = 6
THRESH=10
GUI = 2
$end

$solvent
dielectric 4.90
$end
--------------------------------------------------------------

             Standard Nuclear Orientation (Angstroms)
    I     Atom           X                Y                Z
 ----------------------------------------------------------------
    1      C      -0.4665100000    -3.8878000000     0.5542670000
    2      C       0.4241730000    -3.7014560000    -0.5071210000
    3      C       0.6972440000    -2.3451700000    -0.8315750000
    4      H       0.8777890000    -4.5452330000    -1.0483370000
    5      C       0.0000000000    -1.4501350000     0.0000000000
    6      S      -0.9821500000    -2.3213340000     1.1699110000
    7      C       1.6270240000    -1.9344390000    -1.9393740000
    8      H       2.0540100000    -2.8197990000    -2.4488940000
    9      H       2.4752990000    -1.3262100000    -1.5615450000
   10      H       1.1080510000    -1.3253740000    -2.7087730000
   11      C       0.0000000000     0.0000000000     0.0000000000
   12      C       0.3541530000     0.7667740000     1.1130200000
   13      C       0.9377510000     2.0294040000     0.8205780000
   14      H       0.1913500000     0.4144750000     2.1428810000
   15      C       1.0420300000     2.2545810000    -0.5635880000
   16      S       0.4068510000     0.8812280000    -1.4647480000
   17      C       1.3844260000     2.9957790000     1.8823800000
   18      H       1.1964130000     2.5891940000     2.8949740000
   19      H       0.8496410000     3.9657070000     1.8081370000
   20      H       2.4697560000     3.2167530000     1.8082300000
   21      H       1.4439190000     3.1242430000    -1.0971140000
   22      H       0.0058070000    -4.4202190000     1.3874310000
   23      H      -1.3694150000    -4.4193950000     0.2335100000
   24      H       0.8273370000    -1.4506280000     0.6942000000
 ----------------------------------------------------------------

   10   -1180.7431245452      5.48e-07  Convergence criterion met
 Total energy in the final basis set =    -1180.7431245452
        RIMP2         total energy =     -1182.7536820178 a.u.

                    Orbital Energies (a.u.)
 --------------------------------------------------------------

 Alpha MOs
 -- Occupied --
-91.9823 -91.9424 -11.2840 -11.2637 -11.2600 -11.2573 -11.2507 -11.2421
-11.2350 -11.2298 -11.2286 -11.2199  -8.9823  -8.9471  -6.6631  -6.6626
 -6.6621  -6.6285  -6.6275  -6.6262  -1.2006  -1.1526  -1.0584  -1.0253
 -1.0076  -0.9565  -0.9126  -0.9023  -0.8112  -0.7684  -0.7254  -0.7004
 -0.6621  -0.6430  -0.6105  -0.5851  -0.5811  -0.5741  -0.5683  -0.5530
 -0.5420  -0.5308  -0.5149  -0.5094  -0.4932  -0.4752  -0.4558  -0.4477
 -0.3558  -0.3424  -0.3213  -0.2659

          Ground-State Mulliken Net Atomic Charges

     Atom                 Charge (a.u.)
  ----------------------------------------
      1 C                    -0.071529
      2 C                    -0.324655
      3 C                    -0.030875
      4 H                     0.178623
      5 C                     0.053662
      6 S                    -0.181982
      7 C                    -0.286861
      8 H                     0.113458
      9 H                     0.113358
     10 H                     0.109805
     11 C                    -0.028642
     12 C                    -0.266130
     13 C                     0.028160
     14 H                     0.182717
     15 C                    -0.255970
     16 S                     0.012025
     17 C                    -0.270130
     18 H                     0.102800
     19 H                     0.108403
     20 H                     0.106959
     21 H                     0.196999
     22 H                     0.109731
     23 H                     0.112378
     24 H                     0.187697
  ----------------------------------------
  Sum of atomic charges =     0.000000

                    Cartesian Multipole Moments
 -----------------------------------------------------------------
    Charge (ESU x 10^10)
                -0.0000
    Dipole Moment (Debye)
         X       2.9548      Y       0.0870      Z      -0.0180
       Tot       2.9562
    Quadrupole Moments (Debye-Ang)
        XX     -90.1928     XY       0.4399     YY     -76.2222
        XZ       0.4349     YZ       2.9243     ZZ     -85.3444

 Total job time:  53.90s(wall), 1910.46s(cpu)
        *  Thank you very much for using Q-Chem.  Have a nice day.  *
