 Q-Chem 5.4, Q-Chem, Inc., Pleasanton, CA (2021)
 Q-Chem 5.4.0 for Intel X86 EM64T Linux

User input:
--------------------------------------------------------------
$molecule
0 1
C	-0.248806	-3.887800	0.680396
C	0.225147	-3.701456	-0.621614
C	0.370780	-2.345170	-1.019896
H	0.466300	-4.545233	-1.285337
C	0.000000	-1.450135	0.000000
S	-0.522786	-2.321334	1.435271
C	0.865597	-1.934439	-2.378891
H	1.092567	-2.819799	-3.003720
H	1.791940	-1.326210	-2.313975
H	0.114772	-1.325374	-2.924390
C	0.000000	0.000000	0.000000
C	-0.003081	0.844605	1.113020
C	-0.007772	2.235575	0.820578
H	-0.001743	0.456510	2.142881
C	-0.008427	2.483726	-0.563588
S	-0.003691	0.970607	-1.464748
C	-0.011355	3.300181	1.882380
H	-0.009922	2.852233	2.894974
H	-0.905944	3.953225	1.808137
H	0.878901	3.959133	1.808230
H	-0.011727	3.441752	-1.097114
H	0.479986	-4.420219	1.301772
H	-1.206964	-4.419395	0.687795
H	1.014873	-1.450628	0.369368
$end

$rem
JOBTYPE		SP
EXCHANGE	HF
CORRELATION	pRIMP2
BASIS		cc-pvtz
METHOD		rimp2
AUX_BASIS	rimp2-cc-pvtz
SOLVENT_METHOD	PCM
PURECART	11111
SYMMETRY	false
MEM_TOTAL	110000
SCF_CONVERGENCE = 6
THRESH=10
GUI = 2
$end

$solvent
dielectric 4.90
$end
--------------------------------------------------------------

             Standard Nuclear Orientation (Angstroms)
    I     Atom           X                Y                Z
 ----------------------------------------------------------------
    1      C      -0.2488060000    -3.8878000000     0.6803960000
    2      C       0.2251470000    -3.7014560000    -0.6216140000
    3      C       0.3707800000    -2.3451700000    -1.0198960000
    4      H       0.4663000000    -4.5452330000    -1.2853370000
    5      C       0.0000000000    -1.4501350000     0.0000000000
    6      S      -0.5227860000    -2.3213340000     1.4352710000
    7      C       0.8655970000    -1.9344390000    -2.3788910000
    8      H       1.0925670000    -2.8197990000    -3.0037200000
    9      H       1.7919400000    -1.3262100000    -2.3139750000
   10      H       0.1147720000    -1.3253740000    -2.9243900000
   11      C       0.0000000000     0.0000000000     0.0000000000
   12      C      -0.0030810000     0.8446050000     1.1130200000
   13      C      -0.0077720000     2.2355750000     0.8205780000
   14      H      -0.0017430000     0.4565100000     2.1428810000
   15      C      -0.0084270000     2.4837260000    -0.5635880000
   16      S      -0.0036910000     0.9706070000    -1.4647480000
   17      C      -0.0113550000     3.3001810000     1.8823800000
   18      H      -0.0099220000     2.8522330000     2.8949740000
   19      H      -0.9059440000     3.9532250000     1.8081370000
   20      H       0.8789010000     3.9591330000     1.8082300000
   21      H      -0.0117270000     3.4417520000    -1.0971140000
   22      H       0.4799860000    -4.4202190000     1.3017720000
   23      H      -1.2069640000    -4.4193950000     0.6877950000
   24      H       1.0148730000    -1.4506280000     0.3693680000
 ----------------------------------------------------------------

   10   -1180.7600284310      4.99e-07  Convergence criterion met
 Total energy in the final basis set =    -1180.7600284310
        RIMP2         total energy =     -1182.7654203954 a.u.

                    Orbital Energies (a.u.)
 --------------------------------------------------------------

 Alpha MOs
 -- Occupied --
-91.9823 -91.9469 -11.2905 -11.2655 -11.2617 -11.2538 -11.2503 -11.2445
-11.2328 -11.2306 -11.2278 -11.2227  -8.9822  -8.9514  -6.6631  -6.6626
 -6.6619  -6.6327  -6.6317  -6.6304  -1.2014  -1.1524  -1.0596  -1.0279
 -1.0074  -0.9562  -0.9160  -0.9017  -0.8148  -0.7708  -0.7188  -0.7028
 -0.6618  -0.6470  -0.6111  -0.5891  -0.5818  -0.5731  -0.5681  -0.5541
 -0.5419  -0.5333  -0.5153  -0.5084  -0.4905  -0.4853  -0.4577  -0.4479
 -0.3587  -0.3419  -0.3253  -0.2658

          Ground-State Mulliken Net Atomic Charges

     Atom                 Charge (a.u.)
  ----------------------------------------
      1 C                    -0.073545
      2 C                    -0.322199
      3 C                    -0.035550
      4 H                     0.179750
      5 C                     0.118818
      6 S                    -0.179490
      7 C                    -0.305284
      8 H                     0.119841
      9 H                     0.115118
     10 H                     0.110843
     11 C                    -0.026141
     12 C                    -0.308217
     13 C                     0.039139
     14 H                     0.177429
     15 C                    -0.274748
     16 S                     0.009502
     17 C                    -0.272713
     18 H                     0.102819
     19 H                     0.108650
     20 H                     0.107979
     21 H                     0.196078
     22 H                     0.110790
     23 H                     0.114217
     24 H                     0.186914
  ----------------------------------------
  Sum of atomic charges =     0.000000

                    Cartesian Multipole Moments
 -----------------------------------------------------------------
    Charge (ESU x 10^10)
                -0.0000
    Dipole Moment (Debye)
         X       1.6732      Y      -0.3949      Z      -0.6071
       Tot       1.8232
    Quadrupole Moments (Debye-Ang)
        XX     -91.9126     XY      -2.6761     YY     -73.2719
        XZ       0.0419     YZ       4.1866     ZZ     -85.4106

 Total job time:  53.39s(wall), 1792.55s(cpu)
        *  Thank you very much for using Q-Chem.  Have a nice day.  *
