 Q-Chem 5.4, Q-Chem, Inc., Pleasanton, CA (2021)
 Q-Chem 5.4.0 for Intel X86 EM64T Linux

User input:
--------------------------------------------------------------
$molecule
0 1
C	-0.363176	-3.887800	0.626855
C	0.329669	-3.701456	-0.573074
C	0.542250	-2.345170	-0.940016
H	0.682412	-4.545233	-1.184837
C	0.000000	-1.450135	0.000000
S	-0.764076	-2.321334	1.322686
C	1.265537	-1.934439	-2.192440
H	1.597559	-2.819799	-2.768365
H	2.166534	-1.326210	-1.967653
H	0.620843	-1.325374	-2.860032
C	0.000000	0.000000	0.000000
C	0.354153	0.766774	1.113020
C	0.937751	2.029404	0.820578
H	0.191350	0.414475	2.142881
C	1.042030	2.254581	-0.563588
S	0.406851	0.881228	-1.464748
C	1.384426	2.995779	1.882380
H	1.196413	2.589194	2.894974
H	0.849641	3.965707	1.808137
H	2.469756	3.216753	1.808230
H	1.443919	3.124243	-1.097114
H	0.246643	-4.420219	1.365344
H	-1.308062	-4.419395	0.467758
H	0.935314	-1.450628	0.539988
$end

$rem
JOBTYPE		SP
EXCHANGE	HF
CORRELATION	pRIMP2
BASIS		cc-pvtz
METHOD		rimp2
AUX_BASIS	rimp2-cc-pvtz
SOLVENT_METHOD	PCM
PURECART	11111
SYMMETRY	false
MEM_TOTAL	110000
SCF_CONVERGENCE = 6
THRESH=10
GUI = 2
$end

$solvent
dielectric 4.90
$end
--------------------------------------------------------------

             Standard Nuclear Orientation (Angstroms)
    I     Atom           X                Y                Z
 ----------------------------------------------------------------
    1      C      -0.3631760000    -3.8878000000     0.6268550000
    2      C       0.3296690000    -3.7014560000    -0.5730740000
    3      C       0.5422500000    -2.3451700000    -0.9400160000
    4      H       0.6824120000    -4.5452330000    -1.1848370000
    5      C       0.0000000000    -1.4501350000     0.0000000000
    6      S      -0.7640760000    -2.3213340000     1.3226860000
    7      C       1.2655370000    -1.9344390000    -2.1924400000
    8      H       1.5975590000    -2.8197990000    -2.7683650000
    9      H       2.1665340000    -1.3262100000    -1.9676530000
   10      H       0.6208430000    -1.3253740000    -2.8600320000
   11      C       0.0000000000     0.0000000000     0.0000000000
   12      C       0.3541530000     0.7667740000     1.1130200000
   13      C       0.9377510000     2.0294040000     0.8205780000
   14      H       0.1913500000     0.4144750000     2.1428810000
   15      C       1.0420300000     2.2545810000    -0.5635880000
   16      S       0.4068510000     0.8812280000    -1.4647480000
   17      C       1.3844260000     2.9957790000     1.8823800000
   18      H       1.1964130000     2.5891940000     2.8949740000
   19      H       0.8496410000     3.9657070000     1.8081370000
   20      H       2.4697560000     3.2167530000     1.8082300000
   21      H       1.4439190000     3.1242430000    -1.0971140000
   22      H       0.2466430000    -4.4202190000     1.3653440000
   23      H      -1.3080620000    -4.4193950000     0.4677580000
   24      H       0.9353140000    -1.4506280000     0.5399880000
 ----------------------------------------------------------------

   10   -1180.7429794125      5.24e-07  Convergence criterion met
 Total energy in the final basis set =    -1180.7429794125
        RIMP2         total energy =     -1182.7534890845 a.u.

                    Orbital Energies (a.u.)
 --------------------------------------------------------------

 Alpha MOs
 -- Occupied --
-91.9818 -91.9438 -11.2857 -11.2641 -11.2591 -11.2578 -11.2504 -11.2430
-11.2325 -11.2303 -11.2282 -11.2205  -8.9819  -8.9485  -6.6628  -6.6622
 -6.6616  -6.6299  -6.6288  -6.6276  -1.2014  -1.1523  -1.0589  -1.0263
 -1.0073  -0.9559  -0.9136  -0.9023  -0.8113  -0.7697  -0.7222  -0.7010
 -0.6625  -0.6445  -0.6108  -0.5857  -0.5815  -0.5738  -0.5684  -0.5534
 -0.5420  -0.5314  -0.5150  -0.5108  -0.4927  -0.4761  -0.4553  -0.4469
 -0.3566  -0.3414  -0.3234  -0.2645

          Ground-State Mulliken Net Atomic Charges

     Atom                 Charge (a.u.)
  ----------------------------------------
      1 C                    -0.072560
      2 C                    -0.322175
      3 C                    -0.034305
      4 H                     0.179076
      5 C                     0.059769
      6 S                    -0.182054
      7 C                    -0.292682
      8 H                     0.114260
      9 H                     0.114609
     10 H                     0.109060
     11 C                    -0.016568
     12 C                    -0.277629
     13 C                     0.031786
     14 H                     0.181008
     15 C                    -0.263422
     16 S                     0.011895
     17 C                    -0.270226
     18 H                     0.102854
     19 H                     0.108489
     20 H                     0.106961
     21 H                     0.197074
     22 H                     0.110279
     23 H                     0.113064
     24 H                     0.191439
  ----------------------------------------
  Sum of atomic charges =     0.000000

                    Cartesian Multipole Moments
 -----------------------------------------------------------------
    Charge (ESU x 10^10)
                -0.0000
    Dipole Moment (Debye)
         X       2.6589      Y      -0.1250      Z      -0.3996
       Tot       2.6917
    Quadrupole Moments (Debye-Ang)
        XX     -90.1232     XY       0.7584     YY     -76.0263
        XZ       0.4945     YZ       3.4240     ZZ     -85.3367

 Total job time:  59.89s(wall), 1939.80s(cpu)
        *  Thank you very much for using Q-Chem.  Have a nice day.  *
