 Q-Chem 5.4, Q-Chem, Inc., Pleasanton, CA (2021)
 Q-Chem 5.4.0 for Intel X86 EM64T Linux

User input:
--------------------------------------------------------------
$molecule
0 1
C	0.680396	-3.887800	0.248806
C	-0.621614	-3.701456	-0.225147
C	-1.019896	-2.345170	-0.370780
H	-1.285337	-4.545233	-0.466300
C	0.000000	-1.450135	0.000000
S	1.435271	-2.321334	0.522786
C	-2.378891	-1.934439	-0.865597
H	-3.003720	-2.819799	-1.092567
H	-2.313975	-1.326210	-1.791940
H	-2.924390	-1.325374	-0.114772
C	0.000000	0.000000	0.000000
C	0.419634	0.732990	1.113020
C	1.111057	1.939951	0.820578
H	0.226746	0.396221	2.142881
C	1.234565	2.155183	-0.563588
S	0.482106	0.842416	-1.464748
C	1.640257	2.863718	1.882380
H	1.417524	2.475067	2.894974
H	1.192042	3.876565	1.808137
H	2.740717	2.989259	1.808230
H	1.710720	2.986508	-1.097114
H	1.301772	-4.420219	-0.479986
H	0.687795	-4.419395	1.206964
H	0.369368	-1.450628	-1.014873
$end

$rem
JOBTYPE		SP
EXCHANGE	HF
CORRELATION	pRIMP2
BASIS		cc-pvtz
METHOD		rimp2
AUX_BASIS	rimp2-cc-pvtz
SOLVENT_METHOD	PCM
PURECART	11111
SYMMETRY	false
MEM_TOTAL	110000
SCF_CONVERGENCE = 6
THRESH=10
GUI = 2
$end

$solvent
dielectric 4.90
$end
--------------------------------------------------------------

             Standard Nuclear Orientation (Angstroms)
    I     Atom           X                Y                Z
 ----------------------------------------------------------------
    1      C       0.6803960000    -3.8878000000     0.2488060000
    2      C      -0.6216140000    -3.7014560000    -0.2251470000
    3      C      -1.0198960000    -2.3451700000    -0.3707800000
    4      H      -1.2853370000    -4.5452330000    -0.4663000000
    5      C       0.0000000000    -1.4501350000     0.0000000000
    6      S       1.4352710000    -2.3213340000     0.5227860000
    7      C      -2.3788910000    -1.9344390000    -0.8655970000
    8      H      -3.0037200000    -2.8197990000    -1.0925670000
    9      H      -2.3139750000    -1.3262100000    -1.7919400000
   10      H      -2.9243900000    -1.3253740000    -0.1147720000
   11      C       0.0000000000     0.0000000000     0.0000000000
   12      C       0.4196340000     0.7329900000     1.1130200000
   13      C       1.1110570000     1.9399510000     0.8205780000
   14      H       0.2267460000     0.3962210000     2.1428810000
   15      C       1.2345650000     2.1551830000    -0.5635880000
   16      S       0.4821060000     0.8424160000    -1.4647480000
   17      C       1.6402570000     2.8637180000     1.8823800000
   18      H       1.4175240000     2.4750670000     2.8949740000
   19      H       1.1920420000     3.8765650000     1.8081370000
   20      H       2.7407170000     2.9892590000     1.8082300000
   21      H       1.7107200000     2.9865080000    -1.0971140000
   22      H       1.3017720000    -4.4202190000    -0.4799860000
   23      H       0.6877950000    -4.4193950000     1.2069640000
   24      H       0.3693680000    -1.4506280000    -1.0148730000
 ----------------------------------------------------------------

   10   -1180.7443239487      5.41e-07  Convergence criterion met
 Total energy in the final basis set =    -1180.7443239487
        RIMP2         total energy =     -1182.7518908276 a.u.

                    Orbital Energies (a.u.)
 --------------------------------------------------------------

 Alpha MOs
 -- Occupied --
-91.9837 -91.9414 -11.2740 -11.2695 -11.2592 -11.2534 -11.2512 -11.2424
-11.2399 -11.2308 -11.2289 -11.2162  -8.9838  -8.9459  -6.6647  -6.6641
 -6.6635  -6.6272  -6.6262  -6.6249  -1.1984  -1.1537  -1.0575  -1.0252
 -1.0027  -0.9615  -0.9129  -0.9003  -0.8105  -0.7648  -0.7364  -0.7030
 -0.6526  -0.6334  -0.6117  -0.5879  -0.5770  -0.5740  -0.5678  -0.5521
 -0.5414  -0.5312  -0.5106  -0.5067  -0.4878  -0.4785  -0.4632  -0.4473
 -0.3559  -0.3407  -0.3164  -0.2762

          Ground-State Mulliken Net Atomic Charges

     Atom                 Charge (a.u.)
  ----------------------------------------
      1 C                    -0.073654
      2 C                    -0.329196
      3 C                    -0.041389
      4 H                     0.175087
      5 C                     0.080518
      6 S                    -0.176574
      7 C                    -0.271533
      8 H                     0.113176
      9 H                     0.100220
     10 H                     0.108015
     11 C                    -0.063729
     12 C                    -0.267966
     13 C                     0.051068
     14 H                     0.184631
     15 C                    -0.236703
     16 S                     0.010312
     17 C                    -0.269493
     18 H                     0.103147
     19 H                     0.107780
     20 H                     0.108051
     21 H                     0.199516
     22 H                     0.109248
     23 H                     0.109158
     24 H                     0.170311
  ----------------------------------------
  Sum of atomic charges =     0.000000

                    Cartesian Multipole Moments
 -----------------------------------------------------------------
    Charge (ESU x 10^10)
                -0.0000
    Dipole Moment (Debye)
         X      -0.9295      Y       0.7899      Z       0.0833
       Tot       1.2226
    Quadrupole Moments (Debye-Ang)
        XX     -88.7848     XY       7.7524     YY     -76.9302
        XZ       0.3628     YZ       3.4962     ZZ     -85.9192

 Total job time:  58.00s(wall), 2063.83s(cpu)
        *  Thank you very much for using Q-Chem.  Have a nice day.  *
