 Q-Chem 5.4, Q-Chem, Inc., Pleasanton, CA (2021)
 Q-Chem 5.4.0 for Intel X86 EM64T Linux

User input:
--------------------------------------------------------------
$molecule
0 1
C	-0.626855	-3.887800	-0.363176
C	0.573074	-3.701456	0.329669
C	0.940016	-2.345170	0.542250
H	1.184837	-4.545233	0.682412
C	0.000000	-1.450135	0.000000
S	-1.322686	-2.321334	-0.764076
C	2.192440	-1.934439	1.265537
H	2.768365	-2.819799	1.597559
H	1.967653	-1.326210	2.166534
H	2.860032	-1.325374	0.620843
C	0.000000	0.000000	0.000000
C	0.419634	0.732990	1.113020
C	1.111057	1.939951	0.820578
H	0.226746	0.396221	2.142881
C	1.234565	2.155183	-0.563588
S	0.482106	0.842416	-1.464748
C	1.640257	2.863718	1.882380
H	1.417524	2.475067	2.894974
H	1.192042	3.876565	1.808137
H	2.740717	2.989259	1.808230
H	1.710720	2.986508	-1.097114
H	-1.365344	-4.420219	0.246643
H	-0.467758	-4.419395	-1.308062
H	-0.539988	-1.450628	0.935314
$end

$rem
JOBTYPE		SP
EXCHANGE	HF
CORRELATION	pRIMP2
BASIS		cc-pvtz
METHOD		rimp2
AUX_BASIS	rimp2-cc-pvtz
SOLVENT_METHOD	PCM
PURECART	11111
SYMMETRY	false
MEM_TOTAL	110000
SCF_CONVERGENCE = 6
THRESH=10
GUI = 2
$end

$solvent
dielectric 4.90
$end
--------------------------------------------------------------

             Standard Nuclear Orientation (Angstroms)
    I     Atom           X                Y                Z
 ----------------------------------------------------------------
    1      C      -0.6268550000    -3.8878000000    -0.3631760000
    2      C       0.5730740000    -3.7014560000     0.3296690000
    3      C       0.9400160000    -2.3451700000     0.5422500000
    4      H       1.1848370000    -4.5452330000     0.6824120000
    5      C       0.0000000000    -1.4501350000     0.0000000000
    6      S      -1.3226860000    -2.3213340000    -0.7640760000
    7      C       2.1924400000    -1.9344390000     1.2655370000
    8      H       2.7683650000    -2.8197990000     1.5975590000
    9      H       1.9676530000    -1.3262100000     2.1665340000
   10      H       2.8600320000    -1.3253740000     0.6208430000
   11      C       0.0000000000     0.0000000000     0.0000000000
   12      C       0.4196340000     0.7329900000     1.1130200000
   13      C       1.1110570000     1.9399510000     0.8205780000
   14      H       0.2267460000     0.3962210000     2.1428810000
   15      C       1.2345650000     2.1551830000    -0.5635880000
   16      S       0.4821060000     0.8424160000    -1.4647480000
   17      C       1.6402570000     2.8637180000     1.8823800000
   18      H       1.4175240000     2.4750670000     2.8949740000
   19      H       1.1920420000     3.8765650000     1.8081370000
   20      H       2.7407170000     2.9892590000     1.8082300000
   21      H       1.7107200000     2.9865080000    -1.0971140000
   22      H      -1.3653440000    -4.4202190000     0.2466430000
   23      H      -0.4677580000    -4.4193950000    -1.3080620000
   24      H      -0.5399880000    -1.4506280000     0.9353140000
 ----------------------------------------------------------------

   10   -1180.7472592028      5.98e-07  Convergence criterion met
 Total energy in the final basis set =    -1180.7472592028
        RIMP2         total energy =     -1182.7575001640 a.u.

                    Orbital Energies (a.u.)
 --------------------------------------------------------------

 Alpha MOs
 -- Occupied --
-91.9795 -91.9396 -11.2751 -11.2702 -11.2622 -11.2553 -11.2521 -11.2469
-11.2402 -11.2307 -11.2304 -11.2189  -8.9797  -8.9443  -6.6606  -6.6599
 -6.6594  -6.6257  -6.6247  -6.6234  -1.1984  -1.1542  -1.0572  -1.0259
 -1.0041  -0.9620  -0.9115  -0.9017  -0.8130  -0.7592  -0.7351  -0.7062
 -0.6568  -0.6412  -0.6116  -0.5906  -0.5837  -0.5718  -0.5618  -0.5534
 -0.5407  -0.5293  -0.5191  -0.5071  -0.4870  -0.4728  -0.4604  -0.4465
 -0.3542  -0.3417  -0.3178  -0.2764

          Ground-State Mulliken Net Atomic Charges

     Atom                 Charge (a.u.)
  ----------------------------------------
      1 C                    -0.073471
      2 C                    -0.323830
      3 C                    -0.042114
      4 H                     0.177824
      5 C                     0.078263
      6 S                    -0.183587
      7 C                    -0.273789
      8 H                     0.117562
      9 H                     0.098219
     10 H                     0.114234
     11 C                    -0.056582
     12 C                    -0.275875
     13 C                     0.040245
     14 H                     0.191911
     15 C                    -0.231887
     16 S                     0.005682
     17 C                    -0.270335
     18 H                     0.102036
     19 H                     0.109390
     20 H                     0.107803
     21 H                     0.198697
     22 H                     0.108676
     23 H                     0.109663
     24 H                     0.171263
  ----------------------------------------
  Sum of atomic charges =     0.000000

                    Cartesian Multipole Moments
 -----------------------------------------------------------------
    Charge (ESU x 10^10)
                -0.0000
    Dipole Moment (Debye)
         X       2.7944      Y       0.6653      Z       3.5545
       Tot       4.5701
    Quadrupole Moments (Debye-Ang)
        XX     -88.8080     XY       2.2987     YY     -76.4564
        XZ       0.4863     YZ      -2.0828     ZZ     -86.2780

 Total job time:  61.43s(wall), 1929.62s(cpu)
        *  Thank you very much for using Q-Chem.  Have a nice day.  *
