 Q-Chem 5.4, Q-Chem, Inc., Pleasanton, CA (2021)
 Q-Chem 5.4.0 for Intel X86 EM64T Linux

User input:
--------------------------------------------------------------
$molecule
0 1
C	0.001092	-3.887800	-0.724460
C	0.001036	-3.701456	0.661131
C	0.000406	-2.345170	1.085203
H	0.001433	-4.545233	1.367305
C	0.000000	-1.450135	0.000000
S	0.000367	-2.321334	-1.527517
C	0.000233	-1.934439	2.531478
H	0.000656	-2.819799	3.196254
H	-0.892447	-1.326210	2.787305
H	0.892350	-1.325374	2.787282
C	0.000000	0.000000	0.000000
C	0.143630	0.832309	1.113020
C	0.380550	2.202961	0.820578
H	0.077556	0.449877	2.142881
C	0.422995	2.447456	-0.563588
S	0.164909	0.956502	-1.464748
C	0.561888	3.252016	1.882380
H	0.485513	2.810624	2.894974
H	-0.205711	4.050482	1.808137
H	1.553045	3.746365	1.808230
H	0.586105	3.391501	-1.097114
H	-0.896272	-4.420219	-1.059101
H	0.898936	-4.419395	-1.059122
H	-1.080000	-1.450628	0.000014
$end

$rem
JOBTYPE		SP
EXCHANGE	HF
CORRELATION	pRIMP2
BASIS		cc-pvtz
METHOD		rimp2
AUX_BASIS	rimp2-cc-pvtz
SOLVENT_METHOD	PCM
PURECART	11111
SYMMETRY	false
MEM_TOTAL	110000
SCF_CONVERGENCE = 6
THRESH=10
GUI = 2
$end

$solvent
dielectric 4.90
$end
--------------------------------------------------------------

             Standard Nuclear Orientation (Angstroms)
    I     Atom           X                Y                Z
 ----------------------------------------------------------------
    1      C       0.0010920000    -3.8878000000    -0.7244600000
    2      C       0.0010360000    -3.7014560000     0.6611310000
    3      C       0.0004060000    -2.3451700000     1.0852030000
    4      H       0.0014330000    -4.5452330000     1.3673050000
    5      C       0.0000000000    -1.4501350000     0.0000000000
    6      S       0.0003670000    -2.3213340000    -1.5275170000
    7      C       0.0002330000    -1.9344390000     2.5314780000
    8      H       0.0006560000    -2.8197990000     3.1962540000
    9      H      -0.8924470000    -1.3262100000     2.7873050000
   10      H       0.8923500000    -1.3253740000     2.7872820000
   11      C       0.0000000000     0.0000000000     0.0000000000
   12      C       0.1436300000     0.8323090000     1.1130200000
   13      C       0.3805500000     2.2029610000     0.8205780000
   14      H       0.0775560000     0.4498770000     2.1428810000
   15      C       0.4229950000     2.4474560000    -0.5635880000
   16      S       0.1649090000     0.9565020000    -1.4647480000
   17      C       0.5618880000     3.2520160000     1.8823800000
   18      H       0.4855130000     2.8106240000     2.8949740000
   19      H      -0.2057110000     4.0504820000     1.8081370000
   20      H       1.5530450000     3.7463650000     1.8082300000
   21      H       0.5861050000     3.3915010000    -1.0971140000
   22      H      -0.8962720000    -4.4202190000    -1.0591010000
   23      H       0.8989360000    -4.4193950000    -1.0591220000
   24      H      -1.0800000000    -1.4506280000     0.0000140000
 ----------------------------------------------------------------

   10   -1180.7535175552      5.06e-07  Convergence criterion met
 Total energy in the final basis set =    -1180.7535175552
        RIMP2         total energy =     -1182.7599915615 a.u.

                    Orbital Energies (a.u.)
 --------------------------------------------------------------

 Alpha MOs
 -- Occupied --
-91.9842 -91.9469 -11.2896 -11.2667 -11.2620 -11.2541 -11.2498 -11.2452
-11.2343 -11.2281 -11.2276 -11.2237  -8.9837  -8.9515  -6.6647  -6.6642
 -6.6635  -6.6329  -6.6319  -6.6306  -1.2017  -1.1523  -1.0594  -1.0321
 -1.0013  -0.9615  -0.9170  -0.8997  -0.8177  -0.7625  -0.7281  -0.7071
 -0.6564  -0.6484  -0.6107  -0.5948  -0.5860  -0.5686  -0.5609  -0.5501
 -0.5459  -0.5354  -0.5246  -0.5000  -0.4867  -0.4817  -0.4686  -0.4442
 -0.3613  -0.3435  -0.3245  -0.2637

          Ground-State Mulliken Net Atomic Charges

     Atom                 Charge (a.u.)
  ----------------------------------------
      1 C                    -0.072168
      2 C                    -0.313312
      3 C                    -0.056972
      4 H                     0.180337
      5 C                     0.137968
      6 S                    -0.179814
      7 C                    -0.303383
      8 H                     0.123932
      9 H                     0.105341
     10 H                     0.109665
     11 C                    -0.057102
     12 C                    -0.274868
     13 C                     0.037929
     14 H                     0.190208
     15 C                    -0.283244
     16 S                     0.005883
     17 C                    -0.272684
     18 H                     0.100236
     19 H                     0.108341
     20 H                     0.108612
     21 H                     0.197184
     22 H                     0.111382
     23 H                     0.113940
     24 H                     0.182588
  ----------------------------------------
  Sum of atomic charges =     0.000000

                    Cartesian Multipole Moments
 -----------------------------------------------------------------
    Charge (ESU x 10^10)
                -0.0000
    Dipole Moment (Debye)
         X      -0.6563      Y      -0.4799      Z       3.7981
       Tot       3.8841
    Quadrupole Moments (Debye-Ang)
        XX     -91.5162     XY       3.1571     YY     -73.1583
        XZ       0.4754     YZ      -2.3939     ZZ     -85.6468

 Total job time:  53.29s(wall), 1898.39s(cpu)
        *  Thank you very much for using Q-Chem.  Have a nice day.  *
