 Q-Chem 5.4, Q-Chem, Inc., Pleasanton, CA (2021)
 Q-Chem 5.4.0 for Intel X86 EM64T Linux

User input:
--------------------------------------------------------------
$molecule
0 1
C	-0.361285	-3.887800	-0.627947
C	0.331462	-3.701456	0.572038
C	0.542953	-2.345170	0.939610
H	0.684893	-4.545233	1.183405
C	-0.000000	-1.450135	-0.000000
S	-0.763441	-2.321334	-1.323052
C	1.265941	-1.934439	2.192207
H	1.598695	-2.819799	2.767709
H	0.620770	-1.326210	2.860100
H	2.166438	-1.325374	1.967682
C	0.000000	0.000000	0.000000
C	0.215623	0.816623	1.113020
C	0.571102	2.161411	0.820578
H	0.116470	0.441406	2.142881
C	0.634696	2.401276	-0.563588
S	0.247646	0.938489	-1.464748
C	0.843182	3.190669	1.882380
H	0.728628	2.757614	2.894974
H	0.148095	4.052998	1.808137
H	1.873652	3.596752	1.808230
H	0.879464	3.327513	-1.097114
H	-1.305744	-4.420219	-0.469073
H	0.248940	-4.419395	-1.366694
H	-0.935300	-1.450628	0.540012
$end

$rem
JOBTYPE		SP
EXCHANGE	HF
CORRELATION	pRIMP2
BASIS		cc-pvtz
METHOD		rimp2
AUX_BASIS	rimp2-cc-pvtz
SOLVENT_METHOD	PCM
PURECART	11111
SYMMETRY	false
MEM_TOTAL	110000
SCF_CONVERGENCE = 6
THRESH=10
GUI = 2
$end

$solvent
dielectric 4.90
$end
--------------------------------------------------------------

             Standard Nuclear Orientation (Angstroms)
    I     Atom           X                Y                Z
 ----------------------------------------------------------------
    1      C      -0.3612850000    -3.8878000000    -0.6279470000
    2      C       0.3314620000    -3.7014560000     0.5720380000
    3      C       0.5429530000    -2.3451700000     0.9396100000
    4      H       0.6848930000    -4.5452330000     1.1834050000
    5      C       0.0000000000    -1.4501350000     0.0000000000
    6      S      -0.7634410000    -2.3213340000    -1.3230520000
    7      C       1.2659410000    -1.9344390000     2.1922070000
    8      H       1.5986950000    -2.8197990000     2.7677090000
    9      H       0.6207700000    -1.3262100000     2.8601000000
   10      H       2.1664380000    -1.3253740000     1.9676820000
   11      C       0.0000000000     0.0000000000     0.0000000000
   12      C       0.2156230000     0.8166230000     1.1130200000
   13      C       0.5711020000     2.1614110000     0.8205780000
   14      H       0.1164700000     0.4414060000     2.1428810000
   15      C       0.6346960000     2.4012760000    -0.5635880000
   16      S       0.2476460000     0.9384890000    -1.4647480000
   17      C       0.8431820000     3.1906690000     1.8823800000
   18      H       0.7286280000     2.7576140000     2.8949740000
   19      H       0.1480950000     4.0529980000     1.8081370000
   20      H       1.8736520000     3.5967520000     1.8082300000
   21      H       0.8794640000     3.3275130000    -1.0971140000
   22      H      -1.3057440000    -4.4202190000    -0.4690730000
   23      H       0.2489400000    -4.4193950000    -1.3666940000
   24      H      -0.9353000000    -1.4506280000     0.5400120000
 ----------------------------------------------------------------

   10   -1180.7533148780      5.06e-07  Convergence criterion met
 Total energy in the final basis set =    -1180.7533148780
        RIMP2         total energy =     -1182.7610378741 a.u.

                    Orbital Energies (a.u.)
 --------------------------------------------------------------

 Alpha MOs
 -- Occupied --
-91.9826 -91.9451 -11.2859 -11.2653 -11.2595 -11.2582 -11.2507 -11.2437
-11.2339 -11.2328 -11.2289 -11.2219  -8.9822  -8.9496  -6.6632  -6.6626
 -6.6620  -6.6310  -6.6300  -6.6287  -1.2002  -1.1528  -1.0585  -1.0298
 -1.0024  -0.9615  -0.9147  -0.9004  -0.8165  -0.7614  -0.7276  -0.7083
 -0.6573  -0.6465  -0.6112  -0.5925  -0.5874  -0.5700  -0.5591  -0.5531
 -0.5419  -0.5334  -0.5213  -0.5041  -0.4837  -0.4816  -0.4653  -0.4460
 -0.3584  -0.3425  -0.3230  -0.2674

          Ground-State Mulliken Net Atomic Charges

     Atom                 Charge (a.u.)
  ----------------------------------------
      1 C                    -0.073913
      2 C                    -0.317813
      3 C                    -0.066471
      4 H                     0.179212
      5 C                     0.130357
      6 S                    -0.178363
      7 C                    -0.291249
      8 H                     0.120449
      9 H                     0.097207
     10 H                     0.117831
     11 C                    -0.049692
     12 C                    -0.297716
     13 C                     0.045234
     14 H                     0.190514
     15 C                    -0.267524
     16 S                     0.014093
     17 C                    -0.272823
     18 H                     0.101074
     19 H                     0.108748
     20 H                     0.108557
     21 H                     0.195723
     22 H                     0.111923
     23 H                     0.112046
     24 H                     0.182594
  ----------------------------------------
  Sum of atomic charges =     0.000000

                    Cartesian Multipole Moments
 -----------------------------------------------------------------
    Charge (ESU x 10^10)
                -0.0000
    Dipole Moment (Debye)
         X       0.8781      Y      -0.0961      Z       3.9798
       Tot       4.0767
    Quadrupole Moments (Debye-Ang)
        XX     -90.7671     XY       2.0638     YY     -73.9902
        XZ       0.6320     YZ      -2.6328     ZZ     -86.1343

 Total job time:  59.59s(wall), 2007.33s(cpu)
        *  Thank you very much for using Q-Chem.  Have a nice day.  *
