 Q-Chem 5.4, Q-Chem, Inc., Pleasanton, CA (2021)
 Q-Chem 5.4.0 for Intel X86 EM64T Linux

User input:
--------------------------------------------------------------
$molecule
0 1
C	-0.466510	-3.887800	0.554267
C	0.424173	-3.701456	-0.507121
C	0.697244	-2.345170	-0.831575
H	0.877789	-4.545233	-1.048337
C	0.000000	-1.450135	0.000000
S	-0.982150	-2.321334	1.169911
C	1.627024	-1.934439	-1.939374
H	2.054010	-2.819799	-2.448894
H	2.475299	-1.326210	-1.561545
H	1.108051	-1.325374	-2.708773
C	0.000000	0.000000	0.000000
C	0.285976	0.794723	1.113020
C	0.757308	2.103412	0.820578
H	0.154498	0.429575	2.142881
C	0.841565	2.336821	-0.563588
S	0.328498	0.913334	-1.464748
C	1.118059	3.105040	1.882380
H	0.966197	2.683616	2.894974
H	0.500773	4.024668	1.808137
H	2.180000	3.419766	1.808230
H	1.166129	3.238200	-1.097114
H	0.005807	-4.420219	1.387431
H	-1.369415	-4.419395	0.233510
H	0.827337	-1.450628	0.694200
$end

$rem
JOBTYPE		SP
EXCHANGE	HF
CORRELATION	pRIMP2
BASIS		cc-pvtz
METHOD		rimp2
AUX_BASIS	rimp2-cc-pvtz
SOLVENT_METHOD	PCM
PURECART	11111
SYMMETRY	false
MEM_TOTAL	110000
SCF_CONVERGENCE = 6
THRESH=10
GUI = 2
$end

$solvent
dielectric 4.90
$end
--------------------------------------------------------------

             Standard Nuclear Orientation (Angstroms)
    I     Atom           X                Y                Z
 ----------------------------------------------------------------
    1      C      -0.4665100000    -3.8878000000     0.5542670000
    2      C       0.4241730000    -3.7014560000    -0.5071210000
    3      C       0.6972440000    -2.3451700000    -0.8315750000
    4      H       0.8777890000    -4.5452330000    -1.0483370000
    5      C       0.0000000000    -1.4501350000     0.0000000000
    6      S      -0.9821500000    -2.3213340000     1.1699110000
    7      C       1.6270240000    -1.9344390000    -1.9393740000
    8      H       2.0540100000    -2.8197990000    -2.4488940000
    9      H       2.4752990000    -1.3262100000    -1.5615450000
   10      H       1.1080510000    -1.3253740000    -2.7087730000
   11      C       0.0000000000     0.0000000000     0.0000000000
   12      C       0.2859760000     0.7947230000     1.1130200000
   13      C       0.7573080000     2.1034120000     0.8205780000
   14      H       0.1544980000     0.4295750000     2.1428810000
   15      C       0.8415650000     2.3368210000    -0.5635880000
   16      S       0.3284980000     0.9133340000    -1.4647480000
   17      C       1.1180590000     3.1050400000     1.8823800000
   18      H       0.9661970000     2.6836160000     2.8949740000
   19      H       0.5007730000     4.0246680000     1.8081370000
   20      H       2.1800000000     3.4197660000     1.8082300000
   21      H       1.1661290000     3.2382000000    -1.0971140000
   22      H       0.0058070000    -4.4202190000     1.3874310000
   23      H      -1.3694150000    -4.4193950000     0.2335100000
   24      H       0.8273370000    -1.4506280000     0.6942000000
 ----------------------------------------------------------------

   10   -1180.7495844603      5.13e-07  Convergence criterion met
 Total energy in the final basis set =    -1180.7495844603
        RIMP2         total energy =     -1182.7582450543 a.u.

                    Orbital Energies (a.u.)
 --------------------------------------------------------------

 Alpha MOs
 -- Occupied --
-91.9825 -91.9431 -11.2856 -11.2640 -11.2588 -11.2581 -11.2506 -11.2425
-11.2344 -11.2304 -11.2285 -11.2205  -8.9824  -8.9478  -6.6633  -6.6627
 -6.6622  -6.6292  -6.6282  -6.6269  -1.2003  -1.1526  -1.0585  -1.0256
 -1.0076  -0.9566  -0.9131  -0.9020  -0.8122  -0.7684  -0.7249  -0.7006
 -0.6622  -0.6434  -0.6106  -0.5856  -0.5808  -0.5739  -0.5682  -0.5529
 -0.5420  -0.5313  -0.5146  -0.5086  -0.4932  -0.4777  -0.4565  -0.4484
 -0.3562  -0.3426  -0.3214  -0.2668

          Ground-State Mulliken Net Atomic Charges

     Atom                 Charge (a.u.)
  ----------------------------------------
      1 C                    -0.072442
      2 C                    -0.323971
      3 C                    -0.028789
      4 H                     0.178622
      5 C                     0.057286
      6 S                    -0.179204
      7 C                    -0.288404
      8 H                     0.114374
      9 H                     0.113264
     10 H                     0.109816
     11 C                    -0.026491
     12 C                    -0.271634
     13 C                     0.029593
     14 H                     0.182327
     15 C                    -0.258478
     16 S                     0.010221
     17 C                    -0.270483
     18 H                     0.102733
     19 H                     0.108476
     20 H                     0.107278
     21 H                     0.196761
     22 H                     0.110023
     23 H                     0.112832
     24 H                     0.186290
  ----------------------------------------
  Sum of atomic charges =     0.000000

                    Cartesian Multipole Moments
 -----------------------------------------------------------------
    Charge (ESU x 10^10)
                -0.0000
    Dipole Moment (Debye)
         X       2.7894      Y       0.0322      Z       0.0114
       Tot       2.7896
    Quadrupole Moments (Debye-Ang)
        XX     -90.8132     XY      -0.2284     YY     -75.3558
        XZ       0.3397     YZ       2.9903     ZZ     -85.4046

 Total job time:  56.97s(wall), 1999.42s(cpu)
        *  Thank you very much for using Q-Chem.  Have a nice day.  *
