 Q-Chem 5.4, Q-Chem, Inc., Pleasanton, CA (2021)
 Q-Chem 5.4.0 for Intel X86 EM64T Linux

User input:
--------------------------------------------------------------
$molecule
0 1
C	0.124726	-3.887800	0.713644
C	-0.115824	-3.701456	-0.650907
C	-0.188844	-2.345170	-1.068646
H	-0.238841	-4.545233	-1.346284
C	0.000000	-1.450135	0.000000
S	0.264890	-2.321334	1.504375
C	-0.439816	-1.934439	-2.492978
H	-0.555669	-2.819799	-3.147582
H	0.394879	-1.326210	-2.899931
H	-1.362799	-1.325374	-2.589982
C	0.000000	0.000000	0.000000
C	0.354153	0.766774	1.113020
C	0.937751	2.029404	0.820578
H	0.191350	0.414475	2.142881
C	1.042030	2.254581	-0.563588
S	0.406851	0.881228	-1.464748
C	1.384426	2.995779	1.882380
H	1.196413	2.589194	2.894974
H	0.849641	3.965707	1.808137
H	2.469756	3.216753	1.808230
H	1.443919	3.124243	-1.097114
H	1.066566	-4.420219	0.887375
H	-0.701364	-4.419395	1.199130
H	1.063590	-1.450628	-0.187554
$end

$rem
JOBTYPE		SP
EXCHANGE	HF
CORRELATION	pRIMP2
BASIS		cc-pvtz
METHOD		rimp2
AUX_BASIS	rimp2-cc-pvtz
SOLVENT_METHOD	PCM
PURECART	11111
SYMMETRY	false
MEM_TOTAL	110000
SCF_CONVERGENCE = 6
THRESH=10
GUI = 2
$end

$solvent
dielectric 4.90
$end
--------------------------------------------------------------

             Standard Nuclear Orientation (Angstroms)
    I     Atom           X                Y                Z
 ----------------------------------------------------------------
    1      C       0.1247260000    -3.8878000000     0.7136440000
    2      C      -0.1158240000    -3.7014560000    -0.6509070000
    3      C      -0.1888440000    -2.3451700000    -1.0686460000
    4      H      -0.2388410000    -4.5452330000    -1.3462840000
    5      C       0.0000000000    -1.4501350000     0.0000000000
    6      S       0.2648900000    -2.3213340000     1.5043750000
    7      C      -0.4398160000    -1.9344390000    -2.4929780000
    8      H      -0.5556690000    -2.8197990000    -3.1475820000
    9      H       0.3948790000    -1.3262100000    -2.8999310000
   10      H      -1.3627990000    -1.3253740000    -2.5899820000
   11      C       0.0000000000     0.0000000000     0.0000000000
   12      C       0.3541530000     0.7667740000     1.1130200000
   13      C       0.9377510000     2.0294040000     0.8205780000
   14      H       0.1913500000     0.4144750000     2.1428810000
   15      C       1.0420300000     2.2545810000    -0.5635880000
   16      S       0.4068510000     0.8812280000    -1.4647480000
   17      C       1.3844260000     2.9957790000     1.8823800000
   18      H       1.1964130000     2.5891940000     2.8949740000
   19      H       0.8496410000     3.9657070000     1.8081370000
   20      H       2.4697560000     3.2167530000     1.8082300000
   21      H       1.4439190000     3.1242430000    -1.0971140000
   22      H       1.0665660000    -4.4202190000     0.8873750000
   23      H      -0.7013640000    -4.4193950000     1.1991300000
   24      H       1.0635900000    -1.4506280000    -0.1875540000
 ----------------------------------------------------------------

   10   -1180.7509442958      4.84e-07  Convergence criterion met
 Total energy in the final basis set =    -1180.7509442958
        RIMP2         total energy =     -1182.7587420034 a.u.

                    Orbital Energies (a.u.)
 --------------------------------------------------------------

 Alpha MOs
 -- Occupied --
-91.9803 -91.9466 -11.2880 -11.2638 -11.2625 -11.2571 -11.2505 -11.2440
-11.2321 -11.2321 -11.2279 -11.2226  -8.9807  -8.9510  -6.6616  -6.6610
 -6.6603  -6.6324  -6.6314  -6.6301  -1.2030  -1.1528  -1.0602  -1.0280
 -1.0063  -0.9564  -0.9161  -0.9021  -0.8128  -0.7720  -0.7182  -0.7039
 -0.6593  -0.6480  -0.6120  -0.5913  -0.5816  -0.5723  -0.5691  -0.5532
 -0.5422  -0.5340  -0.5156  -0.5106  -0.4896  -0.4814  -0.4579  -0.4445
 -0.3590  -0.3421  -0.3275  -0.2652

          Ground-State Mulliken Net Atomic Charges

     Atom                 Charge (a.u.)
  ----------------------------------------
      1 C                    -0.074252
      2 C                    -0.314191
      3 C                    -0.057890
      4 H                     0.178813
      5 C                     0.118488
      6 S                    -0.188600
      7 C                    -0.307557
      8 H                     0.120107
      9 H                     0.108659
     10 H                     0.119309
     11 C                     0.016897
     12 C                    -0.344456
     13 C                     0.060696
     14 H                     0.176617
     15 C                    -0.280360
     16 S                     0.006463
     17 C                    -0.269814
     18 H                     0.103052
     19 H                     0.108545
     20 H                     0.108630
     21 H                     0.196500
     22 H                     0.112014
     23 H                     0.112323
     24 H                     0.190008
  ----------------------------------------
  Sum of atomic charges =     0.000000

                    Cartesian Multipole Moments
 -----------------------------------------------------------------
    Charge (ESU x 10^10)
                -0.0000
    Dipole Moment (Debye)
         X       1.0394      Y      -0.4012      Z      -1.1066
       Tot       1.5703
    Quadrupole Moments (Debye-Ang)
        XX     -89.8735     XY       3.0076     YY     -74.8197
        XZ       0.8911     YZ       4.9993     ZZ     -85.6580

 Total job time:  72.34s(wall), 3078.70s(cpu)
        *  Thank you very much for using Q-Chem.  Have a nice day.  *
