 Q-Chem 5.4, Q-Chem, Inc., Pleasanton, CA (2021)
 Q-Chem 5.4.0 for Intel X86 EM64T Linux

User input:
--------------------------------------------------------------
$molecule
0 1
C	-0.681143	-3.887800	0.246754
C	0.620906	-3.701456	-0.227093
C	1.019618	-2.345170	-0.371543
H	1.284357	-4.545233	-0.468992
C	-0.000000	-1.450135	-0.000000
S	-1.435522	-2.321334	0.522097
C	2.378731	-1.934439	-0.866035
H	3.003272	-2.819799	-1.093799
H	2.924444	-1.326210	-0.114688
H	2.313987	-1.325374	-1.791841
C	0.000000	0.000000	0.000000
C	0.540541	0.648986	1.113020
C	1.431046	1.717546	0.820578
H	0.292104	0.350827	2.142881
C	1.590053	1.908061	-0.563588
S	0.621066	0.745901	-1.464748
C	2.112618	2.535384	1.882380
H	1.825779	2.191315	2.894974
H	1.847090	3.610676	1.808137
H	3.218159	2.467925	1.808230
H	2.203332	2.644073	-1.097114
H	-0.688686	-4.420219	1.204454
H	-1.302703	-4.419395	-0.482482
H	0.369395	-1.450628	1.014863
$end

$rem
JOBTYPE		SP
EXCHANGE	HF
CORRELATION	pRIMP2
BASIS		cc-pvtz
METHOD		rimp2
AUX_BASIS	rimp2-cc-pvtz
SOLVENT_METHOD	PCM
PURECART	11111
SYMMETRY	false
MEM_TOTAL	110000
SCF_CONVERGENCE = 6
THRESH=10
GUI = 2
$end

$solvent
dielectric 4.90
$end
--------------------------------------------------------------

             Standard Nuclear Orientation (Angstroms)
    I     Atom           X                Y                Z
 ----------------------------------------------------------------
    1      C      -0.6811430000    -3.8878000000     0.2467540000
    2      C       0.6209060000    -3.7014560000    -0.2270930000
    3      C       1.0196180000    -2.3451700000    -0.3715430000
    4      H       1.2843570000    -4.5452330000    -0.4689920000
    5      C       0.0000000000    -1.4501350000     0.0000000000
    6      S      -1.4355220000    -2.3213340000     0.5220970000
    7      C       2.3787310000    -1.9344390000    -0.8660350000
    8      H       3.0032720000    -2.8197990000    -1.0937990000
    9      H       2.9244440000    -1.3262100000    -0.1146880000
   10      H       2.3139870000    -1.3253740000    -1.7918410000
   11      C       0.0000000000     0.0000000000     0.0000000000
   12      C       0.5405410000     0.6489860000     1.1130200000
   13      C       1.4310460000     1.7175460000     0.8205780000
   14      H       0.2921040000     0.3508270000     2.1428810000
   15      C       1.5900530000     1.9080610000    -0.5635880000
   16      S       0.6210660000     0.7459010000    -1.4647480000
   17      C       2.1126180000     2.5353840000     1.8823800000
   18      H       1.8257790000     2.1913150000     2.8949740000
   19      H       1.8470900000     3.6106760000     1.8081370000
   20      H       3.2181590000     2.4679250000     1.8082300000
   21      H       2.2033320000     2.6440730000    -1.0971140000
   22      H      -0.6886860000    -4.4202190000     1.2044540000
   23      H      -1.3027030000    -4.4193950000    -0.4824820000
   24      H       0.3693950000    -1.4506280000     1.0148630000
 ----------------------------------------------------------------

   10   -1180.7246680419      7.60e-07  Convergence criterion met
 Total energy in the final basis set =    -1180.7246680419
        RIMP2         total energy =     -1182.7403862161 a.u.

                    Orbital Energies (a.u.)
 --------------------------------------------------------------

 Alpha MOs
 -- Occupied --
-91.9814 -91.9354 -11.2737 -11.2711 -11.2610 -11.2525 -11.2514 -11.2489
-11.2381 -11.2307 -11.2275 -11.2165  -8.9817  -8.9403  -6.6625  -6.6619
 -6.6615  -6.6217  -6.6207  -6.6194  -1.2002  -1.1537  -1.0575  -1.0220
 -1.0086  -0.9592  -0.9097  -0.9028  -0.8087  -0.7632  -0.7377  -0.7004
 -0.6594  -0.6382  -0.6105  -0.5883  -0.5802  -0.5739  -0.5665  -0.5513
 -0.5418  -0.5270  -0.5193  -0.5040  -0.4939  -0.4655  -0.4585  -0.4444
 -0.3520  -0.3442  -0.3170  -0.2702

          Ground-State Mulliken Net Atomic Charges

     Atom                 Charge (a.u.)
  ----------------------------------------
      1 C                    -0.071770
      2 C                    -0.333740
      3 C                    -0.030800
      4 H                     0.176649
      5 C                     0.072703
      6 S                    -0.203269
      7 C                    -0.285831
      8 H                     0.117344
      9 H                     0.106872
     10 H                     0.114698
     11 C                    -0.078495
     12 C                    -0.215851
     13 C                     0.016567
     14 H                     0.181891
     15 C                    -0.218186
     16 S                     0.011456
     17 C                    -0.268739
     18 H                     0.102781
     19 H                     0.108511
     20 H                     0.106370
     21 H                     0.198463
     22 H                     0.107307
     23 H                     0.108601
     24 H                     0.176469
  ----------------------------------------
  Sum of atomic charges =     0.000000

                    Cartesian Multipole Moments
 -----------------------------------------------------------------
    Charge (ESU x 10^10)
                -0.0000
    Dipole Moment (Debye)
         X       4.1641      Y       0.8718      Z       1.3930
       Tot       4.4766
    Quadrupole Moments (Debye-Ang)
        XX     -87.6886     XY       1.3917     YY     -79.5350
        XZ       0.3915     YZ       1.0282     ZZ     -85.3026

 Total job time:  71.30s(wall), 2802.61s(cpu)
        *  Thank you very much for using Q-Chem.  Have a nice day.  *
