 Q-Chem 5.4, Q-Chem, Inc., Pleasanton, CA (2021)
 Q-Chem 5.4.0 for Intel X86 EM64T Linux

User input:
--------------------------------------------------------------
$molecule
0 1
C	-0.680396	-3.887800	-0.248806
C	0.621614	-3.701456	0.225147
C	1.019896	-2.345170	0.370780
H	1.285337	-4.545233	0.466300
C	0.000000	-1.450135	0.000000
S	-1.435271	-2.321334	-0.522786
C	2.378891	-1.934439	0.865597
H	3.003720	-2.819799	1.092567
H	2.313975	-1.326210	1.791940
H	2.924390	-1.325374	0.114772
C	0.000000	0.000000	0.000000
C	0.645024	0.545262	1.113020
C	1.707554	1.442954	0.820578
H	0.348587	0.294774	2.142881
C	1.897227	1.602964	-0.563588
S	0.741155	0.626722	-1.464748
C	2.520787	2.130014	1.882380
H	2.178559	1.840981	2.894974
H	2.446016	3.235078	1.808137
H	3.597818	1.871604	1.808230
H	2.628997	2.221299	-1.097114
H	-1.301772	-4.420219	0.479986
H	-0.687795	-4.419395	-1.206964
H	-0.369368	-1.450628	1.014873
$end

$rem
JOBTYPE		SP
EXCHANGE	HF
CORRELATION	pRIMP2
BASIS		cc-pvtz
METHOD		rimp2
AUX_BASIS	rimp2-cc-pvtz
SOLVENT_METHOD	PCM
PURECART	11111
SYMMETRY	false
MEM_TOTAL	110000
SCF_CONVERGENCE = 6
THRESH=10
GUI = 2
$end

$solvent
dielectric 4.90
$end
--------------------------------------------------------------

             Standard Nuclear Orientation (Angstroms)
    I     Atom           X                Y                Z
 ----------------------------------------------------------------
    1      C      -0.6803960000    -3.8878000000    -0.2488060000
    2      C       0.6216140000    -3.7014560000     0.2251470000
    3      C       1.0198960000    -2.3451700000     0.3707800000
    4      H       1.2853370000    -4.5452330000     0.4663000000
    5      C       0.0000000000    -1.4501350000     0.0000000000
    6      S      -1.4352710000    -2.3213340000    -0.5227860000
    7      C       2.3788910000    -1.9344390000     0.8655970000
    8      H       3.0037200000    -2.8197990000     1.0925670000
    9      H       2.3139750000    -1.3262100000     1.7919400000
   10      H       2.9243900000    -1.3253740000     0.1147720000
   11      C       0.0000000000     0.0000000000     0.0000000000
   12      C       0.6450240000     0.5452620000     1.1130200000
   13      C       1.7075540000     1.4429540000     0.8205780000
   14      H       0.3485870000     0.2947740000     2.1428810000
   15      C       1.8972270000     1.6029640000    -0.5635880000
   16      S       0.7411550000     0.6267220000    -1.4647480000
   17      C       2.5207870000     2.1300140000     1.8823800000
   18      H       2.1785590000     1.8409810000     2.8949740000
   19      H       2.4460160000     3.2350780000     1.8081370000
   20      H       3.5978180000     1.8716040000     1.8082300000
   21      H       2.6289970000     2.2212990000    -1.0971140000
   22      H      -1.3017720000    -4.4202190000     0.4799860000
   23      H      -0.6877950000    -4.4193950000    -1.2069640000
   24      H      -0.3693680000    -1.4506280000     1.0148730000
 ----------------------------------------------------------------

   10   -1180.7153736898      7.93e-07  Convergence criterion met
 Total energy in the final basis set =    -1180.7153736898
        RIMP2         total energy =     -1182.7341366551 a.u.

                    Orbital Energies (a.u.)
 --------------------------------------------------------------

 Alpha MOs
 -- Occupied --
-91.9780 -91.9340 -11.2823 -11.2611 -11.2592 -11.2581 -11.2531 -11.2518
-11.2372 -11.2319 -11.2294 -11.2167  -8.9787  -8.9389  -6.6596  -6.6588
 -6.6584  -6.6203  -6.6193  -6.6181  -1.2017  -1.1545  -1.0577  -1.0247
 -1.0050  -0.9624  -0.9109  -0.9024  -0.8092  -0.7585  -0.7420  -0.7055
 -0.6546  -0.6383  -0.6135  -0.5923  -0.5843  -0.5720  -0.5641  -0.5529
 -0.5405  -0.5266  -0.5226  -0.5068  -0.4874  -0.4642  -0.4533  -0.4433
 -0.3513  -0.3421  -0.3178  -0.2757

          Ground-State Mulliken Net Atomic Charges

     Atom                 Charge (a.u.)
  ----------------------------------------
      1 C                    -0.072768
      2 C                    -0.325144
      3 C                    -0.033059
      4 H                     0.176443
      5 C                     0.085114
      6 S                    -0.205405
      7 C                    -0.297743
      8 H                     0.122672
      9 H                     0.102981
     10 H                     0.115927
     11 C                    -0.115737
     12 C                    -0.212523
     13 C                     0.029050
     14 H                     0.195269
     15 C                    -0.199700
     16 S                     0.006424
     17 C                    -0.271420
     18 H                     0.103624
     19 H                     0.115266
     20 H                     0.107178
     21 H                     0.201036
     22 H                     0.105472
     23 H                     0.107585
     24 H                     0.159459
  ----------------------------------------
  Sum of atomic charges =     0.000000

                    Cartesian Multipole Moments
 -----------------------------------------------------------------
    Charge (ESU x 10^10)
                -0.0000
    Dipole Moment (Debye)
         X       4.2537      Y       0.9531      Z       3.3837
       Tot       5.5183
    Quadrupole Moments (Debye-Ang)
        XX     -84.7134     XY       2.7516     YY     -81.0329
        XZ       0.5288     YZ      -1.9044     ZZ     -85.9657

 Total job time:  58.20s(wall), 2001.23s(cpu)
        *  Thank you very much for using Q-Chem.  Have a nice day.  *
