 Q-Chem 5.4, Q-Chem, Inc., Pleasanton, CA (2021)
 Q-Chem 5.4.0 for Intel X86 EM64T Linux

User input:
--------------------------------------------------------------
$molecule
0 1
C	0.724460	-3.887800	0.001092
C	-0.661131	-3.701456	0.001036
C	-1.085203	-2.345170	0.000406
H	-1.367305	-4.545233	0.001433
C	0.000000	-1.450135	0.000000
S	1.527517	-2.321334	0.000367
C	-2.531478	-1.934439	0.000233
H	-3.196254	-2.819799	0.000656
H	-2.787305	-1.326210	-0.892447
H	-2.787282	-1.325374	0.892350
C	0.000000	0.000000	0.000000
C	0.729909	0.424971	1.113020
C	1.932179	1.124518	0.820578
H	0.394478	0.229765	2.142881
C	2.146756	1.249161	-0.563588
S	0.838724	0.488500	-1.464748
C	2.852364	1.659924	1.882380
H	2.465145	1.434710	2.894974
H	2.970621	2.761183	1.808137
H	3.868160	1.218416	1.808230
H	2.974781	1.731032	-1.097114
H	1.059101	-4.420219	-0.896272
H	1.059122	-4.419395	0.898936
H	-0.000014	-1.450628	-1.080000
$end

$rem
JOBTYPE		SP
EXCHANGE	HF
CORRELATION	pRIMP2
BASIS		cc-pvtz
METHOD		rimp2
AUX_BASIS	rimp2-cc-pvtz
SOLVENT_METHOD	PCM
PURECART	11111
SYMMETRY	false
MEM_TOTAL	110000
SCF_CONVERGENCE = 6
THRESH=10
GUI = 2
$end

$solvent
dielectric 4.90
$end
--------------------------------------------------------------

             Standard Nuclear Orientation (Angstroms)
    I     Atom           X                Y                Z
 ----------------------------------------------------------------
    1      C       0.7244600000    -3.8878000000     0.0010920000
    2      C      -0.6611310000    -3.7014560000     0.0010360000
    3      C      -1.0852030000    -2.3451700000     0.0004060000
    4      H      -1.3673050000    -4.5452330000     0.0014330000
    5      C       0.0000000000    -1.4501350000     0.0000000000
    6      S       1.5275170000    -2.3213340000     0.0003670000
    7      C      -2.5314780000    -1.9344390000     0.0002330000
    8      H      -3.1962540000    -2.8197990000     0.0006560000
    9      H      -2.7873050000    -1.3262100000    -0.8924470000
   10      H      -2.7872820000    -1.3253740000     0.8923500000
   11      C       0.0000000000     0.0000000000     0.0000000000
   12      C       0.7299090000     0.4249710000     1.1130200000
   13      C       1.9321790000     1.1245180000     0.8205780000
   14      H       0.3944780000     0.2297650000     2.1428810000
   15      C       2.1467560000     1.2491610000    -0.5635880000
   16      S       0.8387240000     0.4885000000    -1.4647480000
   17      C       2.8523640000     1.6599240000     1.8823800000
   18      H       2.4651450000     1.4347100000     2.8949740000
   19      H       2.9706210000     2.7611830000     1.8081370000
   20      H       3.8681600000     1.2184160000     1.8082300000
   21      H       2.9747810000     1.7310320000    -1.0971140000
   22      H       1.0591010000    -4.4202190000    -0.8962720000
   23      H       1.0591220000    -4.4193950000     0.8989360000
   24      H      -0.0000140000    -1.4506280000    -1.0800000000
 ----------------------------------------------------------------

   10   -1180.6868045919      8.28e-07  Convergence criterion met
 Total energy in the final basis set =    -1180.6868045919
        RIMP2         total energy =     -1182.7067622285 a.u.

                    Orbital Energies (a.u.)
 --------------------------------------------------------------

 Alpha MOs
 -- Occupied --
-91.9798 -91.9327 -11.2901 -11.2610 -11.2539 -11.2517 -11.2484 -11.2476
-11.2362 -11.2300 -11.2280 -11.2095  -8.9810  -8.9379  -6.6618  -6.6609
 -6.6606  -6.6193  -6.6183  -6.6171  -1.2050  -1.1530  -1.0581  -1.0235
 -1.0010  -0.9638  -0.9103  -0.9002  -0.8062  -0.7624  -0.7462  -0.7034
 -0.6485  -0.6263  -0.6167  -0.5871  -0.5774  -0.5766  -0.5648  -0.5499
 -0.5403  -0.5327  -0.5053  -0.5041  -0.4885  -0.4675  -0.4570  -0.4409
 -0.3611  -0.3274  -0.3157  -0.2741

          Ground-State Mulliken Net Atomic Charges

     Atom                 Charge (a.u.)
  ----------------------------------------
      1 C                    -0.083745
      2 C                    -0.335247
      3 C                    -0.066250
      4 H                     0.173363
      5 C                     0.065865
      6 S                    -0.194092
      7 C                    -0.272521
      8 H                     0.111907
      9 H                     0.101295
     10 H                     0.103857
     11 C                    -0.167589
     12 C                    -0.100178
     13 C                    -0.018299
     14 H                     0.186708
     15 C                    -0.160115
     16 S                     0.019337
     17 C                    -0.269068
     18 H                     0.103189
     19 H                     0.108690
     20 H                     0.106492
     21 H                     0.202387
     22 H                     0.107184
     23 H                     0.109816
     24 H                     0.167011
  ----------------------------------------
  Sum of atomic charges =     0.000000

                    Cartesian Multipole Moments
 -----------------------------------------------------------------
    Charge (ESU x 10^10)
                -0.0000
    Dipole Moment (Debye)
         X       0.4341      Y       1.0876      Z       1.0228
       Tot       1.5548
    Quadrupole Moments (Debye-Ang)
        XX     -82.5237     XY       9.3112     YY     -84.4909
        XZ       0.2222     YZ       1.9069     ZZ     -84.9826

 Total job time:  56.32s(wall), 1975.62s(cpu)
        *  Thank you very much for using Q-Chem.  Have a nice day.  *
