 Q-Chem 5.4, Q-Chem, Inc., Pleasanton, CA (2021)
 Q-Chem 5.4.0 for Intel X86 EM64T Linux

User input:
--------------------------------------------------------------
$molecule
0 1
C	0.248806	-3.887800	-0.680396
C	-0.225147	-3.701456	0.621614
C	-0.370780	-2.345170	1.019896
H	-0.466300	-4.545233	1.285337
C	-0.000000	-1.450135	-0.000000
S	0.522786	-2.321334	-1.435271
C	-0.865597	-1.934439	2.378891
H	-1.092567	-2.819799	3.003720
H	-1.791940	-1.326210	2.313975
H	-0.114772	-1.325374	2.924390
C	0.000000	0.000000	0.000000
C	0.215623	0.816623	1.113020
C	0.571102	2.161411	0.820578
H	0.116470	0.441406	2.142881
C	0.634696	2.401276	-0.563588
S	0.247646	0.938489	-1.464748
C	0.843182	3.190669	1.882380
H	0.728628	2.757614	2.894974
H	0.148095	4.052998	1.808137
H	1.873652	3.596752	1.808230
H	0.879464	3.327513	-1.097114
H	-0.479986	-4.420219	-1.301772
H	1.206964	-4.419395	-0.687795
H	-1.014873	-1.450628	-0.369368
$end

$rem
JOBTYPE		SP
EXCHANGE	HF
CORRELATION	pRIMP2
BASIS		cc-pvtz
METHOD		rimp2
AUX_BASIS	rimp2-cc-pvtz
SOLVENT_METHOD	PCM
PURECART	11111
SYMMETRY	false
MEM_TOTAL	110000
SCF_CONVERGENCE = 6
THRESH=10
GUI = 2
$end

$solvent
dielectric 4.90
$end
--------------------------------------------------------------

             Standard Nuclear Orientation (Angstroms)
    I     Atom           X                Y                Z
 ----------------------------------------------------------------
    1      C       0.2488060000    -3.8878000000    -0.6803960000
    2      C      -0.2251470000    -3.7014560000     0.6216140000
    3      C      -0.3707800000    -2.3451700000     1.0198960000
    4      H      -0.4663000000    -4.5452330000     1.2853370000
    5      C       0.0000000000    -1.4501350000     0.0000000000
    6      S       0.5227860000    -2.3213340000    -1.4352710000
    7      C      -0.8655970000    -1.9344390000     2.3788910000
    8      H      -1.0925670000    -2.8197990000     3.0037200000
    9      H      -1.7919400000    -1.3262100000     2.3139750000
   10      H      -0.1147720000    -1.3253740000     2.9243900000
   11      C       0.0000000000     0.0000000000     0.0000000000
   12      C       0.2156230000     0.8166230000     1.1130200000
   13      C       0.5711020000     2.1614110000     0.8205780000
   14      H       0.1164700000     0.4414060000     2.1428810000
   15      C       0.6346960000     2.4012760000    -0.5635880000
   16      S       0.2476460000     0.9384890000    -1.4647480000
   17      C       0.8431820000     3.1906690000     1.8823800000
   18      H       0.7286280000     2.7576140000     2.8949740000
   19      H       0.1480950000     4.0529980000     1.8081370000
   20      H       1.8736520000     3.5967520000     1.8082300000
   21      H       0.8794640000     3.3275130000    -1.0971140000
   22      H      -0.4799860000    -4.4202190000    -1.3017720000
   23      H       1.2069640000    -4.4193950000    -0.6877950000
   24      H      -1.0148730000    -1.4506280000    -0.3693680000
 ----------------------------------------------------------------

   10   -1180.7515704863      5.08e-07  Convergence criterion met
 Total energy in the final basis set =    -1180.7515704863
        RIMP2         total energy =     -1182.7582009236 a.u.

                    Orbital Energies (a.u.)
 --------------------------------------------------------------

 Alpha MOs
 -- Occupied --
-91.9843 -91.9462 -11.2869 -11.2657 -11.2600 -11.2573 -11.2501 -11.2441
-11.2338 -11.2308 -11.2283 -11.2226  -8.9840  -8.9508  -6.6650  -6.6644
 -6.6638  -6.6322  -6.6312  -6.6299  -1.2008  -1.1528  -1.0588  -1.0313
 -1.0010  -0.9625  -0.9157  -0.9001  -0.8170  -0.7615  -0.7333  -0.7053
 -0.6549  -0.6447  -0.6106  -0.5939  -0.5840  -0.5683  -0.5647  -0.5509
 -0.5460  -0.5340  -0.5215  -0.5017  -0.4879  -0.4808  -0.4680  -0.4453
 -0.3595  -0.3431  -0.3246  -0.2647

          Ground-State Mulliken Net Atomic Charges

     Atom                 Charge (a.u.)
  ----------------------------------------
      1 C                    -0.073999
      2 C                    -0.320351
      3 C                    -0.036493
      4 H                     0.179224
      5 C                     0.116145
      6 S                    -0.176245
      7 C                    -0.299608
      8 H                     0.120974
      9 H                     0.113602
     10 H                     0.103385
     11 C                    -0.072961
     12 C                    -0.251104
     13 C                     0.026579
     14 H                     0.192281
     15 C                    -0.263309
     16 S                    -0.000962
     17 C                    -0.272876
     18 H                     0.100472
     19 H                     0.108379
     20 H                     0.108628
     21 H                     0.198062
     22 H                     0.110954
     23 H                     0.114391
     24 H                     0.174832
  ----------------------------------------
  Sum of atomic charges =     0.000000

                    Cartesian Multipole Moments
 -----------------------------------------------------------------
    Charge (ESU x 10^10)
                -0.0000
    Dipole Moment (Debye)
         X      -1.2554      Y      -0.2085      Z       3.3535
       Tot       3.5868
    Quadrupole Moments (Debye-Ang)
        XX     -91.3004     XY       5.1068     YY     -73.5719
        XZ       0.3413     YZ      -1.7354     ZZ     -85.5503

 Total job time:  58.05s(wall), 1972.70s(cpu)
        *  Thank you very much for using Q-Chem.  Have a nice day.  *
