 Q-Chem 5.4, Q-Chem, Inc., Pleasanton, CA (2021)
 Q-Chem 5.4.0 for Intel X86 EM64T Linux

User input:
--------------------------------------------------------------
$molecule
0 1
C	-0.627947	-3.887800	0.361285
C	0.572038	-3.701456	-0.331462
C	0.939610	-2.345170	-0.542953
H	1.183405	-4.545233	-0.684893
C	0.000000	-1.450135	0.000000
S	-1.323052	-2.321334	0.763441
C	2.192207	-1.934439	-1.265941
H	2.767709	-2.819799	-1.598695
H	2.860100	-1.326210	-0.620770
H	1.967682	-1.325374	-2.166438
C	0.000000	0.000000	0.000000
C	0.354153	0.766774	1.113020
C	0.937751	2.029404	0.820578
H	0.191350	0.414475	2.142881
C	1.042030	2.254581	-0.563588
S	0.406851	0.881228	-1.464748
C	1.384426	2.995779	1.882380
H	1.196413	2.589194	2.894974
H	0.849641	3.965707	1.808137
H	2.469756	3.216753	1.808230
H	1.443919	3.124243	-1.097114
H	-0.469073	-4.420219	1.305744
H	-1.366694	-4.419395	-0.248940
H	0.540012	-1.450628	0.935300
$end

$rem
JOBTYPE		SP
EXCHANGE	HF
CORRELATION	pRIMP2
BASIS		cc-pvtz
METHOD		rimp2
AUX_BASIS	rimp2-cc-pvtz
SOLVENT_METHOD	PCM
PURECART	11111
SYMMETRY	false
MEM_TOTAL	110000
SCF_CONVERGENCE = 6
THRESH=10
GUI = 2
$end

$solvent
dielectric 4.90
$end
--------------------------------------------------------------

             Standard Nuclear Orientation (Angstroms)
    I     Atom           X                Y                Z
 ----------------------------------------------------------------
    1      C      -0.6279470000    -3.8878000000     0.3612850000
    2      C       0.5720380000    -3.7014560000    -0.3314620000
    3      C       0.9396100000    -2.3451700000    -0.5429530000
    4      H       1.1834050000    -4.5452330000    -0.6848930000
    5      C       0.0000000000    -1.4501350000     0.0000000000
    6      S      -1.3230520000    -2.3213340000     0.7634410000
    7      C       2.1922070000    -1.9344390000    -1.2659410000
    8      H       2.7677090000    -2.8197990000    -1.5986950000
    9      H       2.8601000000    -1.3262100000    -0.6207700000
   10      H       1.9676820000    -1.3253740000    -2.1664380000
   11      C       0.0000000000     0.0000000000     0.0000000000
   12      C       0.3541530000     0.7667740000     1.1130200000
   13      C       0.9377510000     2.0294040000     0.8205780000
   14      H       0.1913500000     0.4144750000     2.1428810000
   15      C       1.0420300000     2.2545810000    -0.5635880000
   16      S       0.4068510000     0.8812280000    -1.4647480000
   17      C       1.3844260000     2.9957790000     1.8823800000
   18      H       1.1964130000     2.5891940000     2.8949740000
   19      H       0.8496410000     3.9657070000     1.8081370000
   20      H       2.4697560000     3.2167530000     1.8082300000
   21      H       1.4439190000     3.1242430000    -1.0971140000
   22      H      -0.4690730000    -4.4202190000     1.3057440000
   23      H      -1.3666940000    -4.4193950000    -0.2489400000
   24      H       0.5400120000    -1.4506280000     0.9353000000
 ----------------------------------------------------------------

   10   -1180.7467596962      5.70e-07  Convergence criterion met
 Total energy in the final basis set =    -1180.7467596962
        RIMP2         total energy =     -1182.7562971869 a.u.

                    Orbital Energies (a.u.)
 --------------------------------------------------------------

 Alpha MOs
 -- Occupied --
-91.9823 -91.9398 -11.2802 -11.2651 -11.2628 -11.2549 -11.2514 -11.2412
-11.2406 -11.2295 -11.2293 -11.2188  -8.9822  -8.9445  -6.6630  -6.6625
 -6.6620  -6.6259  -6.6249  -6.6236  -1.1989  -1.1534  -1.0576  -1.0238
 -1.0078  -0.9583  -0.9113  -0.9021  -0.8113  -0.7651  -0.7319  -0.7003
 -0.6609  -0.6406  -0.6103  -0.5866  -0.5797  -0.5734  -0.5674  -0.5514
 -0.5417  -0.5295  -0.5160  -0.5055  -0.4941  -0.4746  -0.4582  -0.4477
 -0.3544  -0.3436  -0.3176  -0.2712

          Ground-State Mulliken Net Atomic Charges

     Atom                 Charge (a.u.)
  ----------------------------------------
      1 C                    -0.072991
      2 C                    -0.327939
      3 C                    -0.025094
      4 H                     0.177590
      5 C                     0.058179
      6 S                    -0.185522
      7 C                    -0.277863
      8 H                     0.114219
      9 H                     0.109005
     10 H                     0.110888
     11 C                    -0.051695
     12 C                    -0.248700
     13 C                     0.025630
     14 H                     0.181891
     15 C                    -0.241348
     16 S                     0.009566
     17 C                    -0.270307
     18 H                     0.102667
     19 H                     0.108437
     20 H                     0.107243
     21 H                     0.197086
     22 H                     0.109186
     23 H                     0.111012
     24 H                     0.178861
  ----------------------------------------
  Sum of atomic charges =     0.000000

                    Cartesian Multipole Moments
 -----------------------------------------------------------------
    Charge (ESU x 10^10)
                -0.0000
    Dipole Moment (Debye)
         X       3.3601      Y       0.5160      Z       0.8995
       Tot       3.5165
    Quadrupole Moments (Debye-Ang)
        XX     -90.2679     XY       0.0506     YY     -76.3245
        XZ       0.2857     YZ       1.8041     ZZ     -85.4690

 Total job time:  55.40s(wall), 1921.95s(cpu)
        *  Thank you very much for using Q-Chem.  Have a nice day.  *
