 Q-Chem 5.4, Q-Chem, Inc., Pleasanton, CA (2021)
 Q-Chem 5.4.0 for Intel X86 EM64T Linux

User input:
--------------------------------------------------------------
$molecule
0 1
C	0.713264	-3.887800	0.126876
C	-0.651267	-3.701456	-0.113784
C	-1.068787	-2.345170	-0.188043
H	-1.346782	-4.545233	-0.236019
C	0.000000	-1.450135	0.000000
S	1.504247	-2.321334	0.265612
C	-2.493059	-1.934439	-0.439357
H	-3.147809	-2.819799	-0.554378
H	-2.589987	-1.326210	-1.362899
H	-2.899892	-1.325374	0.394786
C	0.000000	0.000000	0.000000
C	0.729909	0.424971	1.113020
C	1.932179	1.124518	0.820578
H	0.394478	0.229765	2.142881
C	2.146756	1.249161	-0.563588
S	0.838724	0.488500	-1.464748
C	2.852364	1.659924	1.882380
H	2.465145	1.434710	2.894974
H	2.970621	2.761183	1.808137
H	3.868160	1.218416	1.808230
H	2.974781	1.731032	-1.097114
H	1.198647	-4.420219	-0.698744
H	0.886933	-4.419395	1.069193
H	0.187526	-1.450628	-1.063595
$end

$rem
JOBTYPE		SP
EXCHANGE	HF
CORRELATION	pRIMP2
BASIS		cc-pvtz
METHOD		rimp2
AUX_BASIS	rimp2-cc-pvtz
SOLVENT_METHOD	PCM
PURECART	11111
SYMMETRY	false
MEM_TOTAL	110000
SCF_CONVERGENCE = 6
THRESH=10
GUI = 2
$end

$solvent
dielectric 4.90
$end
--------------------------------------------------------------

             Standard Nuclear Orientation (Angstroms)
    I     Atom           X                Y                Z
 ----------------------------------------------------------------
    1      C       0.7132640000    -3.8878000000     0.1268760000
    2      C      -0.6512670000    -3.7014560000    -0.1137840000
    3      C      -1.0687870000    -2.3451700000    -0.1880430000
    4      H      -1.3467820000    -4.5452330000    -0.2360190000
    5      C       0.0000000000    -1.4501350000     0.0000000000
    6      S       1.5042470000    -2.3213340000     0.2656120000
    7      C      -2.4930590000    -1.9344390000    -0.4393570000
    8      H      -3.1478090000    -2.8197990000    -0.5543780000
    9      H      -2.5899870000    -1.3262100000    -1.3628990000
   10      H      -2.8998920000    -1.3253740000     0.3947860000
   11      C       0.0000000000     0.0000000000     0.0000000000
   12      C       0.7299090000     0.4249710000     1.1130200000
   13      C       1.9321790000     1.1245180000     0.8205780000
   14      H       0.3944780000     0.2297650000     2.1428810000
   15      C       2.1467560000     1.2491610000    -0.5635880000
   16      S       0.8387240000     0.4885000000    -1.4647480000
   17      C       2.8523640000     1.6599240000     1.8823800000
   18      H       2.4651450000     1.4347100000     2.8949740000
   19      H       2.9706210000     2.7611830000     1.8081370000
   20      H       3.8681600000     1.2184160000     1.8082300000
   21      H       2.9747810000     1.7310320000    -1.0971140000
   22      H       1.1986470000    -4.4202190000    -0.6987440000
   23      H       0.8869330000    -4.4193950000     1.0691930000
   24      H       0.1875260000    -1.4506280000    -1.0635950000
 ----------------------------------------------------------------

   10   -1180.6840420202      8.23e-07  Convergence criterion met
 Total energy in the final basis set =    -1180.6840420202
        RIMP2         total energy =     -1182.7043309863 a.u.

                    Orbital Energies (a.u.)
 --------------------------------------------------------------

 Alpha MOs
 -- Occupied --
-91.9794 -91.9342 -11.2899 -11.2621 -11.2533 -11.2519 -11.2492 -11.2465
-11.2361 -11.2301 -11.2279 -11.2087  -8.9807  -8.9393  -6.6615  -6.6606
 -6.6603  -6.6207  -6.6196  -6.6184  -1.2059  -1.1529  -1.0586  -1.0230
 -1.0023  -0.9630  -0.9115  -0.8998  -0.8056  -0.7651  -0.7439  -0.7036
 -0.6486  -0.6269  -0.6169  -0.5870  -0.5782  -0.5764  -0.5653  -0.5500
 -0.5404  -0.5330  -0.5070  -0.5044  -0.4877  -0.4673  -0.4574  -0.4407
 -0.3594  -0.3317  -0.3171  -0.2704

          Ground-State Mulliken Net Atomic Charges

     Atom                 Charge (a.u.)
  ----------------------------------------
      1 C                    -0.083432
      2 C                    -0.339455
      3 C                    -0.061337
      4 H                     0.172946
      5 C                     0.071664
      6 S                    -0.197124
      7 C                    -0.273697
      8 H                     0.112359
      9 H                     0.100270
     10 H                     0.105063
     11 C                    -0.162625
     12 C                    -0.116502
     13 C                    -0.014155
     14 H                     0.187842
     15 C                    -0.159225
     16 S                     0.015690
     17 C                    -0.268361
     18 H                     0.103464
     19 H                     0.109355
     20 H                     0.106545
     21 H                     0.202512
     22 H                     0.107797
     23 H                     0.108868
     24 H                     0.171537
  ----------------------------------------
  Sum of atomic charges =     0.000000

                    Cartesian Multipole Moments
 -----------------------------------------------------------------
    Charge (ESU x 10^10)
                -0.0000
    Dipole Moment (Debye)
         X       0.5712      Y       1.0987      Z       0.6653
       Tot       1.4058
    Quadrupole Moments (Debye-Ang)
        XX     -82.4266     XY       8.9168     YY     -84.6584
        XZ       0.2729     YZ       2.5300     ZZ     -85.0805

 Total job time:  55.33s(wall), 1949.49s(cpu)
        *  Thank you very much for using Q-Chem.  Have a nice day.  *
