 Q-Chem 5.4, Q-Chem, Inc., Pleasanton, CA (2021)
 Q-Chem 5.4.0 for Intel X86 EM64T Linux

User input:
--------------------------------------------------------------
$molecule
0 1
C	-0.554267	-3.887800	-0.466510
C	0.507121	-3.701456	0.424173
C	0.831575	-2.345170	0.697244
H	1.048337	-4.545233	0.877789
C	0.000000	-1.450135	0.000000
S	-1.169911	-2.321334	-0.982150
C	1.939374	-1.934439	1.627024
H	2.448894	-2.819799	2.054010
H	1.561545	-1.326210	2.475299
H	2.708773	-1.325374	1.108051
C	0.000000	0.000000	0.000000
C	0.143630	0.832309	1.113020
C	0.380550	2.202961	0.820578
H	0.077556	0.449877	2.142881
C	0.422995	2.447456	-0.563588
S	0.164909	0.956502	-1.464748
C	0.561888	3.252016	1.882380
H	0.485513	2.810624	2.894974
H	-0.205711	4.050482	1.808137
H	1.553045	3.746365	1.808230
H	0.586105	3.391501	-1.097114
H	-1.387431	-4.420219	0.005807
H	-0.233510	-4.419395	-1.369415
H	-0.694200	-1.450628	0.827337
$end

$rem
JOBTYPE		SP
EXCHANGE	HF
CORRELATION	pRIMP2
BASIS		cc-pvtz
METHOD		rimp2
AUX_BASIS	rimp2-cc-pvtz
SOLVENT_METHOD	PCM
PURECART	11111
SYMMETRY	false
MEM_TOTAL	110000
SCF_CONVERGENCE = 6
THRESH=10
GUI = 2
$end

$solvent
dielectric 4.90
$end
--------------------------------------------------------------

             Standard Nuclear Orientation (Angstroms)
    I     Atom           X                Y                Z
 ----------------------------------------------------------------
    1      C      -0.5542670000    -3.8878000000    -0.4665100000
    2      C       0.5071210000    -3.7014560000     0.4241730000
    3      C       0.8315750000    -2.3451700000     0.6972440000
    4      H       1.0483370000    -4.5452330000     0.8777890000
    5      C       0.0000000000    -1.4501350000     0.0000000000
    6      S      -1.1699110000    -2.3213340000    -0.9821500000
    7      C       1.9393740000    -1.9344390000     1.6270240000
    8      H       2.4488940000    -2.8197990000     2.0540100000
    9      H       1.5615450000    -1.3262100000     2.4752990000
   10      H       2.7087730000    -1.3253740000     1.1080510000
   11      C       0.0000000000     0.0000000000     0.0000000000
   12      C       0.1436300000     0.8323090000     1.1130200000
   13      C       0.3805500000     2.2029610000     0.8205780000
   14      H       0.0775560000     0.4498770000     2.1428810000
   15      C       0.4229950000     2.4474560000    -0.5635880000
   16      S       0.1649090000     0.9565020000    -1.4647480000
   17      C       0.5618880000     3.2520160000     1.8823800000
   18      H       0.4855130000     2.8106240000     2.8949740000
   19      H      -0.2057110000     4.0504820000     1.8081370000
   20      H       1.5530450000     3.7463650000     1.8082300000
   21      H       0.5861050000     3.3915010000    -1.0971140000
   22      H      -1.3874310000    -4.4202190000     0.0058070000
   23      H      -0.2335100000    -4.4193950000    -1.3694150000
   24      H      -0.6942000000    -1.4506280000     0.8273370000
 ----------------------------------------------------------------

   10   -1180.7610045180      5.03e-07  Convergence criterion met
 Total energy in the final basis set =    -1180.7610045180
        RIMP2         total energy =     -1182.7667401798 a.u.

                    Orbital Energies (a.u.)
 --------------------------------------------------------------

 Alpha MOs
 -- Occupied --
-91.9818 -91.9435 -11.2842 -11.2640 -11.2614 -11.2581 -11.2512 -11.2424
-11.2387 -11.2318 -11.2294 -11.2206  -8.9816  -8.9481  -6.6625  -6.6619
 -6.6614  -6.6295  -6.6285  -6.6272  -1.1988  -1.1534  -1.0578  -1.0277
 -1.0037  -0.9612  -0.9128  -0.9010  -0.8159  -0.7602  -0.7308  -0.7060
 -0.6592  -0.6437  -0.6111  -0.5907  -0.5841  -0.5707  -0.5609  -0.5535
 -0.5415  -0.5311  -0.5173  -0.5057  -0.4870  -0.4823  -0.4626  -0.4476
 -0.3565  -0.3420  -0.3198  -0.2736

          Ground-State Mulliken Net Atomic Charges

     Atom                 Charge (a.u.)
  ----------------------------------------
      1 C                    -0.074489
      2 C                    -0.323886
      3 C                    -0.044181
      4 H                     0.178183
      5 C                     0.103013
      6 S                    -0.176644
      7 C                    -0.271871
      8 H                     0.117388
      9 H                     0.097144
     10 H                     0.113083
     11 C                    -0.068806
     12 C                    -0.264340
     13 C                     0.023820
     14 H                     0.189548
     15 C                    -0.249909
     16 S                     0.008369
     17 C                    -0.272493
     18 H                     0.101513
     19 H                     0.108878
     20 H                     0.108380
     21 H                     0.196938
     22 H                     0.111771
     23 H                     0.111282
     24 H                     0.177307
  ----------------------------------------
  Sum of atomic charges =     0.000000

                    Cartesian Multipole Moments
 -----------------------------------------------------------------
    Charge (ESU x 10^10)
                -0.0000
    Dipole Moment (Debye)
         X       1.6233      Y       0.2433      Z       3.6768
       Tot       4.0265
    Quadrupole Moments (Debye-Ang)
        XX     -91.0954     XY      -0.0080     YY     -73.8126
        XZ       0.2685     YZ      -2.2131     ZZ     -86.3195

 Total job time:  53.77s(wall), 1877.75s(cpu)
        *  Thank you very much for using Q-Chem.  Have a nice day.  *
