 Q-Chem 5.4, Q-Chem, Inc., Pleasanton, CA (2021)
 Q-Chem 5.4.0 for Intel X86 EM64T Linux

User input:
--------------------------------------------------------------
$molecule
0 1
C	-0.248806	-3.887800	0.680396
C	0.225147	-3.701456	-0.621614
C	0.370780	-2.345170	-1.019896
H	0.466300	-4.545233	-1.285337
C	-0.000000	-1.450135	-0.000000
S	-0.522786	-2.321334	1.435271
C	0.865597	-1.934439	-2.378891
H	1.092567	-2.819799	-3.003720
H	1.791940	-1.326210	-2.313975
H	0.114772	-1.325374	-2.924390
C	0.000000	0.000000	0.000000
C	0.070542	0.841660	1.113020
C	0.187101	2.227746	0.820578
H	0.038051	0.454925	2.142881
C	0.208076	2.475009	-0.563588
S	0.080917	0.967235	-1.464748
C	0.276318	3.288613	1.882380
H	0.238704	2.842244	2.894974
H	-0.557951	4.017140	1.808137
H	1.220618	3.867466	1.808230
H	0.288286	3.429678	-1.097114
H	0.479986	-4.420219	1.301772
H	-1.206964	-4.419395	0.687795
H	1.014873	-1.450628	0.369368
$end

$rem
JOBTYPE		SP
EXCHANGE	HF
CORRELATION	pRIMP2
BASIS		cc-pvtz
METHOD		rimp2
AUX_BASIS	rimp2-cc-pvtz
SOLVENT_METHOD	PCM
PURECART	11111
SYMMETRY	false
MEM_TOTAL	110000
SCF_CONVERGENCE = 6
THRESH=10
GUI = 2
$end

$solvent
dielectric 4.90
$end
--------------------------------------------------------------

             Standard Nuclear Orientation (Angstroms)
    I     Atom           X                Y                Z
 ----------------------------------------------------------------
    1      C      -0.2488060000    -3.8878000000     0.6803960000
    2      C       0.2251470000    -3.7014560000    -0.6216140000
    3      C       0.3707800000    -2.3451700000    -1.0198960000
    4      H       0.4663000000    -4.5452330000    -1.2853370000
    5      C       0.0000000000    -1.4501350000     0.0000000000
    6      S      -0.5227860000    -2.3213340000     1.4352710000
    7      C       0.8655970000    -1.9344390000    -2.3788910000
    8      H       1.0925670000    -2.8197990000    -3.0037200000
    9      H       1.7919400000    -1.3262100000    -2.3139750000
   10      H       0.1147720000    -1.3253740000    -2.9243900000
   11      C       0.0000000000     0.0000000000     0.0000000000
   12      C       0.0705420000     0.8416600000     1.1130200000
   13      C       0.1871010000     2.2277460000     0.8205780000
   14      H       0.0380510000     0.4549250000     2.1428810000
   15      C       0.2080760000     2.4750090000    -0.5635880000
   16      S       0.0809170000     0.9672350000    -1.4647480000
   17      C       0.2763180000     3.2886130000     1.8823800000
   18      H       0.2387040000     2.8422440000     2.8949740000
   19      H      -0.5579510000     4.0171400000     1.8081370000
   20      H       1.2206180000     3.8674660000     1.8082300000
   21      H       0.2882860000     3.4296780000    -1.0971140000
   22      H       0.4799860000    -4.4202190000     1.3017720000
   23      H      -1.2069640000    -4.4193950000     0.6877950000
   24      H       1.0148730000    -1.4506280000     0.3693680000
 ----------------------------------------------------------------

   10   -1180.7594760402      4.95e-07  Convergence criterion met
 Total energy in the final basis set =    -1180.7594760402
        RIMP2         total energy =     -1182.7650182835 a.u.

                    Orbital Energies (a.u.)
 --------------------------------------------------------------

 Alpha MOs
 -- Occupied --
-91.9823 -91.9467 -11.2906 -11.2654 -11.2619 -11.2536 -11.2502 -11.2445
-11.2326 -11.2301 -11.2277 -11.2227  -8.9822  -8.9513  -6.6631  -6.6626
 -6.6619  -6.6327  -6.6316  -6.6303  -1.2015  -1.1524  -1.0596  -1.0278
 -1.0073  -0.9560  -0.9158  -0.9017  -0.8145  -0.7708  -0.7188  -0.7027
 -0.6621  -0.6470  -0.6112  -0.5889  -0.5817  -0.5729  -0.5681  -0.5541
 -0.5420  -0.5331  -0.5154  -0.5085  -0.4912  -0.4846  -0.4574  -0.4477
 -0.3587  -0.3418  -0.3253  -0.2657

          Ground-State Mulliken Net Atomic Charges

     Atom                 Charge (a.u.)
  ----------------------------------------
      1 C                    -0.073695
      2 C                    -0.320931
      3 C                    -0.035331
      4 H                     0.179698
      5 C                     0.106969
      6 S                    -0.179539
      7 C                    -0.305552
      8 H                     0.119509
      9 H                     0.115193
     10 H                     0.110567
     11 C                    -0.019008
     12 C                    -0.303442
     13 C                     0.036738
     14 H                     0.177470
     15 C                    -0.274747
     16 S                     0.008521
     17 C                    -0.272170
     18 H                     0.102772
     19 H                     0.108528
     20 H                     0.107982
     21 H                     0.196376
     22 H                     0.110906
     23 H                     0.114224
     24 H                     0.188962
  ----------------------------------------
  Sum of atomic charges =     0.000000

                    Cartesian Multipole Moments
 -----------------------------------------------------------------
    Charge (ESU x 10^10)
                 0.0000
    Dipole Moment (Debye)
         X       1.7903      Y      -0.4098      Z      -0.6286
       Tot       1.9412
    Quadrupole Moments (Debye-Ang)
        XX     -91.8299     XY      -1.8178     YY     -73.4144
        XZ       0.1613     YZ       4.1577     ZZ     -85.4104

 Total job time:  54.23s(wall), 1860.56s(cpu)
        *  Thank you very much for using Q-Chem.  Have a nice day.  *
