 Q-Chem 5.4, Q-Chem, Inc., Pleasanton, CA (2021)
 Q-Chem 5.4.0 for Intel X86 EM64T Linux

User input:
--------------------------------------------------------------
$molecule
0 1
C	0.126876	-3.887800	-0.713264
C	-0.113784	-3.701456	0.651267
C	-0.188043	-2.345170	1.068787
H	-0.236019	-4.545233	1.346782
C	0.000000	-1.450135	0.000000
S	0.265612	-2.321334	-1.504247
C	-0.439357	-1.934439	2.493059
H	-0.554378	-2.819799	3.147809
H	-1.362899	-1.326210	2.589987
H	0.394786	-1.325374	2.899892
C	0.000000	0.000000	0.000000
C	0.729909	0.424971	1.113020
C	1.932179	1.124518	0.820578
H	0.394478	0.229765	2.142881
C	2.146756	1.249161	-0.563588
S	0.838724	0.488500	-1.464748
C	2.852364	1.659924	1.882380
H	2.465145	1.434710	2.894974
H	2.970621	2.761183	1.808137
H	3.868160	1.218416	1.808230
H	2.974781	1.731032	-1.097114
H	-0.698744	-4.420219	-1.198647
H	1.069193	-4.419395	-0.886933
H	-1.063595	-1.450628	-0.187526
$end

$rem
JOBTYPE		SP
EXCHANGE	HF
CORRELATION	pRIMP2
BASIS		cc-pvtz
METHOD		rimp2
AUX_BASIS	rimp2-cc-pvtz
SOLVENT_METHOD	PCM
PURECART	11111
SYMMETRY	false
MEM_TOTAL	110000
SCF_CONVERGENCE = 6
THRESH=10
GUI = 2
$end

$solvent
dielectric 4.90
$end
--------------------------------------------------------------

             Standard Nuclear Orientation (Angstroms)
    I     Atom           X                Y                Z
 ----------------------------------------------------------------
    1      C       0.1268760000    -3.8878000000    -0.7132640000
    2      C      -0.1137840000    -3.7014560000     0.6512670000
    3      C      -0.1880430000    -2.3451700000     1.0687870000
    4      H      -0.2360190000    -4.5452330000     1.3467820000
    5      C       0.0000000000    -1.4501350000     0.0000000000
    6      S       0.2656120000    -2.3213340000    -1.5042470000
    7      C      -0.4393570000    -1.9344390000     2.4930590000
    8      H      -0.5543780000    -2.8197990000     3.1478090000
    9      H      -1.3628990000    -1.3262100000     2.5899870000
   10      H       0.3947860000    -1.3253740000     2.8998920000
   11      C       0.0000000000     0.0000000000     0.0000000000
   12      C       0.7299090000     0.4249710000     1.1130200000
   13      C       1.9321790000     1.1245180000     0.8205780000
   14      H       0.3944780000     0.2297650000     2.1428810000
   15      C       2.1467560000     1.2491610000    -0.5635880000
   16      S       0.8387240000     0.4885000000    -1.4647480000
   17      C       2.8523640000     1.6599240000     1.8823800000
   18      H       2.4651450000     1.4347100000     2.8949740000
   19      H       2.9706210000     2.7611830000     1.8081370000
   20      H       3.8681600000     1.2184160000     1.8082300000
   21      H       2.9747810000     1.7310320000    -1.0971140000
   22      H      -0.6987440000    -4.4202190000    -1.1986470000
   23      H       1.0691930000    -4.4193950000    -0.8869330000
   24      H      -1.0635950000    -1.4506280000    -0.1875260000
 ----------------------------------------------------------------

   11   -1180.6595578134      6.78e-07  Convergence criterion met
 Total energy in the final basis set =    -1180.6595578134
        RIMP2         total energy =     -1182.6882638239 a.u.

                    Orbital Energies (a.u.)
 --------------------------------------------------------------

 Alpha MOs
 -- Occupied --
-91.9786 -91.9384 -11.2840 -11.2595 -11.2543 -11.2515 -11.2501 -11.2458
-11.2356 -11.2318 -11.2304 -11.2113  -8.9797  -8.9430  -6.6605  -6.6595
 -6.6593  -6.6242  -6.6232  -6.6219  -1.2034  -1.1528  -1.0566  -1.0327
 -0.9965  -0.9661  -0.9120  -0.9018  -0.8121  -0.7583  -0.7354  -0.7110
 -0.6482  -0.6395  -0.6129  -0.5980  -0.5866  -0.5682  -0.5661  -0.5484
 -0.5424  -0.5340  -0.5201  -0.5046  -0.4805  -0.4758  -0.4446  -0.4323
 -0.3615  -0.3370  -0.3217  -0.2499

          Ground-State Mulliken Net Atomic Charges

     Atom                 Charge (a.u.)
  ----------------------------------------
      1 C                    -0.080195
      2 C                    -0.343821
      3 C                    -0.033498
      4 H                     0.173739
      5 C                     0.063100
      6 S                    -0.187780
      7 C                    -0.287688
      8 H                     0.119287
      9 H                     0.109455
     10 H                     0.097670
     11 C                    -0.154570
     12 C                    -0.140232
     13 C                    -0.018987
     14 H                     0.199008
     15 C                    -0.183460
     16 S                     0.025743
     17 C                    -0.269789
     18 H                     0.101064
     19 H                     0.108806
     20 H                     0.106043
     21 H                     0.201114
     22 H                     0.106686
     23 H                     0.108110
     24 H                     0.180193
  ----------------------------------------
  Sum of atomic charges =     0.000000

                    Cartesian Multipole Moments
 -----------------------------------------------------------------
    Charge (ESU x 10^10)
                -0.0000
    Dipole Moment (Debye)
         X       1.4334      Y       0.6965      Z       3.7736
       Tot       4.0963
    Quadrupole Moments (Debye-Ang)
        XX     -82.6305     XY       7.1995     YY     -84.3132
        XZ       0.6380     YZ      -2.6029     ZZ     -84.8161

 Total job time:  61.76s(wall), 2163.52s(cpu)
        *  Thank you very much for using Q-Chem.  Have a nice day.  *
