 Q-Chem 5.4, Q-Chem, Inc., Pleasanton, CA (2021)
 Q-Chem 5.4.0 for Intel X86 EM64T Linux

User input:
--------------------------------------------------------------
$molecule
0 1
C	0.713264	-3.887800	0.126876
C	-0.651267	-3.701456	-0.113784
C	-1.068787	-2.345170	-0.188043
H	-1.346782	-4.545233	-0.236019
C	-0.000000	-1.450135	-0.000000
S	1.504247	-2.321334	0.265612
C	-2.493059	-1.934439	-0.439357
H	-3.147809	-2.819799	-0.554378
H	-2.589987	-1.326210	-1.362899
H	-2.899892	-1.325374	0.394786
C	0.000000	0.000000	0.000000
C	0.540541	0.648986	1.113020
C	1.431046	1.717546	0.820578
H	0.292104	0.350827	2.142881
C	1.590053	1.908061	-0.563588
S	0.621066	0.745901	-1.464748
C	2.112618	2.535384	1.882380
H	1.825779	2.191315	2.894974
H	1.847090	3.610676	1.808137
H	3.218159	2.467925	1.808230
H	2.203332	2.644073	-1.097114
H	1.198647	-4.420219	-0.698744
H	0.886933	-4.419395	1.069193
H	0.187526	-1.450628	-1.063595
$end

$rem
JOBTYPE		SP
EXCHANGE	HF
CORRELATION	pRIMP2
BASIS		cc-pvtz
METHOD		rimp2
AUX_BASIS	rimp2-cc-pvtz
SOLVENT_METHOD	PCM
PURECART	11111
SYMMETRY	false
MEM_TOTAL	110000
SCF_CONVERGENCE = 6
THRESH=10
GUI = 2
$end

$solvent
dielectric 4.90
$end
--------------------------------------------------------------

             Standard Nuclear Orientation (Angstroms)
    I     Atom           X                Y                Z
 ----------------------------------------------------------------
    1      C       0.7132640000    -3.8878000000     0.1268760000
    2      C      -0.6512670000    -3.7014560000    -0.1137840000
    3      C      -1.0687870000    -2.3451700000    -0.1880430000
    4      H      -1.3467820000    -4.5452330000    -0.2360190000
    5      C       0.0000000000    -1.4501350000     0.0000000000
    6      S       1.5042470000    -2.3213340000     0.2656120000
    7      C      -2.4930590000    -1.9344390000    -0.4393570000
    8      H      -3.1478090000    -2.8197990000    -0.5543780000
    9      H      -2.5899870000    -1.3262100000    -1.3628990000
   10      H      -2.8998920000    -1.3253740000     0.3947860000
   11      C       0.0000000000     0.0000000000     0.0000000000
   12      C       0.5405410000     0.6489860000     1.1130200000
   13      C       1.4310460000     1.7175460000     0.8205780000
   14      H       0.2921040000     0.3508270000     2.1428810000
   15      C       1.5900530000     1.9080610000    -0.5635880000
   16      S       0.6210660000     0.7459010000    -1.4647480000
   17      C       2.1126180000     2.5353840000     1.8823800000
   18      H       1.8257790000     2.1913150000     2.8949740000
   19      H       1.8470900000     3.6106760000     1.8081370000
   20      H       3.2181590000     2.4679250000     1.8082300000
   21      H       2.2033320000     2.6440730000    -1.0971140000
   22      H       1.1986470000    -4.4202190000    -0.6987440000
   23      H       0.8869330000    -4.4193950000     1.0691930000
   24      H       0.1875260000    -1.4506280000    -1.0635950000
 ----------------------------------------------------------------

   10   -1180.7300950525      6.11e-07  Convergence criterion met
 Total energy in the final basis set =    -1180.7300950525
        RIMP2         total energy =     -1182.7411283895 a.u.

                    Orbital Energies (a.u.)
 --------------------------------------------------------------

 Alpha MOs
 -- Occupied --
-91.9830 -91.9391 -11.2754 -11.2665 -11.2575 -11.2515 -11.2512 -11.2473
-11.2388 -11.2299 -11.2292 -11.2139  -8.9833  -8.9438  -6.6642  -6.6635
 -6.6630  -6.6251  -6.6241  -6.6229  -1.1990  -1.1538  -1.0572  -1.0248
 -1.0017  -0.9624  -0.9119  -0.9003  -0.8091  -0.7632  -0.7401  -0.7030
 -0.6511  -0.6307  -0.6128  -0.5868  -0.5775  -0.5747  -0.5668  -0.5515
 -0.5411  -0.5312  -0.5085  -0.5066  -0.4881  -0.4726  -0.4638  -0.4466
 -0.3573  -0.3374  -0.3147  -0.2770

          Ground-State Mulliken Net Atomic Charges

     Atom                 Charge (a.u.)
  ----------------------------------------
      1 C                    -0.073553
      2 C                    -0.332374
      3 C                    -0.041999
      4 H                     0.174405
      5 C                     0.064717
      6 S                    -0.180806
      7 C                    -0.272636
      8 H                     0.112916
      9 H                     0.101328
     10 H                     0.106344
     11 C                    -0.084793
     12 C                    -0.228904
     13 C                     0.041672
     14 H                     0.183000
     15 C                    -0.218804
     16 S                     0.012373
     17 C                    -0.268196
     18 H                     0.103095
     19 H                     0.107694
     20 H                     0.107539
     21 H                     0.200616
     22 H                     0.108391
     23 H                     0.109169
     24 H                     0.168805
  ----------------------------------------
  Sum of atomic charges =     0.000000

                    Cartesian Multipole Moments
 -----------------------------------------------------------------
    Charge (ESU x 10^10)
                -0.0000
    Dipole Moment (Debye)
         X      -0.6556      Y       0.9838      Z       0.5116
       Tot       1.2882
    Quadrupole Moments (Debye-Ang)
        XX     -86.9746     XY       9.0721     YY     -79.1761
        XZ       0.3553     YZ       2.7533     ZZ     -85.6496

 Total job time:  78.06s(wall), 3407.55s(cpu)
        *  Thank you very much for using Q-Chem.  Have a nice day.  *
