 Q-Chem 5.4, Q-Chem, Inc., Pleasanton, CA (2021)
 Q-Chem 5.4.0 for Intel X86 EM64T Linux

User input:
--------------------------------------------------------------
$molecule
0 1
C	0.001092	-3.887800	-0.724460
C	0.001036	-3.701456	0.661131
C	0.000406	-2.345170	1.085203
H	0.001433	-4.545233	1.367305
C	-0.000000	-1.450135	-0.000000
S	0.000367	-2.321334	-1.527517
C	0.000233	-1.934439	2.531478
H	0.000656	-2.819799	3.196254
H	-0.892447	-1.326210	2.787305
H	0.892350	-1.325374	2.787282
C	0.000000	0.000000	0.000000
C	0.215623	0.816623	1.113020
C	0.571102	2.161411	0.820578
H	0.116470	0.441406	2.142881
C	0.634696	2.401276	-0.563588
S	0.247646	0.938489	-1.464748
C	0.843182	3.190669	1.882380
H	0.728628	2.757614	2.894974
H	0.148095	4.052998	1.808137
H	1.873652	3.596752	1.808230
H	0.879464	3.327513	-1.097114
H	-0.896272	-4.420219	-1.059101
H	0.898936	-4.419395	-1.059122
H	-1.080000	-1.450628	0.000014
$end

$rem
JOBTYPE		SP
EXCHANGE	HF
CORRELATION	pRIMP2
BASIS		cc-pvtz
METHOD		rimp2
AUX_BASIS	rimp2-cc-pvtz
SOLVENT_METHOD	PCM
PURECART	11111
SYMMETRY	false
MEM_TOTAL	110000
SCF_CONVERGENCE = 6
THRESH=10
GUI = 2
$end

$solvent
dielectric 4.90
$end
--------------------------------------------------------------

             Standard Nuclear Orientation (Angstroms)
    I     Atom           X                Y                Z
 ----------------------------------------------------------------
    1      C       0.0010920000    -3.8878000000    -0.7244600000
    2      C       0.0010360000    -3.7014560000     0.6611310000
    3      C       0.0004060000    -2.3451700000     1.0852030000
    4      H       0.0014330000    -4.5452330000     1.3673050000
    5      C       0.0000000000    -1.4501350000     0.0000000000
    6      S       0.0003670000    -2.3213340000    -1.5275170000
    7      C       0.0002330000    -1.9344390000     2.5314780000
    8      H       0.0006560000    -2.8197990000     3.1962540000
    9      H      -0.8924470000    -1.3262100000     2.7873050000
   10      H       0.8923500000    -1.3253740000     2.7872820000
   11      C       0.0000000000     0.0000000000     0.0000000000
   12      C       0.2156230000     0.8166230000     1.1130200000
   13      C       0.5711020000     2.1614110000     0.8205780000
   14      H       0.1164700000     0.4414060000     2.1428810000
   15      C       0.6346960000     2.4012760000    -0.5635880000
   16      S       0.2476460000     0.9384890000    -1.4647480000
   17      C       0.8431820000     3.1906690000     1.8823800000
   18      H       0.7286280000     2.7576140000     2.8949740000
   19      H       0.1480950000     4.0529980000     1.8081370000
   20      H       1.8736520000     3.5967520000     1.8082300000
   21      H       0.8794640000     3.3275130000    -1.0971140000
   22      H      -0.8962720000    -4.4202190000    -1.0591010000
   23      H       0.8989360000    -4.4193950000    -1.0591220000
   24      H      -1.0800000000    -1.4506280000     0.0000140000
 ----------------------------------------------------------------

   10   -1180.7498093277      5.08e-07  Convergence criterion met
 Total energy in the final basis set =    -1180.7498093277
        RIMP2         total energy =     -1182.7573934561 a.u.

                    Orbital Energies (a.u.)
 --------------------------------------------------------------

 Alpha MOs
 -- Occupied --
-91.9839 -91.9467 -11.2883 -11.2664 -11.2611 -11.2551 -11.2498 -11.2449
-11.2341 -11.2286 -11.2282 -11.2231  -8.9835  -8.9513  -6.6645  -6.6639
 -6.6633  -6.6327  -6.6316  -6.6304  -1.2015  -1.1524  -1.0591  -1.0321
 -1.0012  -0.9617  -0.9168  -0.8998  -0.8174  -0.7622  -0.7283  -0.7074
 -0.6558  -0.6480  -0.6105  -0.5948  -0.5862  -0.5686  -0.5612  -0.5496
 -0.5459  -0.5352  -0.5245  -0.5005  -0.4860  -0.4805  -0.4686  -0.4439
 -0.3612  -0.3433  -0.3243  -0.2631

          Ground-State Mulliken Net Atomic Charges

     Atom                 Charge (a.u.)
  ----------------------------------------
      1 C                    -0.073122
      2 C                    -0.314396
      3 C                    -0.055301
      4 H                     0.180164
      5 C                     0.130860
      6 S                    -0.179681
      7 C                    -0.302802
      8 H                     0.123585
      9 H                     0.105368
     10 H                     0.109278
     11 C                    -0.048108
     12 C                    -0.283127
     13 C                     0.042985
     14 H                     0.189890
     15 C                    -0.281174
     16 S                     0.007454
     17 C                    -0.272027
     18 H                     0.100293
     19 H                     0.108372
     20 H                     0.108509
     21 H                     0.197125
     22 H                     0.111426
     23 H                     0.113857
     24 H                     0.180572
  ----------------------------------------
  Sum of atomic charges =     0.000000

                    Cartesian Multipole Moments
 -----------------------------------------------------------------
    Charge (ESU x 10^10)
                -0.0000
    Dipole Moment (Debye)
         X      -0.5236      Y      -0.4087      Z       3.8092
       Tot       3.8667
    Quadrupole Moments (Debye-Ang)
        XX     -91.1494     XY       3.9484     YY     -73.6406
        XZ       0.5845     YZ      -2.4159     ZZ     -85.6276

 Total job time:  57.06s(wall), 1936.26s(cpu)
        *  Thank you very much for using Q-Chem.  Have a nice day.  *
