 Q-Chem 5.4, Q-Chem, Inc., Pleasanton, CA (2021)
 Q-Chem 5.4.0 for Intel X86 EM64T Linux

User input:
--------------------------------------------------------------
$molecule
0 1
C	-0.246754	-3.887800	-0.681143
C	0.227093	-3.701456	0.620906
C	0.371543	-2.345170	1.019618
H	0.468992	-4.545233	1.284357
C	-0.000000	-1.450135	-0.000000
S	-0.522097	-2.321334	-1.435522
C	0.866035	-1.934439	2.378731
H	1.093799	-2.819799	3.003272
H	0.114688	-1.326210	2.924444
H	1.791841	-1.325374	2.313987
C	0.000000	0.000000	0.000000
C	0.540541	0.648986	1.113020
C	1.431046	1.717546	0.820578
H	0.292104	0.350827	2.142881
C	1.590053	1.908061	-0.563588
S	0.621066	0.745901	-1.464748
C	2.112618	2.535384	1.882380
H	1.825779	2.191315	2.894974
H	1.847090	3.610676	1.808137
H	3.218159	2.467925	1.808230
H	2.203332	2.644073	-1.097114
H	-1.204454	-4.420219	-0.688686
H	0.482482	-4.419395	-1.302703
H	-1.014863	-1.450628	0.369395
$end

$rem
JOBTYPE		SP
EXCHANGE	HF
CORRELATION	pRIMP2
BASIS		cc-pvtz
METHOD		rimp2
AUX_BASIS	rimp2-cc-pvtz
SOLVENT_METHOD	PCM
PURECART	11111
SYMMETRY	false
MEM_TOTAL	110000
SCF_CONVERGENCE = 6
THRESH=10
GUI = 2
$end

$solvent
dielectric 4.90
$end
--------------------------------------------------------------

             Standard Nuclear Orientation (Angstroms)
    I     Atom           X                Y                Z
 ----------------------------------------------------------------
    1      C      -0.2467540000    -3.8878000000    -0.6811430000
    2      C       0.2270930000    -3.7014560000     0.6209060000
    3      C       0.3715430000    -2.3451700000     1.0196180000
    4      H       0.4689920000    -4.5452330000     1.2843570000
    5      C       0.0000000000    -1.4501350000     0.0000000000
    6      S      -0.5220970000    -2.3213340000    -1.4355220000
    7      C       0.8660350000    -1.9344390000     2.3787310000
    8      H       1.0937990000    -2.8197990000     3.0032720000
    9      H       0.1146880000    -1.3262100000     2.9244440000
   10      H       1.7918410000    -1.3253740000     2.3139870000
   11      C       0.0000000000     0.0000000000     0.0000000000
   12      C       0.5405410000     0.6489860000     1.1130200000
   13      C       1.4310460000     1.7175460000     0.8205780000
   14      H       0.2921040000     0.3508270000     2.1428810000
   15      C       1.5900530000     1.9080610000    -0.5635880000
   16      S       0.6210660000     0.7459010000    -1.4647480000
   17      C       2.1126180000     2.5353840000     1.8823800000
   18      H       1.8257790000     2.1913150000     2.8949740000
   19      H       1.8470900000     3.6106760000     1.8081370000
   20      H       3.2181590000     2.4679250000     1.8082300000
   21      H       2.2033320000     2.6440730000    -1.0971140000
   22      H      -1.2044540000    -4.4202190000    -0.6886860000
   23      H       0.4824820000    -4.4193950000    -1.3027030000
   24      H      -1.0148630000    -1.4506280000     0.3693950000
 ----------------------------------------------------------------

   10   -1180.7159817876      8.15e-07  Convergence criterion met
 Total energy in the final basis set =    -1180.7159817876
        RIMP2         total energy =     -1182.7340691394 a.u.

                    Orbital Energies (a.u.)
 --------------------------------------------------------------

 Alpha MOs
 -- Occupied --
-91.9790 -91.9423 -11.2724 -11.2679 -11.2636 -11.2543 -11.2509 -11.2417
-11.2412 -11.2327 -11.2296 -11.2180  -8.9793  -8.9469  -6.6602  -6.6594
 -6.6589  -6.6283  -6.6273  -6.6260  -1.2005  -1.1530  -1.0576  -1.0309
 -0.9999  -0.9630  -0.9147  -0.9009  -0.8133  -0.7601  -0.7295  -0.7116
 -0.6517  -0.6452  -0.6113  -0.5942  -0.5905  -0.5699  -0.5588  -0.5505
 -0.5418  -0.5344  -0.5244  -0.5051  -0.4807  -0.4699  -0.4612  -0.4424
 -0.3581  -0.3406  -0.3232  -0.2612

          Ground-State Mulliken Net Atomic Charges

     Atom                 Charge (a.u.)
  ----------------------------------------
      1 C                    -0.073011
      2 C                    -0.330987
      3 C                    -0.055731
      4 H                     0.178498
      5 C                     0.099870
      6 S                    -0.186690
      7 C                    -0.292681
      8 H                     0.121211
      9 H                     0.096469
     10 H                     0.115948
     11 C                    -0.060008
     12 C                    -0.283059
     13 C                     0.044843
     14 H                     0.198879
     15 C                    -0.240900
     16 S                     0.019402
     17 C                    -0.272684
     18 H                     0.101358
     19 H                     0.110766
     20 H                     0.107584
     21 H                     0.196706
     22 H                     0.109810
     23 H                     0.111583
     24 H                     0.182823
  ----------------------------------------
  Sum of atomic charges =     0.000000

                    Cartesian Multipole Moments
 -----------------------------------------------------------------
    Charge (ESU x 10^10)
                -0.0000
    Dipole Moment (Debye)
         X       1.3850      Y       0.2315      Z       4.1919
       Tot       4.4208
    Quadrupole Moments (Debye-Ang)
        XX     -87.0551     XY       5.4510     YY     -78.3955
        XZ       1.0737     YZ      -2.9288     ZZ     -85.8282

 Total job time:  56.28s(wall), 1965.11s(cpu)
        *  Thank you very much for using Q-Chem.  Have a nice day.  *
