 Q-Chem 5.4, Q-Chem, Inc., Pleasanton, CA (2021)
 Q-Chem 5.4.0 for Intel X86 EM64T Linux

User input:
--------------------------------------------------------------
$molecule
0 1
C	0.124726	-3.887800	0.713644
C	-0.115824	-3.701456	-0.650907
C	-0.188844	-2.345170	-1.068646
H	-0.238841	-4.545233	-1.346284
C	-0.000000	-1.450135	-0.000000
S	0.264890	-2.321334	1.504375
C	-0.439816	-1.934439	-2.492978
H	-0.555669	-2.819799	-3.147582
H	0.394879	-1.326210	-2.899931
H	-1.362799	-1.325374	-2.589982
C	0.000000	0.000000	0.000000
C	0.540541	0.648986	1.113020
C	1.431046	1.717546	0.820578
H	0.292104	0.350827	2.142881
C	1.590053	1.908061	-0.563588
S	0.621066	0.745901	-1.464748
C	2.112618	2.535384	1.882380
H	1.825779	2.191315	2.894974
H	1.847090	3.610676	1.808137
H	3.218159	2.467925	1.808230
H	2.203332	2.644073	-1.097114
H	1.066566	-4.420219	0.887375
H	-0.701364	-4.419395	1.199130
H	1.063590	-1.450628	-0.187554
$end

$rem
JOBTYPE		SP
EXCHANGE	HF
CORRELATION	pRIMP2
BASIS		cc-pvtz
METHOD		rimp2
AUX_BASIS	rimp2-cc-pvtz
SOLVENT_METHOD	PCM
PURECART	11111
SYMMETRY	false
MEM_TOTAL	110000
SCF_CONVERGENCE = 6
THRESH=10
GUI = 2
$end

$solvent
dielectric 4.90
$end
--------------------------------------------------------------

             Standard Nuclear Orientation (Angstroms)
    I     Atom           X                Y                Z
 ----------------------------------------------------------------
    1      C       0.1247260000    -3.8878000000     0.7136440000
    2      C      -0.1158240000    -3.7014560000    -0.6509070000
    3      C      -0.1888440000    -2.3451700000    -1.0686460000
    4      H      -0.2388410000    -4.5452330000    -1.3462840000
    5      C       0.0000000000    -1.4501350000     0.0000000000
    6      S       0.2648900000    -2.3213340000     1.5043750000
    7      C      -0.4398160000    -1.9344390000    -2.4929780000
    8      H      -0.5556690000    -2.8197990000    -3.1475820000
    9      H       0.3948790000    -1.3262100000    -2.8999310000
   10      H      -1.3627990000    -1.3253740000    -2.5899820000
   11      C       0.0000000000     0.0000000000     0.0000000000
   12      C       0.5405410000     0.6489860000     1.1130200000
   13      C       1.4310460000     1.7175460000     0.8205780000
   14      H       0.2921040000     0.3508270000     2.1428810000
   15      C       1.5900530000     1.9080610000    -0.5635880000
   16      S       0.6210660000     0.7459010000    -1.4647480000
   17      C       2.1126180000     2.5353840000     1.8823800000
   18      H       1.8257790000     2.1913150000     2.8949740000
   19      H       1.8470900000     3.6106760000     1.8081370000
   20      H       3.2181590000     2.4679250000     1.8082300000
   21      H       2.2033320000     2.6440730000    -1.0971140000
   22      H       1.0665660000    -4.4202190000     0.8873750000
   23      H      -0.7013640000    -4.4193950000     1.1991300000
   24      H       1.0635900000    -1.4506280000    -0.1875540000
 ----------------------------------------------------------------

   10   -1180.7297923157      5.99e-07  Convergence criterion met
 Total energy in the final basis set =    -1180.7297923157
        RIMP2         total energy =     -1182.7437731333 a.u.

                    Orbital Energies (a.u.)
 --------------------------------------------------------------

 Alpha MOs
 -- Occupied --
-91.9779 -91.9447 -11.2814 -11.2641 -11.2614 -11.2603 -11.2516 -11.2423
-11.2374 -11.2304 -11.2285 -11.2207  -8.9789  -8.9492  -6.6597  -6.6591
 -6.6585  -6.6305  -6.6295  -6.6283  -1.2047  -1.1532  -1.0602  -1.0275
 -1.0060  -0.9563  -0.9150  -0.9030  -0.8101  -0.7726  -0.7196  -0.7033
 -0.6588  -0.6471  -0.6128  -0.5899  -0.5823  -0.5732  -0.5698  -0.5523
 -0.5418  -0.5344  -0.5157  -0.5129  -0.4891  -0.4731  -0.4567  -0.4418
 -0.3584  -0.3415  -0.3279  -0.2633

          Ground-State Mulliken Net Atomic Charges

     Atom                 Charge (a.u.)
  ----------------------------------------
      1 C                    -0.075774
      2 C                    -0.316814
      3 C                    -0.058161
      4 H                     0.177763
      5 C                     0.109796
      6 S                    -0.193814
      7 C                    -0.302400
      8 H                     0.117209
      9 H                     0.109566
     10 H                     0.118447
     11 C                    -0.008179
     12 C                    -0.304318
     13 C                     0.046589
     14 H                     0.179476
     15 C                    -0.259064
     16 S                     0.005047
     17 C                    -0.268469
     18 H                     0.103375
     19 H                     0.108802
     20 H                     0.107986
     21 H                     0.197550
     22 H                     0.110997
     23 H                     0.112183
     24 H                     0.182205
  ----------------------------------------
  Sum of atomic charges =     0.000000

                    Cartesian Multipole Moments
 -----------------------------------------------------------------
    Charge (ESU x 10^10)
                -0.0000
    Dipole Moment (Debye)
         X       1.5679      Y      -0.1858      Z      -1.0179
       Tot       1.8785
    Quadrupole Moments (Debye-Ang)
        XX     -87.2852     XY       4.4380     YY     -77.6240
        XZ       1.0575     YZ       4.7724     ZZ     -85.6098

 Total job time:  61.38s(wall), 2378.53s(cpu)
        *  Thank you very much for using Q-Chem.  Have a nice day.  *
