 Q-Chem 5.4, Q-Chem, Inc., Pleasanton, CA (2021)
 Q-Chem 5.4.0 for Intel X86 EM64T Linux

User input:
--------------------------------------------------------------
$molecule
0 1
C	-0.124726	-3.887800	-0.713644
C	0.115824	-3.701456	0.650907
C	0.188844	-2.345170	1.068646
H	0.238841	-4.545233	1.346284
C	0.000000	-1.450135	0.000000
S	-0.264890	-2.321334	-1.504375
C	0.439816	-1.934439	2.492978
H	0.555669	-2.819799	3.147582
H	-0.394879	-1.326210	2.899931
H	1.362799	-1.325374	2.589982
C	0.000000	0.000000	0.000000
C	0.285976	0.794723	1.113020
C	0.757308	2.103412	0.820578
H	0.154498	0.429575	2.142881
C	0.841565	2.336821	-0.563588
S	0.328498	0.913334	-1.464748
C	1.118059	3.105040	1.882380
H	0.966197	2.683616	2.894974
H	0.500773	4.024668	1.808137
H	2.180000	3.419766	1.808230
H	1.166129	3.238200	-1.097114
H	-1.066566	-4.420219	-0.887375
H	0.701364	-4.419395	-1.199130
H	-1.063590	-1.450628	0.187554
$end

$rem
JOBTYPE		SP
EXCHANGE	HF
CORRELATION	pRIMP2
BASIS		cc-pvtz
METHOD		rimp2
AUX_BASIS	rimp2-cc-pvtz
SOLVENT_METHOD	PCM
PURECART	11111
SYMMETRY	false
MEM_TOTAL	110000
SCF_CONVERGENCE = 6
THRESH=10
GUI = 2
$end

$solvent
dielectric 4.90
$end
--------------------------------------------------------------

             Standard Nuclear Orientation (Angstroms)
    I     Atom           X                Y                Z
 ----------------------------------------------------------------
    1      C      -0.1247260000    -3.8878000000    -0.7136440000
    2      C       0.1158240000    -3.7014560000     0.6509070000
    3      C       0.1888440000    -2.3451700000     1.0686460000
    4      H       0.2388410000    -4.5452330000     1.3462840000
    5      C       0.0000000000    -1.4501350000     0.0000000000
    6      S      -0.2648900000    -2.3213340000    -1.5043750000
    7      C       0.4398160000    -1.9344390000     2.4929780000
    8      H       0.5556690000    -2.8197990000     3.1475820000
    9      H      -0.3948790000    -1.3262100000     2.8999310000
   10      H       1.3627990000    -1.3253740000     2.5899820000
   11      C       0.0000000000     0.0000000000     0.0000000000
   12      C       0.2859760000     0.7947230000     1.1130200000
   13      C       0.7573080000     2.1034120000     0.8205780000
   14      H       0.1544980000     0.4295750000     2.1428810000
   15      C       0.8415650000     2.3368210000    -0.5635880000
   16      S       0.3284980000     0.9133340000    -1.4647480000
   17      C       1.1180590000     3.1050400000     1.8823800000
   18      H       0.9661970000     2.6836160000     2.8949740000
   19      H       0.5007730000     4.0246680000     1.8081370000
   20      H       2.1800000000     3.4197660000     1.8082300000
   21      H       1.1661290000     3.2382000000    -1.0971140000
   22      H      -1.0665660000    -4.4202190000    -0.8873750000
   23      H       0.7013640000    -4.4193950000    -1.1991300000
   24      H      -1.0635900000    -1.4506280000     0.1875540000
 ----------------------------------------------------------------

   10   -1180.7452302007      5.18e-07  Convergence criterion met
 Total energy in the final basis set =    -1180.7452302007
        RIMP2         total energy =     -1182.7545724552 a.u.

                    Orbital Energies (a.u.)
 --------------------------------------------------------------

 Alpha MOs
 -- Occupied --
-91.9830 -91.9460 -11.2861 -11.2661 -11.2599 -11.2568 -11.2500 -11.2444
-11.2338 -11.2306 -11.2284 -11.2223  -8.9827  -8.9506  -6.6637  -6.6631
 -6.6625  -6.6320  -6.6310  -6.6297  -1.2011  -1.1524  -1.0588  -1.0317
 -1.0012  -0.9617  -0.9164  -0.8999  -0.8168  -0.7619  -0.7273  -0.7088
 -0.6555  -0.6478  -0.6107  -0.5944  -0.5876  -0.5691  -0.5597  -0.5506
 -0.5440  -0.5352  -0.5245  -0.5018  -0.4842  -0.4787  -0.4677  -0.4439
 -0.3606  -0.3429  -0.3239  -0.2630

          Ground-State Mulliken Net Atomic Charges

     Atom                 Charge (a.u.)
  ----------------------------------------
      1 C                    -0.073991
      2 C                    -0.316092
      3 C                    -0.062851
      4 H                     0.180021
      5 C                     0.127316
      6 S                    -0.180445
      7 C                    -0.299711
      8 H                     0.122506
      9 H                     0.100642
     10 H                     0.114418
     11 C                    -0.036562
     12 C                    -0.302638
     13 C                     0.052977
     14 H                     0.190799
     15 C                    -0.278968
     16 S                     0.013533
     17 C                    -0.271499
     18 H                     0.100608
     19 H                     0.108527
     20 H                     0.108400
     21 H                     0.196163
     22 H                     0.111716
     23 H                     0.113315
     24 H                     0.181819
  ----------------------------------------
  Sum of atomic charges =     0.000000

                    Cartesian Multipole Moments
 -----------------------------------------------------------------
    Charge (ESU x 10^10)
                -0.0000
    Dipole Moment (Debye)
         X       0.0730      Y      -0.2974      Z       3.9687
       Tot       3.9805
    Quadrupole Moments (Debye-Ang)
        XX     -90.5048     XY       4.0457     YY     -74.3679
        XZ       0.7742     YZ      -2.6389     ZZ     -85.7456

 Total job time:  55.18s(wall), 1941.71s(cpu)
        *  Thank you very much for using Q-Chem.  Have a nice day.  *
