 Q-Chem 5.4, Q-Chem, Inc., Pleasanton, CA (2021)
 Q-Chem 5.4.0 for Intel X86 EM64T Linux

User input:
--------------------------------------------------------------
$molecule
0 1
C	0.680396	-3.887800	0.248806
C	-0.621614	-3.701456	-0.225147
C	-1.019896	-2.345170	-0.370780
H	-1.285337	-4.545233	-0.466300
C	-0.000000	-1.450135	-0.000000
S	1.435271	-2.321334	0.522786
C	-2.378891	-1.934439	-0.865597
H	-3.003720	-2.819799	-1.092567
H	-2.313975	-1.326210	-1.791940
H	-2.924390	-1.325374	-0.114772
C	0.000000	0.000000	0.000000
C	0.540541	0.648986	1.113020
C	1.431046	1.717546	0.820578
H	0.292104	0.350827	2.142881
C	1.590053	1.908061	-0.563588
S	0.621066	0.745901	-1.464748
C	2.112618	2.535384	1.882380
H	1.825779	2.191315	2.894974
H	1.847090	3.610676	1.808137
H	3.218159	2.467925	1.808230
H	2.203332	2.644073	-1.097114
H	1.301772	-4.420219	-0.479986
H	0.687795	-4.419395	1.206964
H	0.369368	-1.450628	-1.014873
$end

$rem
JOBTYPE		SP
EXCHANGE	HF
CORRELATION	pRIMP2
BASIS		cc-pvtz
METHOD		rimp2
AUX_BASIS	rimp2-cc-pvtz
SOLVENT_METHOD	PCM
PURECART	11111
SYMMETRY	false
MEM_TOTAL	110000
SCF_CONVERGENCE = 6
THRESH=10
GUI = 2
$end

$solvent
dielectric 4.90
$end
--------------------------------------------------------------

             Standard Nuclear Orientation (Angstroms)
    I     Atom           X                Y                Z
 ----------------------------------------------------------------
    1      C       0.6803960000    -3.8878000000     0.2488060000
    2      C      -0.6216140000    -3.7014560000    -0.2251470000
    3      C      -1.0198960000    -2.3451700000    -0.3707800000
    4      H      -1.2853370000    -4.5452330000    -0.4663000000
    5      C       0.0000000000    -1.4501350000     0.0000000000
    6      S       1.4352710000    -2.3213340000     0.5227860000
    7      C      -2.3788910000    -1.9344390000    -0.8655970000
    8      H      -3.0037200000    -2.8197990000    -1.0925670000
    9      H      -2.3139750000    -1.3262100000    -1.7919400000
   10      H      -2.9243900000    -1.3253740000    -0.1147720000
   11      C       0.0000000000     0.0000000000     0.0000000000
   12      C       0.5405410000     0.6489860000     1.1130200000
   13      C       1.4310460000     1.7175460000     0.8205780000
   14      H       0.2921040000     0.3508270000     2.1428810000
   15      C       1.5900530000     1.9080610000    -0.5635880000
   16      S       0.6210660000     0.7459010000    -1.4647480000
   17      C       2.1126180000     2.5353840000     1.8823800000
   18      H       1.8257790000     2.1913150000     2.8949740000
   19      H       1.8470900000     3.6106760000     1.8081370000
   20      H       3.2181590000     2.4679250000     1.8082300000
   21      H       2.2033320000     2.6440730000    -1.0971140000
   22      H       1.3017720000    -4.4202190000    -0.4799860000
   23      H       0.6877950000    -4.4193950000     1.2069640000
   24      H       0.3693680000    -1.4506280000    -1.0148730000
 ----------------------------------------------------------------

   10   -1180.7292893075      6.05e-07  Convergence criterion met
 Total energy in the final basis set =    -1180.7292893075
        RIMP2         total energy =     -1182.7403349322 a.u.

                    Orbital Energies (a.u.)
 --------------------------------------------------------------

 Alpha MOs
 -- Occupied --
-91.9820 -91.9399 -11.2743 -11.2684 -11.2573 -11.2515 -11.2511 -11.2471
-11.2388 -11.2301 -11.2292 -11.2142  -8.9826  -8.9445  -6.6634  -6.6627
 -6.6622  -6.6258  -6.6248  -6.6235  -1.1996  -1.1537  -1.0576  -1.0247
 -1.0024  -0.9617  -0.9125  -0.9003  -0.8089  -0.7651  -0.7374  -0.7030
 -0.6514  -0.6320  -0.6127  -0.5874  -0.5773  -0.5749  -0.5673  -0.5515
 -0.5411  -0.5318  -0.5102  -0.5067  -0.4872  -0.4729  -0.4636  -0.4461
 -0.3560  -0.3399  -0.3172  -0.2735

          Ground-State Mulliken Net Atomic Charges

     Atom                 Charge (a.u.)
  ----------------------------------------
      1 C                    -0.074722
      2 C                    -0.332948
      3 C                    -0.041771
      4 H                     0.174296
      5 C                     0.070881
      6 S                    -0.181922
      7 C                    -0.273751
      8 H                     0.113426
      9 H                     0.100400
     10 H                     0.107707
     11 C                    -0.073282
     12 C                    -0.252612
     13 C                     0.049296
     14 H                     0.185593
     15 C                    -0.221226
     16 S                     0.010332
     17 C                    -0.267815
     18 H                     0.103149
     19 H                     0.107918
     20 H                     0.107661
     21 H                     0.200246
     22 H                     0.108844
     23 H                     0.108407
     24 H                     0.171892
  ----------------------------------------
  Sum of atomic charges =     0.000000

                    Cartesian Multipole Moments
 -----------------------------------------------------------------
    Charge (ESU x 10^10)
                -0.0000
    Dipole Moment (Debye)
         X      -0.4615      Y       0.9096      Z       0.1579
       Tot       1.0322
    Quadrupole Moments (Debye-Ang)
        XX     -86.8837     XY       8.6046     YY     -79.2212
        XZ       0.4410     YZ       3.3623     ZZ     -85.7537

 Total job time:  55.74s(wall), 1911.04s(cpu)
        *  Thank you very much for using Q-Chem.  Have a nice day.  *
