 Q-Chem 5.4, Q-Chem, Inc., Pleasanton, CA (2021)
 Q-Chem 5.4.0 for Intel X86 EM64T Linux

User input:
--------------------------------------------------------------
$molecule
0 1
C	-0.713264	-3.887800	-0.126876
C	0.651267	-3.701456	0.113784
C	1.068787	-2.345170	0.188043
H	1.346782	-4.545233	0.236019
C	-0.000000	-1.450135	-0.000000
S	-1.504247	-2.321334	-0.265612
C	2.493059	-1.934439	0.439357
H	3.147809	-2.819799	0.554378
H	2.589987	-1.326210	1.362899
H	2.899892	-1.325374	-0.394786
C	0.000000	0.000000	0.000000
C	0.215623	0.816623	1.113020
C	0.571102	2.161411	0.820578
H	0.116470	0.441406	2.142881
C	0.634696	2.401276	-0.563588
S	0.247646	0.938489	-1.464748
C	0.843182	3.190669	1.882380
H	0.728628	2.757614	2.894974
H	0.148095	4.052998	1.808137
H	1.873652	3.596752	1.808230
H	0.879464	3.327513	-1.097114
H	-1.198647	-4.420219	0.698744
H	-0.886933	-4.419395	-1.069193
H	-0.187526	-1.450628	1.063595
$end

$rem
JOBTYPE		SP
EXCHANGE	HF
CORRELATION	pRIMP2
BASIS		cc-pvtz
METHOD		rimp2
AUX_BASIS	rimp2-cc-pvtz
SOLVENT_METHOD	PCM
PURECART	11111
SYMMETRY	false
MEM_TOTAL	110000
SCF_CONVERGENCE = 6
THRESH=10
GUI = 2
$end

$solvent
dielectric 4.90
$end
--------------------------------------------------------------

             Standard Nuclear Orientation (Angstroms)
    I     Atom           X                Y                Z
 ----------------------------------------------------------------
    1      C      -0.7132640000    -3.8878000000    -0.1268760000
    2      C       0.6512670000    -3.7014560000     0.1137840000
    3      C       1.0687870000    -2.3451700000     0.1880430000
    4      H       1.3467820000    -4.5452330000     0.2360190000
    5      C       0.0000000000    -1.4501350000     0.0000000000
    6      S      -1.5042470000    -2.3213340000    -0.2656120000
    7      C       2.4930590000    -1.9344390000     0.4393570000
    8      H       3.1478090000    -2.8197990000     0.5543780000
    9      H       2.5899870000    -1.3262100000     1.3628990000
   10      H       2.8998920000    -1.3253740000    -0.3947860000
   11      C       0.0000000000     0.0000000000     0.0000000000
   12      C       0.2156230000     0.8166230000     1.1130200000
   13      C       0.5711020000     2.1614110000     0.8205780000
   14      H       0.1164700000     0.4414060000     2.1428810000
   15      C       0.6346960000     2.4012760000    -0.5635880000
   16      S       0.2476460000     0.9384890000    -1.4647480000
   17      C       0.8431820000     3.1906690000     1.8823800000
   18      H       0.7286280000     2.7576140000     2.8949740000
   19      H       0.1480950000     4.0529980000     1.8081370000
   20      H       1.8736520000     3.5967520000     1.8082300000
   21      H       0.8794640000     3.3275130000    -1.0971140000
   22      H      -1.1986470000    -4.4202190000     0.6987440000
   23      H      -0.8869330000    -4.4193950000    -1.0691930000
   24      H      -0.1875260000    -1.4506280000     1.0635950000
 ----------------------------------------------------------------

   10   -1180.7617295419      5.14e-07  Convergence criterion met
 Total energy in the final basis set =    -1180.7617295419
        RIMP2         total energy =     -1182.7671174825 a.u.

                    Orbital Energies (a.u.)
 --------------------------------------------------------------

 Alpha MOs
 -- Occupied --
-91.9806 -91.9404 -11.2800 -11.2670 -11.2625 -11.2559 -11.2514 -11.2448
-11.2407 -11.2310 -11.2299 -11.2194  -8.9806  -8.9451  -6.6615  -6.6610
 -6.6604  -6.6265  -6.6254  -6.6242  -1.1974  -1.1541  -1.0571  -1.0252
 -1.0058  -0.9607  -0.9115  -0.9016  -0.8140  -0.7600  -0.7358  -0.7035
 -0.6597  -0.6407  -0.6109  -0.5897  -0.5804  -0.5718  -0.5651  -0.5508
 -0.5411  -0.5287  -0.5159  -0.5053  -0.4921  -0.4792  -0.4600  -0.4481
 -0.3552  -0.3416  -0.3138  -0.2817

          Ground-State Mulliken Net Atomic Charges

     Atom                 Charge (a.u.)
  ----------------------------------------
      1 C                    -0.077060
      2 C                    -0.328857
      3 C                    -0.013024
      4 H                     0.176990
      5 C                     0.069109
      6 S                    -0.178969
      7 C                    -0.267897
      8 H                     0.114594
      9 H                     0.100704
     10 H                     0.109701
     11 C                    -0.067107
     12 C                    -0.252106
     13 C                     0.026187
     14 H                     0.182628
     15 C                    -0.236048
     16 S                     0.004585
     17 C                    -0.271161
     18 H                     0.102133
     19 H                     0.108735
     20 H                     0.108061
     21 H                     0.197868
     22 H                     0.110741
     23 H                     0.111408
     24 H                     0.168783
  ----------------------------------------
  Sum of atomic charges =     0.000000

                    Cartesian Multipole Moments
 -----------------------------------------------------------------
    Charge (ESU x 10^10)
                -0.0000
    Dipole Moment (Debye)
         X       2.7770      Y       0.6724      Z       2.7544
       Tot       3.9687
    Quadrupole Moments (Debye-Ang)
        XX     -90.9986     XY      -0.7950     YY     -74.4095
        XZ       0.0277     YZ      -0.8551     ZZ     -86.1543

 Total job time:  60.02s(wall), 2163.76s(cpu)
        *  Thank you very much for using Q-Chem.  Have a nice day.  *
