 Q-Chem 5.4, Q-Chem, Inc., Pleasanton, CA (2021)
 Q-Chem 5.4.0 for Intel X86 EM64T Linux

User input:
--------------------------------------------------------------
$molecule
0 1
C	-0.361285	-3.887800	-0.627947
C	0.331462	-3.701456	0.572038
C	0.542953	-2.345170	0.939610
H	0.684893	-4.545233	1.183405
C	0.000000	-1.450135	0.000000
S	-0.763441	-2.321334	-1.323052
C	1.265941	-1.934439	2.192207
H	1.598695	-2.819799	2.767709
H	0.620770	-1.326210	2.860100
H	2.166438	-1.325374	1.967682
C	0.000000	0.000000	0.000000
C	0.354153	0.766774	1.113020
C	0.937751	2.029404	0.820578
H	0.191350	0.414475	2.142881
C	1.042030	2.254581	-0.563588
S	0.406851	0.881228	-1.464748
C	1.384426	2.995779	1.882380
H	1.196413	2.589194	2.894974
H	0.849641	3.965707	1.808137
H	2.469756	3.216753	1.808230
H	1.443919	3.124243	-1.097114
H	-1.305744	-4.420219	-0.469073
H	0.248940	-4.419395	-1.366694
H	-0.935300	-1.450628	0.540012
$end

$rem
JOBTYPE		SP
EXCHANGE	HF
CORRELATION	pRIMP2
BASIS		cc-pvtz
METHOD		rimp2
AUX_BASIS	rimp2-cc-pvtz
SOLVENT_METHOD	PCM
PURECART	11111
SYMMETRY	false
MEM_TOTAL	110000
SCF_CONVERGENCE = 6
THRESH=10
GUI = 2
$end

$solvent
dielectric 4.90
$end
--------------------------------------------------------------

             Standard Nuclear Orientation (Angstroms)
    I     Atom           X                Y                Z
 ----------------------------------------------------------------
    1      C      -0.3612850000    -3.8878000000    -0.6279470000
    2      C       0.3314620000    -3.7014560000     0.5720380000
    3      C       0.5429530000    -2.3451700000     0.9396100000
    4      H       0.6848930000    -4.5452330000     1.1834050000
    5      C       0.0000000000    -1.4501350000     0.0000000000
    6      S      -0.7634410000    -2.3213340000    -1.3230520000
    7      C       1.2659410000    -1.9344390000     2.1922070000
    8      H       1.5986950000    -2.8197990000     2.7677090000
    9      H       0.6207700000    -1.3262100000     2.8601000000
   10      H       2.1664380000    -1.3253740000     1.9676820000
   11      C       0.0000000000     0.0000000000     0.0000000000
   12      C       0.3541530000     0.7667740000     1.1130200000
   13      C       0.9377510000     2.0294040000     0.8205780000
   14      H       0.1913500000     0.4144750000     2.1428810000
   15      C       1.0420300000     2.2545810000    -0.5635880000
   16      S       0.4068510000     0.8812280000    -1.4647480000
   17      C       1.3844260000     2.9957790000     1.8823800000
   18      H       1.1964130000     2.5891940000     2.8949740000
   19      H       0.8496410000     3.9657070000     1.8081370000
   20      H       2.4697560000     3.2167530000     1.8082300000
   21      H       1.4439190000     3.1242430000    -1.0971140000
   22      H      -1.3057440000    -4.4202190000    -0.4690730000
   23      H       0.2489400000    -4.4193950000    -1.3666940000
   24      H      -0.9353000000    -1.4506280000     0.5400120000
 ----------------------------------------------------------------

   10   -1180.7435517108      5.56e-07  Convergence criterion met
 Total energy in the final basis set =    -1180.7435517108
        RIMP2         total energy =     -1182.7543499011 a.u.

                    Orbital Energies (a.u.)
 --------------------------------------------------------------

 Alpha MOs
 -- Occupied --
-91.9812 -91.9439 -11.2816 -11.2647 -11.2617 -11.2578 -11.2510 -11.2429
-11.2370 -11.2323 -11.2292 -11.2206  -8.9810  -8.9485  -6.6620  -6.6614
 -6.6608  -6.6299  -6.6289  -6.6276  -1.1999  -1.1530  -1.0581  -1.0296
 -1.0019  -0.9620  -0.9143  -0.9006  -0.8153  -0.7609  -0.7285  -0.7093
 -0.6555  -0.6457  -0.6113  -0.5925  -0.5885  -0.5703  -0.5589  -0.5527
 -0.5413  -0.5332  -0.5220  -0.5052  -0.4830  -0.4764  -0.4644  -0.4454
 -0.3577  -0.3419  -0.3229  -0.2666

          Ground-State Mulliken Net Atomic Charges

     Atom                 Charge (a.u.)
  ----------------------------------------
      1 C                    -0.073233
      2 C                    -0.321296
      3 C                    -0.066197
      4 H                     0.179240
      5 C                     0.117684
      6 S                    -0.180072
      7 C                    -0.293068
      8 H                     0.120869
      9 H                     0.096614
     10 H                     0.117865
     11 C                    -0.038133
     12 C                    -0.311738
     13 C                     0.053941
     14 H                     0.192518
     15 C                    -0.258801
     16 S                     0.015626
     17 C                    -0.271991
     18 H                     0.101314
     19 H                     0.109052
     20 H                     0.108244
     21 H                     0.195865
     22 H                     0.110887
     23 H                     0.111695
     24 H                     0.183117
  ----------------------------------------
  Sum of atomic charges =     0.000000

                    Cartesian Multipole Moments
 -----------------------------------------------------------------
    Charge (ESU x 10^10)
                -0.0000
    Dipole Moment (Debye)
         X       1.2187      Y       0.0744      Z       4.0531
       Tot       4.2331
    Quadrupole Moments (Debye-Ang)
        XX     -89.5927     XY       3.4943     YY     -75.3700
        XZ       0.8288     YZ      -2.7098     ZZ     -86.1272

 Total job time:  55.62s(wall), 1938.77s(cpu)
        *  Thank you very much for using Q-Chem.  Have a nice day.  *
