 Q-Chem 5.4, Q-Chem, Inc., Pleasanton, CA (2021)
 Q-Chem 5.4.0 for Intel X86 EM64T Linux

User input:
--------------------------------------------------------------
$molecule
0 1
C	0.246754	-3.887800	0.681143
C	-0.227093	-3.701456	-0.620906
C	-0.371543	-2.345170	-1.019618
H	-0.468992	-4.545233	-1.284357
C	0.000000	-1.450135	0.000000
S	0.522097	-2.321334	1.435522
C	-0.866035	-1.934439	-2.378731
H	-1.093799	-2.819799	-3.003272
H	-0.114688	-1.326210	-2.924444
H	-1.791841	-1.325374	-2.313987
C	0.000000	0.000000	0.000000
C	0.645024	0.545262	1.113020
C	1.707554	1.442954	0.820578
H	0.348587	0.294774	2.142881
C	1.897227	1.602964	-0.563588
S	0.741155	0.626722	-1.464748
C	2.520787	2.130014	1.882380
H	2.178559	1.840981	2.894974
H	2.446016	3.235078	1.808137
H	3.597818	1.871604	1.808230
H	2.628997	2.221299	-1.097114
H	1.204454	-4.420219	0.688686
H	-0.482482	-4.419395	1.302703
H	1.014863	-1.450628	-0.369395
$end

$rem
JOBTYPE		SP
EXCHANGE	HF
CORRELATION	pRIMP2
BASIS		cc-pvtz
METHOD		rimp2
AUX_BASIS	rimp2-cc-pvtz
SOLVENT_METHOD	PCM
PURECART	11111
SYMMETRY	false
MEM_TOTAL	110000
SCF_CONVERGENCE = 6
THRESH=10
GUI = 2
$end

$solvent
dielectric 4.90
$end
--------------------------------------------------------------

             Standard Nuclear Orientation (Angstroms)
    I     Atom           X                Y                Z
 ----------------------------------------------------------------
    1      C       0.2467540000    -3.8878000000     0.6811430000
    2      C      -0.2270930000    -3.7014560000    -0.6209060000
    3      C      -0.3715430000    -2.3451700000    -1.0196180000
    4      H      -0.4689920000    -4.5452330000    -1.2843570000
    5      C       0.0000000000    -1.4501350000     0.0000000000
    6      S       0.5220970000    -2.3213340000     1.4355220000
    7      C      -0.8660350000    -1.9344390000    -2.3787310000
    8      H      -1.0937990000    -2.8197990000    -3.0032720000
    9      H      -0.1146880000    -1.3262100000    -2.9244440000
   10      H      -1.7918410000    -1.3253740000    -2.3139870000
   11      C       0.0000000000     0.0000000000     0.0000000000
   12      C       0.6450240000     0.5452620000     1.1130200000
   13      C       1.7075540000     1.4429540000     0.8205780000
   14      H       0.3485870000     0.2947740000     2.1428810000
   15      C       1.8972270000     1.6029640000    -0.5635880000
   16      S       0.7411550000     0.6267220000    -1.4647480000
   17      C       2.5207870000     2.1300140000     1.8823800000
   18      H       2.1785590000     1.8409810000     2.8949740000
   19      H       2.4460160000     3.2350780000     1.8081370000
   20      H       3.5978180000     1.8716040000     1.8082300000
   21      H       2.6289970000     2.2212990000    -1.0971140000
   22      H       1.2044540000    -4.4202190000     0.6886860000
   23      H      -0.4824820000    -4.4193950000     1.3027030000
   24      H       1.0148630000    -1.4506280000    -0.3693950000
 ----------------------------------------------------------------

   10   -1180.7111787127      8.06e-07  Convergence criterion met
 Total energy in the final basis set =    -1180.7111787127
        RIMP2         total energy =     -1182.7293906221 a.u.

                    Orbital Energies (a.u.)
 --------------------------------------------------------------

 Alpha MOs
 -- Occupied --
-91.9757 -91.9429 -11.2737 -11.2727 -11.2583 -11.2570 -11.2528 -11.2451
-11.2404 -11.2302 -11.2293 -11.2192  -8.9772  -8.9474  -6.6580  -6.6573
 -6.6568  -6.6287  -6.6277  -6.6265  -1.2069  -1.1537  -1.0605  -1.0270
 -1.0058  -0.9571  -0.9146  -0.9030  -0.8085  -0.7732  -0.7234  -0.7032
 -0.6562  -0.6454  -0.6137  -0.5898  -0.5820  -0.5747  -0.5699  -0.5514
 -0.5419  -0.5354  -0.5165  -0.5112  -0.4883  -0.4669  -0.4583  -0.4395
 -0.3589  -0.3414  -0.3284  -0.2617

          Ground-State Mulliken Net Atomic Charges

     Atom                 Charge (a.u.)
  ----------------------------------------
      1 C                    -0.080460
      2 C                    -0.315574
      3 C                    -0.067615
      4 H                     0.176475
      5 C                     0.110380
      6 S                    -0.192689
      7 C                    -0.295041
      8 H                     0.115860
      9 H                     0.108632
     10 H                     0.115957
     11 C                    -0.046858
     12 C                    -0.257607
     13 C                     0.031248
     14 H                     0.185206
     15 C                    -0.230664
     16 S                    -0.001992
     17 C                    -0.267712
     18 H                     0.103813
     19 H                     0.109056
     20 H                     0.108145
     21 H                     0.199058
     22 H                     0.109762
     23 H                     0.111098
     24 H                     0.171523
  ----------------------------------------
  Sum of atomic charges =     0.000000

                    Cartesian Multipole Moments
 -----------------------------------------------------------------
    Charge (ESU x 10^10)
                -0.0000
    Dipole Moment (Debye)
         X       1.6279      Y       0.0282      Z      -0.8354
       Tot       1.8300
    Quadrupole Moments (Debye-Ang)
        XX     -84.8965     XY       5.5802     YY     -79.8104
        XZ       1.1806     YZ       4.8472     ZZ     -85.7446

 Total job time:  55.02s(wall), 1952.62s(cpu)
        *  Thank you very much for using Q-Chem.  Have a nice day.  *
