 Q-Chem 5.4, Q-Chem, Inc., Pleasanton, CA (2021)
 Q-Chem 5.4.0 for Intel X86 EM64T Linux

User input:
--------------------------------------------------------------
$molecule
0 1
C	-0.361285	-3.887800	-0.627947
C	0.331462	-3.701456	0.572038
C	0.542953	-2.345170	0.939610
H	0.684893	-4.545233	1.183405
C	0.000000	-1.450135	0.000000
S	-0.763441	-2.321334	-1.323052
C	1.265941	-1.934439	2.192207
H	1.598695	-2.819799	2.767709
H	0.620770	-1.326210	2.860100
H	2.166438	-1.325374	1.967682
C	0.000000	0.000000	0.000000
C	0.285976	0.794723	1.113020
C	0.757308	2.103412	0.820578
H	0.154498	0.429575	2.142881
C	0.841565	2.336821	-0.563588
S	0.328498	0.913334	-1.464748
C	1.118059	3.105040	1.882380
H	0.966197	2.683616	2.894974
H	0.500773	4.024668	1.808137
H	2.180000	3.419766	1.808230
H	1.166129	3.238200	-1.097114
H	-1.305744	-4.420219	-0.469073
H	0.248940	-4.419395	-1.366694
H	-0.935300	-1.450628	0.540012
$end

$rem
JOBTYPE		SP
EXCHANGE	HF
CORRELATION	pRIMP2
BASIS		cc-pvtz
METHOD		rimp2
AUX_BASIS	rimp2-cc-pvtz
SOLVENT_METHOD	PCM
PURECART	11111
SYMMETRY	false
MEM_TOTAL	110000
SCF_CONVERGENCE = 6
THRESH=10
GUI = 2
$end

$solvent
dielectric 4.90
$end
--------------------------------------------------------------

             Standard Nuclear Orientation (Angstroms)
    I     Atom           X                Y                Z
 ----------------------------------------------------------------
    1      C      -0.3612850000    -3.8878000000    -0.6279470000
    2      C       0.3314620000    -3.7014560000     0.5720380000
    3      C       0.5429530000    -2.3451700000     0.9396100000
    4      H       0.6848930000    -4.5452330000     1.1834050000
    5      C       0.0000000000    -1.4501350000     0.0000000000
    6      S      -0.7634410000    -2.3213340000    -1.3230520000
    7      C       1.2659410000    -1.9344390000     2.1922070000
    8      H       1.5986950000    -2.8197990000     2.7677090000
    9      H       0.6207700000    -1.3262100000     2.8601000000
   10      H       2.1664380000    -1.3253740000     1.9676820000
   11      C       0.0000000000     0.0000000000     0.0000000000
   12      C       0.2859760000     0.7947230000     1.1130200000
   13      C       0.7573080000     2.1034120000     0.8205780000
   14      H       0.1544980000     0.4295750000     2.1428810000
   15      C       0.8415650000     2.3368210000    -0.5635880000
   16      S       0.3284980000     0.9133340000    -1.4647480000
   17      C       1.1180590000     3.1050400000     1.8823800000
   18      H       0.9661970000     2.6836160000     2.8949740000
   19      H       0.5007730000     4.0246680000     1.8081370000
   20      H       2.1800000000     3.4197660000     1.8082300000
   21      H       1.1661290000     3.2382000000    -1.0971140000
   22      H      -1.3057440000    -4.4202190000    -0.4690730000
   23      H       0.2489400000    -4.4193950000    -1.3666940000
   24      H      -0.9353000000    -1.4506280000     0.5400120000
 ----------------------------------------------------------------

   10   -1180.7490126112      5.23e-07  Convergence criterion met
 Total energy in the final basis set =    -1180.7490126112
        RIMP2         total energy =     -1182.7581216806 a.u.

                    Orbital Energies (a.u.)
 --------------------------------------------------------------

 Alpha MOs
 -- Occupied --
-91.9819 -91.9445 -11.2840 -11.2651 -11.2597 -11.2588 -11.2508 -11.2433
-11.2354 -11.2325 -11.2290 -11.2213  -8.9817  -8.9491  -6.6626  -6.6620
 -6.6614  -6.6305  -6.6295  -6.6283  -1.2000  -1.1529  -1.0583  -1.0297
 -1.0022  -0.9617  -0.9145  -0.9005  -0.8160  -0.7611  -0.7280  -0.7088
 -0.6564  -0.6461  -0.6112  -0.5925  -0.5879  -0.5701  -0.5590  -0.5530
 -0.5416  -0.5333  -0.5216  -0.5047  -0.4834  -0.4791  -0.4649  -0.4457
 -0.3581  -0.3422  -0.3229  -0.2671

          Ground-State Mulliken Net Atomic Charges

     Atom                 Charge (a.u.)
  ----------------------------------------
      1 C                    -0.073599
      2 C                    -0.319173
      3 C                    -0.066766
      4 H                     0.179270
      5 C                     0.124091
      6 S                    -0.178879
      7 C                    -0.292352
      8 H                     0.120697
      9 H                     0.096930
     10 H                     0.117890
     11 C                    -0.041643
     12 C                    -0.307886
     13 C                     0.051010
     14 H                     0.191324
     15 C                    -0.264001
     16 S                     0.015012
     17 C                    -0.272336
     18 H                     0.101189
     19 H                     0.108840
     20 H                     0.108446
     21 H                     0.195720
     22 H                     0.111434
     23 H                     0.111881
     24 H                     0.182901
  ----------------------------------------
  Sum of atomic charges =     0.000000

                    Cartesian Multipole Moments
 -----------------------------------------------------------------
    Charge (ESU x 10^10)
                -0.0000
    Dipole Moment (Debye)
         X       1.0392      Y      -0.0166      Z       4.0141
       Tot       4.1464
    Quadrupole Moments (Debye-Ang)
        XX     -90.2478     XY       2.8190     YY     -74.6024
        XZ       0.7361     YZ      -2.6658     ZZ     -86.1336

 Total job time:  59.26s(wall), 1947.00s(cpu)
        *  Thank you very much for using Q-Chem.  Have a nice day.  *
