 Q-Chem 5.4, Q-Chem, Inc., Pleasanton, CA (2021)
 Q-Chem 5.4.0 for Intel X86 EM64T Linux

User input:
--------------------------------------------------------------
$molecule
0 1
C	0.713264	-3.887800	0.126876
C	-0.651267	-3.701456	-0.113784
C	-1.068787	-2.345170	-0.188043
H	-1.346782	-4.545233	-0.236019
C	-0.000000	-1.450135	-0.000000
S	1.504247	-2.321334	0.265612
C	-2.493059	-1.934439	-0.439357
H	-3.147809	-2.819799	-0.554378
H	-2.589987	-1.326210	-1.362899
H	-2.899892	-1.325374	0.394786
C	0.000000	0.000000	0.000000
C	0.070542	0.841660	1.113020
C	0.187101	2.227746	0.820578
H	0.038051	0.454925	2.142881
C	0.208076	2.475009	-0.563588
S	0.080917	0.967235	-1.464748
C	0.276318	3.288613	1.882380
H	0.238704	2.842244	2.894974
H	-0.557951	4.017140	1.808137
H	1.220618	3.867466	1.808230
H	0.288286	3.429678	-1.097114
H	1.198647	-4.420219	-0.698744
H	0.886933	-4.419395	1.069193
H	0.187526	-1.450628	-1.063595
$end

$rem
JOBTYPE		SP
EXCHANGE	HF
CORRELATION	pRIMP2
BASIS		cc-pvtz
METHOD		rimp2
AUX_BASIS	rimp2-cc-pvtz
SOLVENT_METHOD	PCM
PURECART	11111
SYMMETRY	false
MEM_TOTAL	110000
SCF_CONVERGENCE = 6
THRESH=10
GUI = 2
$end

$solvent
dielectric 4.90
$end
--------------------------------------------------------------

             Standard Nuclear Orientation (Angstroms)
    I     Atom           X                Y                Z
 ----------------------------------------------------------------
    1      C       0.7132640000    -3.8878000000     0.1268760000
    2      C      -0.6512670000    -3.7014560000    -0.1137840000
    3      C      -1.0687870000    -2.3451700000    -0.1880430000
    4      H      -1.3467820000    -4.5452330000    -0.2360190000
    5      C       0.0000000000    -1.4501350000     0.0000000000
    6      S       1.5042470000    -2.3213340000     0.2656120000
    7      C      -2.4930590000    -1.9344390000    -0.4393570000
    8      H      -3.1478090000    -2.8197990000    -0.5543780000
    9      H      -2.5899870000    -1.3262100000    -1.3628990000
   10      H      -2.8998920000    -1.3253740000     0.3947860000
   11      C       0.0000000000     0.0000000000     0.0000000000
   12      C       0.0705420000     0.8416600000     1.1130200000
   13      C       0.1871010000     2.2277460000     0.8205780000
   14      H       0.0380510000     0.4549250000     2.1428810000
   15      C       0.2080760000     2.4750090000    -0.5635880000
   16      S       0.0809170000     0.9672350000    -1.4647480000
   17      C       0.2763180000     3.2886130000     1.8823800000
   18      H       0.2387040000     2.8422440000     2.8949740000
   19      H      -0.5579510000     4.0171400000     1.8081370000
   20      H       1.2206180000     3.8674660000     1.8082300000
   21      H       0.2882860000     3.4296780000    -1.0971140000
   22      H       1.1986470000    -4.4202190000    -0.6987440000
   23      H       0.8869330000    -4.4193950000     1.0691930000
   24      H       0.1875260000    -1.4506280000    -1.0635950000
 ----------------------------------------------------------------

   10   -1180.7611190531      5.00e-07  Convergence criterion met
 Total energy in the final basis set =    -1180.7611190531
        RIMP2         total energy =     -1182.7648177945 a.u.

                    Orbital Energies (a.u.)
 --------------------------------------------------------------

 Alpha MOs
 -- Occupied --
-91.9869 -91.9422 -11.2793 -11.2655 -11.2621 -11.2557 -11.2511 -11.2411
-11.2378 -11.2311 -11.2288 -11.2185  -8.9865  -8.9467  -6.6674  -6.6669
 -6.6662  -6.6281  -6.6271  -6.6258  -1.1971  -1.1537  -1.0575  -1.0255
 -1.0034  -0.9621  -0.9132  -0.9005  -0.8123  -0.7636  -0.7380  -0.7036
 -0.6537  -0.6340  -0.6112  -0.5879  -0.5765  -0.5727  -0.5689  -0.5530
 -0.5419  -0.5296  -0.5121  -0.5050  -0.4913  -0.4835  -0.4633  -0.4487
 -0.3562  -0.3411  -0.3133  -0.2817

          Ground-State Mulliken Net Atomic Charges

     Atom                 Charge (a.u.)
  ----------------------------------------
      1 C                    -0.075936
      2 C                    -0.329662
      3 C                    -0.034071
      4 H                     0.176931
      5 C                     0.115979
      6 S                    -0.175796
      7 C                    -0.266068
      8 H                     0.112412
      9 H                     0.100889
     10 H                     0.106646
     11 C                    -0.117706
     12 C                    -0.220192
     13 C                     0.020379
     14 H                     0.184839
     15 C                    -0.244911
     16 S                     0.015761
     17 C                    -0.272109
     18 H                     0.103150
     19 H                     0.107596
     20 H                     0.108347
     21 H                     0.199252
     22 H                     0.110635
     23 H                     0.112059
     24 H                     0.161576
  ----------------------------------------
  Sum of atomic charges =     0.000000

                    Cartesian Multipole Moments
 -----------------------------------------------------------------
    Charge (ESU x 10^10)
                -0.0000
    Dipole Moment (Debye)
         X      -2.0864      Y       0.7330      Z       0.3342
       Tot       2.2365
    Quadrupole Moments (Debye-Ang)
        XX     -91.5601     XY       4.3002     YY     -73.7920
        XZ      -0.1494     YZ       3.0919     ZZ     -86.0115

 Total job time:  56.39s(wall), 1886.89s(cpu)
        *  Thank you very much for using Q-Chem.  Have a nice day.  *
