 Q-Chem 5.4, Q-Chem, Inc., Pleasanton, CA (2021)
 Q-Chem 5.4.0 for Intel X86 EM64T Linux

User input:
--------------------------------------------------------------
$molecule
0 1
C	-0.627947	-3.887800	0.361285
C	0.572038	-3.701456	-0.331462
C	0.939610	-2.345170	-0.542953
H	1.183405	-4.545233	-0.684893
C	0.000000	-1.450135	0.000000
S	-1.323052	-2.321334	0.763441
C	2.192207	-1.934439	-1.265941
H	2.767709	-2.819799	-1.598695
H	2.860100	-1.326210	-0.620770
H	1.967682	-1.325374	-2.166438
C	0.000000	0.000000	0.000000
C	0.143630	0.832309	1.113020
C	0.380550	2.202961	0.820578
H	0.077556	0.449877	2.142881
C	0.422995	2.447456	-0.563588
S	0.164909	0.956502	-1.464748
C	0.561888	3.252016	1.882380
H	0.485513	2.810624	2.894974
H	-0.205711	4.050482	1.808137
H	1.553045	3.746365	1.808230
H	0.586105	3.391501	-1.097114
H	-0.469073	-4.420219	1.305744
H	-1.366694	-4.419395	-0.248940
H	0.540012	-1.450628	0.935300
$end

$rem
JOBTYPE		SP
EXCHANGE	HF
CORRELATION	pRIMP2
BASIS		cc-pvtz
METHOD		rimp2
AUX_BASIS	rimp2-cc-pvtz
SOLVENT_METHOD	PCM
PURECART	11111
SYMMETRY	false
MEM_TOTAL	110000
SCF_CONVERGENCE = 6
THRESH=10
GUI = 2
$end

$solvent
dielectric 4.90
$end
--------------------------------------------------------------

             Standard Nuclear Orientation (Angstroms)
    I     Atom           X                Y                Z
 ----------------------------------------------------------------
    1      C      -0.6279470000    -3.8878000000     0.3612850000
    2      C       0.5720380000    -3.7014560000    -0.3314620000
    3      C       0.9396100000    -2.3451700000    -0.5429530000
    4      H       1.1834050000    -4.5452330000    -0.6848930000
    5      C       0.0000000000    -1.4501350000     0.0000000000
    6      S      -1.3230520000    -2.3213340000     0.7634410000
    7      C       2.1922070000    -1.9344390000    -1.2659410000
    8      H       2.7677090000    -2.8197990000    -1.5986950000
    9      H       2.8601000000    -1.3262100000    -0.6207700000
   10      H       1.9676820000    -1.3253740000    -2.1664380000
   11      C       0.0000000000     0.0000000000     0.0000000000
   12      C       0.1436300000     0.8323090000     1.1130200000
   13      C       0.3805500000     2.2029610000     0.8205780000
   14      H       0.0775560000     0.4498770000     2.1428810000
   15      C       0.4229950000     2.4474560000    -0.5635880000
   16      S       0.1649090000     0.9565020000    -1.4647480000
   17      C       0.5618880000     3.2520160000     1.8823800000
   18      H       0.4855130000     2.8106240000     2.8949740000
   19      H      -0.2057110000     4.0504820000     1.8081370000
   20      H       1.5530450000     3.7463650000     1.8082300000
   21      H       0.5861050000     3.3915010000    -1.0971140000
   22      H      -0.4690730000    -4.4202190000     1.3057440000
   23      H      -1.3666940000    -4.4193950000    -0.2489400000
   24      H       0.5400120000    -1.4506280000     0.9353000000
 ----------------------------------------------------------------

   10   -1180.7607037565      5.00e-07  Convergence criterion met
 Total energy in the final basis set =    -1180.7607037565
        RIMP2         total energy =     -1182.7661556490 a.u.

                    Orbital Energies (a.u.)
 --------------------------------------------------------------

 Alpha MOs
 -- Occupied --
-91.9822 -91.9420 -11.2838 -11.2633 -11.2622 -11.2567 -11.2510 -11.2416
-11.2395 -11.2309 -11.2291 -11.2201  -8.9820  -8.9466  -6.6629  -6.6624
 -6.6618  -6.6280  -6.6270  -6.6257  -1.1983  -1.1534  -1.0576  -1.0250
 -1.0074  -0.9582  -0.9126  -0.9015  -0.8135  -0.7653  -0.7304  -0.7006
 -0.6613  -0.6417  -0.6106  -0.5873  -0.5796  -0.5728  -0.5675  -0.5512
 -0.5415  -0.5308  -0.5144  -0.5053  -0.4938  -0.4808  -0.4587  -0.4494
 -0.3557  -0.3430  -0.3173  -0.2741

          Ground-State Mulliken Net Atomic Charges

     Atom                 Charge (a.u.)
  ----------------------------------------
      1 C                    -0.076411
      2 C                    -0.326738
      3 C                    -0.019848
      4 H                     0.177860
      5 C                     0.073007
      6 S                    -0.178249
      7 C                    -0.274414
      8 H                     0.114824
      9 H                     0.106870
     10 H                     0.108283
     11 C                    -0.063298
     12 C                    -0.252336
     13 C                     0.025266
     14 H                     0.182363
     15 C                    -0.246604
     16 S                     0.007760
     17 C                    -0.271289
     18 H                     0.102505
     19 H                     0.108646
     20 H                     0.107827
     21 H                     0.196794
     22 H                     0.110475
     23 H                     0.112726
     24 H                     0.173981
  ----------------------------------------
  Sum of atomic charges =     0.000000

                    Cartesian Multipole Moments
 -----------------------------------------------------------------
    Charge (ESU x 10^10)
                -0.0000
    Dipole Moment (Debye)
         X       2.8206      Y       0.3807      Z       0.9518
       Tot       3.0011
    Quadrupole Moments (Debye-Ang)
        XX     -91.7103     XY      -2.2428     YY     -74.2175
        XZ      -0.0221     YZ       1.8932     ZZ     -85.6532

 Total job time:  53.26s(wall), 1898.62s(cpu)
        *  Thank you very much for using Q-Chem.  Have a nice day.  *
