 Q-Chem 5.4, Q-Chem, Inc., Pleasanton, CA (2021)
 Q-Chem 5.4.0 for Intel X86 EM64T Linux

User input:
--------------------------------------------------------------
$molecule
0 1
C	-0.680396	-3.887800	-0.248806
C	0.621614	-3.701456	0.225147
C	1.019896	-2.345170	0.370780
H	1.285337	-4.545233	0.466300
C	-0.000000	-1.450135	-0.000000
S	-1.435271	-2.321334	-0.522786
C	2.378891	-1.934439	0.865597
H	3.003720	-2.819799	1.092567
H	2.313975	-1.326210	1.791940
H	2.924390	-1.325374	0.114772
C	0.000000	0.000000	0.000000
C	0.540541	0.648986	1.113020
C	1.431046	1.717546	0.820578
H	0.292104	0.350827	2.142881
C	1.590053	1.908061	-0.563588
S	0.621066	0.745901	-1.464748
C	2.112618	2.535384	1.882380
H	1.825779	2.191315	2.894974
H	1.847090	3.610676	1.808137
H	3.218159	2.467925	1.808230
H	2.203332	2.644073	-1.097114
H	-1.301772	-4.420219	0.479986
H	-0.687795	-4.419395	-1.206964
H	-0.369368	-1.450628	1.014873
$end

$rem
JOBTYPE		SP
EXCHANGE	HF
CORRELATION	pRIMP2
BASIS		cc-pvtz
METHOD		rimp2
AUX_BASIS	rimp2-cc-pvtz
SOLVENT_METHOD	PCM
PURECART	11111
SYMMETRY	false
MEM_TOTAL	110000
SCF_CONVERGENCE = 6
THRESH=10
GUI = 2
$end

$solvent
dielectric 4.90
$end
--------------------------------------------------------------

             Standard Nuclear Orientation (Angstroms)
    I     Atom           X                Y                Z
 ----------------------------------------------------------------
    1      C      -0.6803960000    -3.8878000000    -0.2488060000
    2      C       0.6216140000    -3.7014560000     0.2251470000
    3      C       1.0198960000    -2.3451700000     0.3707800000
    4      H       1.2853370000    -4.5452330000     0.4663000000
    5      C       0.0000000000    -1.4501350000     0.0000000000
    6      S      -1.4352710000    -2.3213340000    -0.5227860000
    7      C       2.3788910000    -1.9344390000     0.8655970000
    8      H       3.0037200000    -2.8197990000     1.0925670000
    9      H       2.3139750000    -1.3262100000     1.7919400000
   10      H       2.9243900000    -1.3253740000     0.1147720000
   11      C       0.0000000000     0.0000000000     0.0000000000
   12      C       0.5405410000     0.6489860000     1.1130200000
   13      C       1.4310460000     1.7175460000     0.8205780000
   14      H       0.2921040000     0.3508270000     2.1428810000
   15      C       1.5900530000     1.9080610000    -0.5635880000
   16      S       0.6210660000     0.7459010000    -1.4647480000
   17      C       2.1126180000     2.5353840000     1.8823800000
   18      H       1.8257790000     2.1913150000     2.8949740000
   19      H       1.8470900000     3.6106760000     1.8081370000
   20      H       3.2181590000     2.4679250000     1.8082300000
   21      H       2.2033320000     2.6440730000    -1.0971140000
   22      H      -1.3017720000    -4.4202190000     0.4799860000
   23      H      -0.6877950000    -4.4193950000    -1.2069640000
   24      H      -0.3693680000    -1.4506280000     1.0148730000
 ----------------------------------------------------------------

   10   -1180.7346522377      6.86e-07  Convergence criterion met
 Total energy in the final basis set =    -1180.7346522377
        RIMP2         total energy =     -1182.7482528282 a.u.

                    Orbital Energies (a.u.)
 --------------------------------------------------------------

 Alpha MOs
 -- Occupied --
-91.9789 -91.9363 -11.2764 -11.2685 -11.2607 -11.2533 -11.2532 -11.2521
-11.2385 -11.2311 -11.2301 -11.2178  -8.9793  -8.9411  -6.6602  -6.6595
 -6.6590  -6.6225  -6.6215  -6.6203  -1.1992  -1.1545  -1.0573  -1.0247
 -1.0050  -0.9621  -0.9108  -0.9022  -0.8109  -0.7588  -0.7390  -0.7052
 -0.6562  -0.6393  -0.6122  -0.5911  -0.5828  -0.5724  -0.5638  -0.5525
 -0.5406  -0.5275  -0.5208  -0.5064  -0.4884  -0.4672  -0.4585  -0.4451
 -0.3526  -0.3421  -0.3167  -0.2775

          Ground-State Mulliken Net Atomic Charges

     Atom                 Charge (a.u.)
  ----------------------------------------
      1 C                    -0.073554
      2 C                    -0.324977
      3 C                    -0.034006
      4 H                     0.177095
      5 C                     0.074645
      6 S                    -0.195019
      7 C                    -0.282958
      8 H                     0.119446
      9 H                     0.101012
     10 H                     0.114159
     11 C                    -0.072263
     12 C                    -0.261072
     13 C                     0.046027
     14 H                     0.192875
     15 C                    -0.217999
     16 S                     0.005336
     17 C                    -0.269582
     18 H                     0.102668
     19 H                     0.110910
     20 H                     0.107383
     21 H                     0.199788
     22 H                     0.106999
     23 H                     0.108510
     24 H                     0.164576
  ----------------------------------------
  Sum of atomic charges =     0.000000

                    Cartesian Multipole Moments
 -----------------------------------------------------------------
    Charge (ESU x 10^10)
                -0.0000
    Dipole Moment (Debye)
         X       3.6557      Y       0.8929      Z       3.2917
       Tot       4.9997
    Quadrupole Moments (Debye-Ang)
        XX     -86.9960     XY       2.5430     YY     -78.6163
        XZ       0.4681     YZ      -1.7621     ZZ     -86.0999

 Total job time:  65.08s(wall), 2021.18s(cpu)
        *  Thank you very much for using Q-Chem.  Have a nice day.  *
