 Q-Chem 5.4, Q-Chem, Inc., Pleasanton, CA (2021)
 Q-Chem 5.4.0 for Intel X86 EM64T Linux

User input:
--------------------------------------------------------------
$molecule
0 1
C	-0.363176	-3.887800	0.626855
C	0.329669	-3.701456	-0.573074
C	0.542250	-2.345170	-0.940016
H	0.682412	-4.545233	-1.184837
C	0.000000	-1.450135	0.000000
S	-0.764076	-2.321334	1.322686
C	1.265537	-1.934439	-2.192440
H	1.597559	-2.819799	-2.768365
H	2.166534	-1.326210	-1.967653
H	0.620843	-1.325374	-2.860032
C	0.000000	0.000000	0.000000
C	0.285976	0.794723	1.113020
C	0.757308	2.103412	0.820578
H	0.154498	0.429575	2.142881
C	0.841565	2.336821	-0.563588
S	0.328498	0.913334	-1.464748
C	1.118059	3.105040	1.882380
H	0.966197	2.683616	2.894974
H	0.500773	4.024668	1.808137
H	2.180000	3.419766	1.808230
H	1.166129	3.238200	-1.097114
H	0.246643	-4.420219	1.365344
H	-1.308062	-4.419395	0.467758
H	0.935314	-1.450628	0.539988
$end

$rem
JOBTYPE		SP
EXCHANGE	HF
CORRELATION	pRIMP2
BASIS		cc-pvtz
METHOD		rimp2
AUX_BASIS	rimp2-cc-pvtz
SOLVENT_METHOD	PCM
PURECART	11111
SYMMETRY	false
MEM_TOTAL	110000
SCF_CONVERGENCE = 6
THRESH=10
GUI = 2
$end

$solvent
dielectric 4.90
$end
--------------------------------------------------------------

             Standard Nuclear Orientation (Angstroms)
    I     Atom           X                Y                Z
 ----------------------------------------------------------------
    1      C      -0.3631760000    -3.8878000000     0.6268550000
    2      C       0.3296690000    -3.7014560000    -0.5730740000
    3      C       0.5422500000    -2.3451700000    -0.9400160000
    4      H       0.6824120000    -4.5452330000    -1.1848370000
    5      C       0.0000000000    -1.4501350000     0.0000000000
    6      S      -0.7640760000    -2.3213340000     1.3226860000
    7      C       1.2655370000    -1.9344390000    -2.1924400000
    8      H       1.5975590000    -2.8197990000    -2.7683650000
    9      H       2.1665340000    -1.3262100000    -1.9676530000
   10      H       0.6208430000    -1.3253740000    -2.8600320000
   11      C       0.0000000000     0.0000000000     0.0000000000
   12      C       0.2859760000     0.7947230000     1.1130200000
   13      C       0.7573080000     2.1034120000     0.8205780000
   14      H       0.1544980000     0.4295750000     2.1428810000
   15      C       0.8415650000     2.3368210000    -0.5635880000
   16      S       0.3284980000     0.9133340000    -1.4647480000
   17      C       1.1180590000     3.1050400000     1.8823800000
   18      H       0.9661970000     2.6836160000     2.8949740000
   19      H       0.5007730000     4.0246680000     1.8081370000
   20      H       2.1800000000     3.4197660000     1.8082300000
   21      H       1.1661290000     3.2382000000    -1.0971140000
   22      H       0.2466430000    -4.4202190000     1.3653440000
   23      H      -1.3080620000    -4.4193950000     0.4677580000
   24      H       0.9353140000    -1.4506280000     0.5399880000
 ----------------------------------------------------------------

   10   -1180.7493173810      4.97e-07  Convergence criterion met
 Total energy in the final basis set =    -1180.7493173810
        RIMP2         total energy =     -1182.7579593119 a.u.

                    Orbital Energies (a.u.)
 --------------------------------------------------------------

 Alpha MOs
 -- Occupied --
-91.9822 -91.9445 -11.2873 -11.2644 -11.2597 -11.2566 -11.2504 -11.2433
-11.2319 -11.2309 -11.2281 -11.2211  -8.9821  -8.9491  -6.6630  -6.6624
 -6.6618  -6.6305  -6.6295  -6.6282  -1.2012  -1.1524  -1.0590  -1.0265
 -1.0073  -0.9560  -0.9141  -0.9021  -0.8123  -0.7697  -0.7218  -0.7012
 -0.6625  -0.6449  -0.6109  -0.5863  -0.5813  -0.5736  -0.5683  -0.5535
 -0.5420  -0.5318  -0.5149  -0.5098  -0.4927  -0.4786  -0.4560  -0.4476
 -0.3571  -0.3418  -0.3234  -0.2653

          Ground-State Mulliken Net Atomic Charges

     Atom                 Charge (a.u.)
  ----------------------------------------
      1 C                    -0.073210
      2 C                    -0.321605
      3 C                    -0.032845
      4 H                     0.179085
      5 C                     0.064350
      6 S                    -0.179530
      7 C                    -0.295073
      8 H                     0.115287
      9 H                     0.114765
     10 H                     0.109320
     11 C                    -0.013686
     12 C                    -0.283639
     13 C                     0.032887
     14 H                     0.180506
     15 C                    -0.265726
     16 S                     0.010034
     17 C                    -0.270556
     18 H                     0.102779
     19 H                     0.108526
     20 H                     0.107288
     21 H                     0.196803
     22 H                     0.110494
     23 H                     0.113445
     24 H                     0.190302
  ----------------------------------------
  Sum of atomic charges =     0.000000

                    Cartesian Multipole Moments
 -----------------------------------------------------------------
    Charge (ESU x 10^10)
                -0.0000
    Dipole Moment (Debye)
         X       2.5056      Y      -0.1800      Z      -0.3726
       Tot       2.5395
    Quadrupole Moments (Debye-Ang)
        XX     -90.7534     XY       0.1028     YY     -75.1805
        XZ       0.4047     YZ       3.5020     ZZ     -85.3802

 Total job time:  54.27s(wall), 1912.28s(cpu)
        *  Thank you very much for using Q-Chem.  Have a nice day.  *
