 Q-Chem 5.4, Q-Chem, Inc., Pleasanton, CA (2021)
 Q-Chem 5.4.0 for Intel X86 EM64T Linux

User input:
--------------------------------------------------------------
$molecule
0 1
C	0.713644	-3.887800	-0.124726
C	-0.650907	-3.701456	0.115824
C	-1.068646	-2.345170	0.188844
H	-1.346284	-4.545233	0.238841
C	-0.000000	-1.450135	-0.000000
S	1.504375	-2.321334	-0.264890
C	-2.492978	-1.934439	0.439816
H	-3.147582	-2.819799	0.555669
H	-2.899931	-1.326210	-0.394879
H	-2.589982	-1.325374	1.362799
C	0.000000	0.000000	0.000000
C	0.215623	0.816623	1.113020
C	0.571102	2.161411	0.820578
H	0.116470	0.441406	2.142881
C	0.634696	2.401276	-0.563588
S	0.247646	0.938489	-1.464748
C	0.843182	3.190669	1.882380
H	0.728628	2.757614	2.894974
H	0.148095	4.052998	1.808137
H	1.873652	3.596752	1.808230
H	0.879464	3.327513	-1.097114
H	0.887375	-4.420219	-1.066566
H	1.199130	-4.419395	0.701364
H	-0.187554	-1.450628	-1.063590
$end

$rem
JOBTYPE		SP
EXCHANGE	HF
CORRELATION	pRIMP2
BASIS		cc-pvtz
METHOD		rimp2
AUX_BASIS	rimp2-cc-pvtz
SOLVENT_METHOD	PCM
PURECART	11111
SYMMETRY	false
MEM_TOTAL	110000
SCF_CONVERGENCE = 6
THRESH=10
GUI = 2
$end

$solvent
dielectric 4.90
$end
--------------------------------------------------------------

             Standard Nuclear Orientation (Angstroms)
    I     Atom           X                Y                Z
 ----------------------------------------------------------------
    1      C       0.7136440000    -3.8878000000    -0.1247260000
    2      C      -0.6509070000    -3.7014560000     0.1158240000
    3      C      -1.0686460000    -2.3451700000     0.1888440000
    4      H      -1.3462840000    -4.5452330000     0.2388410000
    5      C       0.0000000000    -1.4501350000     0.0000000000
    6      S       1.5043750000    -2.3213340000    -0.2648900000
    7      C      -2.4929780000    -1.9344390000     0.4398160000
    8      H      -3.1475820000    -2.8197990000     0.5556690000
    9      H      -2.8999310000    -1.3262100000    -0.3948790000
   10      H      -2.5899820000    -1.3253740000     1.3627990000
   11      C       0.0000000000     0.0000000000     0.0000000000
   12      C       0.2156230000     0.8166230000     1.1130200000
   13      C       0.5711020000     2.1614110000     0.8205780000
   14      H       0.1164700000     0.4414060000     2.1428810000
   15      C       0.6346960000     2.4012760000    -0.5635880000
   16      S       0.2476460000     0.9384890000    -1.4647480000
   17      C       0.8431820000     3.1906690000     1.8823800000
   18      H       0.7286280000     2.7576140000     2.8949740000
   19      H       0.1480950000     4.0529980000     1.8081370000
   20      H       1.8736520000     3.5967520000     1.8082300000
   21      H       0.8794640000     3.3275130000    -1.0971140000
   22      H       0.8873750000    -4.4202190000    -1.0665660000
   23      H       1.1991300000    -4.4193950000     0.7013640000
   24      H      -0.1875540000    -1.4506280000    -1.0635900000
 ----------------------------------------------------------------

   10   -1180.7574262854      5.14e-07  Convergence criterion met
 Total energy in the final basis set =    -1180.7574262854
        RIMP2         total energy =     -1182.7620241917 a.u.

                    Orbital Energies (a.u.)
 --------------------------------------------------------------

 Alpha MOs
 -- Occupied --
-91.9865 -91.9414 -11.2772 -11.2669 -11.2618 -11.2551 -11.2510 -11.2409
-11.2388 -11.2312 -11.2289 -11.2181  -8.9861  -8.9461  -6.6670  -6.6665
 -6.6659  -6.6274  -6.6264  -6.6251  -1.1970  -1.1538  -1.0571  -1.0262
 -1.0020  -0.9628  -0.9125  -0.9006  -0.8126  -0.7603  -0.7419  -0.7030
 -0.6532  -0.6333  -0.6113  -0.5874  -0.5778  -0.5716  -0.5678  -0.5533
 -0.5421  -0.5296  -0.5106  -0.5057  -0.4919  -0.4817  -0.4634  -0.4492
 -0.3569  -0.3397  -0.3130  -0.2813

          Ground-State Mulliken Net Atomic Charges

     Atom                 Charge (a.u.)
  ----------------------------------------
      1 C                    -0.073596
      2 C                    -0.327973
      3 C                    -0.032085
      4 H                     0.176665
      5 C                     0.099197
      6 S                    -0.174391
      7 C                    -0.267702
      8 H                     0.112421
      9 H                     0.102957
     10 H                     0.104115
     11 C                    -0.110945
     12 C                    -0.216997
     13 C                     0.020942
     14 H                     0.184481
     15 C                    -0.240178
     16 S                     0.014948
     17 C                    -0.271835
     18 H                     0.102826
     19 H                     0.107410
     20 H                     0.108351
     21 H                     0.199153
     22 H                     0.109567
     23 H                     0.112316
     24 H                     0.160350
  ----------------------------------------
  Sum of atomic charges =     0.000000

                    Cartesian Multipole Moments
 -----------------------------------------------------------------
    Charge (ESU x 10^10)
                -0.0000
    Dipole Moment (Debye)
         X      -1.9952      Y       0.7791      Z       1.1809
       Tot       2.4459
    Quadrupole Moments (Debye-Ang)
        XX     -91.1248     XY       6.6289     YY     -74.4435
        XZ      -0.0211     YZ       1.7120     ZZ     -85.7778

 Total job time:  57.38s(wall), 1913.26s(cpu)
        *  Thank you very much for using Q-Chem.  Have a nice day.  *
