 Q-Chem 5.4, Q-Chem, Inc., Pleasanton, CA (2021)
 Q-Chem 5.4.0 for Intel X86 EM64T Linux

User input:
--------------------------------------------------------------
$molecule
0 1
C	0.681143	-3.887800	-0.246754
C	-0.620906	-3.701456	0.227093
C	-1.019618	-2.345170	0.371543
H	-1.284357	-4.545233	0.468992
C	0.000000	-1.450135	0.000000
S	1.435522	-2.321334	-0.522097
C	-2.378731	-1.934439	0.866035
H	-3.003272	-2.819799	1.093799
H	-2.924444	-1.326210	0.114688
H	-2.313987	-1.325374	1.791841
C	0.000000	0.000000	0.000000
C	-0.003081	0.844605	1.113020
C	-0.007772	2.235575	0.820578
H	-0.001743	0.456510	2.142881
C	-0.008427	2.483726	-0.563588
S	-0.003691	0.970607	-1.464748
C	-0.011355	3.300181	1.882380
H	-0.009922	2.852233	2.894974
H	-0.905944	3.953225	1.808137
H	0.878901	3.959133	1.808230
H	-0.011727	3.441752	-1.097114
H	0.688686	-4.420219	-1.204454
H	1.302703	-4.419395	0.482482
H	-0.369395	-1.450628	-1.014863
$end

$rem
JOBTYPE		SP
EXCHANGE	HF
CORRELATION	pRIMP2
BASIS		cc-pvtz
METHOD		rimp2
AUX_BASIS	rimp2-cc-pvtz
SOLVENT_METHOD	PCM
PURECART	11111
SYMMETRY	false
MEM_TOTAL	110000
SCF_CONVERGENCE = 6
THRESH=10
GUI = 2
$end

$solvent
dielectric 4.90
$end
--------------------------------------------------------------

             Standard Nuclear Orientation (Angstroms)
    I     Atom           X                Y                Z
 ----------------------------------------------------------------
    1      C       0.6811430000    -3.8878000000    -0.2467540000
    2      C      -0.6209060000    -3.7014560000     0.2270930000
    3      C      -1.0196180000    -2.3451700000     0.3715430000
    4      H      -1.2843570000    -4.5452330000     0.4689920000
    5      C       0.0000000000    -1.4501350000     0.0000000000
    6      S       1.4355220000    -2.3213340000    -0.5220970000
    7      C      -2.3787310000    -1.9344390000     0.8660350000
    8      H      -3.0032720000    -2.8197990000     1.0937990000
    9      H      -2.9244440000    -1.3262100000     0.1146880000
   10      H      -2.3139870000    -1.3253740000     1.7918410000
   11      C       0.0000000000     0.0000000000     0.0000000000
   12      C      -0.0030810000     0.8446050000     1.1130200000
   13      C      -0.0077720000     2.2355750000     0.8205780000
   14      H      -0.0017430000     0.4565100000     2.1428810000
   15      C      -0.0084270000     2.4837260000    -0.5635880000
   16      S      -0.0036910000     0.9706070000    -1.4647480000
   17      C      -0.0113550000     3.3001810000     1.8823800000
   18      H      -0.0099220000     2.8522330000     2.8949740000
   19      H      -0.9059440000     3.9532250000     1.8081370000
   20      H       0.8789010000     3.9591330000     1.8082300000
   21      H      -0.0117270000     3.4417520000    -1.0971140000
   22      H       0.6886860000    -4.4202190000    -1.2044540000
   23      H       1.3027030000    -4.4193950000     0.4824820000
   24      H      -0.3693950000    -1.4506280000    -1.0148630000
 ----------------------------------------------------------------

   10   -1180.7613026507      5.07e-07  Convergence criterion met
 Total energy in the final basis set =    -1180.7613026507
        RIMP2         total energy =     -1182.7649342597 a.u.

                    Orbital Energies (a.u.)
 --------------------------------------------------------------

 Alpha MOs
 -- Occupied --
-91.9863 -91.9417 -11.2803 -11.2649 -11.2630 -11.2561 -11.2509 -11.2414
-11.2375 -11.2315 -11.2289 -11.2194  -8.9859  -8.9464  -6.6668  -6.6663
 -6.6656  -6.6277  -6.6267  -6.6254  -1.1974  -1.1537  -1.0575  -1.0266
 -1.0021  -0.9631  -0.9128  -0.9006  -0.8131  -0.7600  -0.7425  -0.7031
 -0.6536  -0.6347  -0.6113  -0.5880  -0.5776  -0.5708  -0.5681  -0.5540
 -0.5428  -0.5296  -0.5135  -0.5053  -0.4919  -0.4822  -0.4631  -0.4496
 -0.3563  -0.3413  -0.3154  -0.2789

          Ground-State Mulliken Net Atomic Charges

     Atom                 Charge (a.u.)
  ----------------------------------------
      1 C                    -0.076670
      2 C                    -0.330893
      3 C                    -0.015555
      4 H                     0.177565
      5 C                     0.106497
      6 S                    -0.178683
      7 C                    -0.267396
      8 H                     0.114167
      9 H                     0.104187
     10 H                     0.103992
     11 C                    -0.118516
     12 C                    -0.220596
     13 C                     0.014382
     14 H                     0.187872
     15 C                    -0.243374
     16 S                     0.014189
     17 C                    -0.272608
     18 H                     0.102656
     19 H                     0.107514
     20 H                     0.108684
     21 H                     0.199048
     22 H                     0.110621
     23 H                     0.113834
     24 H                     0.159080
  ----------------------------------------
  Sum of atomic charges =     0.000000

                    Cartesian Multipole Moments
 -----------------------------------------------------------------
    Charge (ESU x 10^10)
                -0.0000
    Dipole Moment (Debye)
         X      -2.5579      Y       0.6457      Z       1.5930
       Tot       3.0818
    Quadrupole Moments (Debye-Ang)
        XX     -91.9739     XY       3.9724     YY     -73.5925
        XZ      -0.2647     YZ       1.1044     ZZ     -85.7506

 Total job time:  61.01s(wall), 1839.63s(cpu)
        *  Thank you very much for using Q-Chem.  Have a nice day.  *
