 Q-Chem 5.4, Q-Chem, Inc., Pleasanton, CA (2021)
 Q-Chem 5.4.0 for Intel X86 EM64T Linux

User input:
--------------------------------------------------------------
$molecule
0 1
C	-0.554267	-3.887800	-0.466510
C	0.507121	-3.701456	0.424173
C	0.831575	-2.345170	0.697244
H	1.048337	-4.545233	0.877789
C	-0.000000	-1.450135	-0.000000
S	-1.169911	-2.321334	-0.982150
C	1.939374	-1.934439	1.627024
H	2.448894	-2.819799	2.054010
H	1.561545	-1.326210	2.475299
H	2.708773	-1.325374	1.108051
C	0.000000	0.000000	0.000000
C	0.540541	0.648986	1.113020
C	1.431046	1.717546	0.820578
H	0.292104	0.350827	2.142881
C	1.590053	1.908061	-0.563588
S	0.621066	0.745901	-1.464748
C	2.112618	2.535384	1.882380
H	1.825779	2.191315	2.894974
H	1.847090	3.610676	1.808137
H	3.218159	2.467925	1.808230
H	2.203332	2.644073	-1.097114
H	-1.387431	-4.420219	0.005807
H	-0.233510	-4.419395	-1.369415
H	-0.694200	-1.450628	0.827337
$end

$rem
JOBTYPE		SP
EXCHANGE	HF
CORRELATION	pRIMP2
BASIS		cc-pvtz
METHOD		rimp2
AUX_BASIS	rimp2-cc-pvtz
SOLVENT_METHOD	PCM
PURECART	11111
SYMMETRY	false
MEM_TOTAL	110000
SCF_CONVERGENCE = 6
THRESH=10
GUI = 2
$end

$solvent
dielectric 4.90
$end
--------------------------------------------------------------

             Standard Nuclear Orientation (Angstroms)
    I     Atom           X                Y                Z
 ----------------------------------------------------------------
    1      C      -0.5542670000    -3.8878000000    -0.4665100000
    2      C       0.5071210000    -3.7014560000     0.4241730000
    3      C       0.8315750000    -2.3451700000     0.6972440000
    4      H       1.0483370000    -4.5452330000     0.8777890000
    5      C       0.0000000000    -1.4501350000     0.0000000000
    6      S      -1.1699110000    -2.3213340000    -0.9821500000
    7      C       1.9393740000    -1.9344390000     1.6270240000
    8      H       2.4488940000    -2.8197990000     2.0540100000
    9      H       1.5615450000    -1.3262100000     2.4752990000
   10      H       2.7087730000    -1.3253740000     1.1080510000
   11      C       0.0000000000     0.0000000000     0.0000000000
   12      C       0.5405410000     0.6489860000     1.1130200000
   13      C       1.4310460000     1.7175460000     0.8205780000
   14      H       0.2921040000     0.3508270000     2.1428810000
   15      C       1.5900530000     1.9080610000    -0.5635880000
   16      S       0.6210660000     0.7459010000    -1.4647480000
   17      C       2.1126180000     2.5353840000     1.8823800000
   18      H       1.8257790000     2.1913150000     2.8949740000
   19      H       1.8470900000     3.6106760000     1.8081370000
   20      H       3.2181590000     2.4679250000     1.8082300000
   21      H       2.2033320000     2.6440730000    -1.0971140000
   22      H      -1.3874310000    -4.4202190000     0.0058070000
   23      H      -0.2335100000    -4.4193950000    -1.3694150000
   24      H      -0.6942000000    -1.4506280000     0.8273370000
 ----------------------------------------------------------------

   10   -1180.7297198741      7.32e-07  Convergence criterion met
 Total energy in the final basis set =    -1180.7297198741
        RIMP2         total energy =     -1182.7449867507 a.u.

                    Orbital Energies (a.u.)
 --------------------------------------------------------------

 Alpha MOs
 -- Occupied --
-91.9782 -91.9389 -11.2740 -11.2694 -11.2616 -11.2541 -11.2526 -11.2497
-11.2397 -11.2308 -11.2305 -11.2179  -8.9786  -8.9436  -6.6595  -6.6588
 -6.6584  -6.6250  -6.6240  -6.6227  -1.1996  -1.1542  -1.0574  -1.0270
 -1.0027  -0.9629  -0.9118  -0.9020  -0.8118  -0.7591  -0.7351  -0.7084
 -0.6541  -0.6415  -0.6124  -0.5914  -0.5873  -0.5716  -0.5597  -0.5546
 -0.5401  -0.5300  -0.5212  -0.5085  -0.4840  -0.4677  -0.4589  -0.4451
 -0.3536  -0.3411  -0.3202  -0.2721

          Ground-State Mulliken Net Atomic Charges

     Atom                 Charge (a.u.)
  ----------------------------------------
      1 C                    -0.071600
      2 C                    -0.326617
      3 C                    -0.057347
      4 H                     0.177989
      5 C                     0.097521
      6 S                    -0.188554
      7 C                    -0.284809
      8 H                     0.119906
      9 H                     0.098109
     10 H                     0.115186
     11 C                    -0.080675
     12 C                    -0.252036
     13 C                     0.029744
     14 H                     0.193056
     15 C                    -0.217230
     16 S                     0.009081
     17 C                    -0.271523
     18 H                     0.102327
     19 H                     0.111519
     20 H                     0.107456
     21 H                     0.199081
     22 H                     0.107379
     23 H                     0.109296
     24 H                     0.172739
  ----------------------------------------
  Sum of atomic charges =     0.000000

                    Cartesian Multipole Moments
 -----------------------------------------------------------------
    Charge (ESU x 10^10)
                -0.0000
    Dipole Moment (Debye)
         X       2.8804      Y       0.6770      Z       3.9133
       Tot       4.9060
    Quadrupole Moments (Debye-Ang)
        XX     -86.8310     XY       3.7457     YY     -78.4576
        XZ       0.7451     YZ      -2.5827     ZZ     -86.2151

 Total job time:  59.27s(wall), 1951.68s(cpu)
        *  Thank you very much for using Q-Chem.  Have a nice day.  *
