 Q-Chem 5.4, Q-Chem, Inc., Pleasanton, CA (2021)
 Q-Chem 5.4.0 for Intel X86 EM64T Linux

User input:
--------------------------------------------------------------
$molecule
0 1
C	0.124726	-3.887800	0.713644
C	-0.115824	-3.701456	-0.650907
C	-0.188844	-2.345170	-1.068646
H	-0.238841	-4.545233	-1.346284
C	0.000000	-1.450135	0.000000
S	0.264890	-2.321334	1.504375
C	-0.439816	-1.934439	-2.492978
H	-0.555669	-2.819799	-3.147582
H	0.394879	-1.326210	-2.899931
H	-1.362799	-1.325374	-2.589982
C	0.000000	0.000000	0.000000
C	0.645024	0.545262	1.113020
C	1.707554	1.442954	0.820578
H	0.348587	0.294774	2.142881
C	1.897227	1.602964	-0.563588
S	0.741155	0.626722	-1.464748
C	2.520787	2.130014	1.882380
H	2.178559	1.840981	2.894974
H	2.446016	3.235078	1.808137
H	3.597818	1.871604	1.808230
H	2.628997	2.221299	-1.097114
H	1.066566	-4.420219	0.887375
H	-0.701364	-4.419395	1.199130
H	1.063590	-1.450628	-0.187554
$end

$rem
JOBTYPE		SP
EXCHANGE	HF
CORRELATION	pRIMP2
BASIS		cc-pvtz
METHOD		rimp2
AUX_BASIS	rimp2-cc-pvtz
SOLVENT_METHOD	PCM
PURECART	11111
SYMMETRY	false
MEM_TOTAL	110000
SCF_CONVERGENCE = 6
THRESH=10
GUI = 2
$end

$solvent
dielectric 4.90
$end
--------------------------------------------------------------

             Standard Nuclear Orientation (Angstroms)
    I     Atom           X                Y                Z
 ----------------------------------------------------------------
    1      C       0.1247260000    -3.8878000000     0.7136440000
    2      C      -0.1158240000    -3.7014560000    -0.6509070000
    3      C      -0.1888440000    -2.3451700000    -1.0686460000
    4      H      -0.2388410000    -4.5452330000    -1.3462840000
    5      C       0.0000000000    -1.4501350000     0.0000000000
    6      S       0.2648900000    -2.3213340000     1.5043750000
    7      C      -0.4398160000    -1.9344390000    -2.4929780000
    8      H      -0.5556690000    -2.8197990000    -3.1475820000
    9      H       0.3948790000    -1.3262100000    -2.8999310000
   10      H      -1.3627990000    -1.3253740000    -2.5899820000
   11      C       0.0000000000     0.0000000000     0.0000000000
   12      C       0.6450240000     0.5452620000     1.1130200000
   13      C       1.7075540000     1.4429540000     0.8205780000
   14      H       0.3485870000     0.2947740000     2.1428810000
   15      C       1.8972270000     1.6029640000    -0.5635880000
   16      S       0.7411550000     0.6267220000    -1.4647480000
   17      C       2.5207870000     2.1300140000     1.8823800000
   18      H       2.1785590000     1.8409810000     2.8949740000
   19      H       2.4460160000     3.2350780000     1.8081370000
   20      H       3.5978180000     1.8716040000     1.8082300000
   21      H       2.6289970000     2.2212990000    -1.0971140000
   22      H       1.0665660000    -4.4202190000     0.8873750000
   23      H      -0.7013640000    -4.4193950000     1.1991300000
   24      H       1.0635900000    -1.4506280000    -0.1875540000
 ----------------------------------------------------------------

   10   -1180.7082807080      8.75e-07  Convergence criterion met
 Total energy in the final basis set =    -1180.7082807080
        RIMP2         total energy =     -1182.7281117499 a.u.

                    Orbital Energies (a.u.)
 --------------------------------------------------------------

 Alpha MOs
 -- Occupied --
-91.9760 -91.9431 -11.2743 -11.2717 -11.2594 -11.2584 -11.2526 -11.2431
-11.2409 -11.2292 -11.2287 -11.2190  -8.9775  -8.9476  -6.6583  -6.6576
 -6.6570  -6.6290  -6.6280  -6.6268  -1.2073  -1.1535  -1.0607  -1.0274
 -1.0062  -0.9562  -0.9142  -0.9040  -0.8081  -0.7737  -0.7214  -0.7032
 -0.6584  -0.6464  -0.6137  -0.5890  -0.5838  -0.5737  -0.5702  -0.5516
 -0.5415  -0.5351  -0.5170  -0.5133  -0.4889  -0.4662  -0.4553  -0.4389
 -0.3585  -0.3405  -0.3285  -0.2617

          Ground-State Mulliken Net Atomic Charges

     Atom                 Charge (a.u.)
  ----------------------------------------
      1 C                    -0.077892
      2 C                    -0.318844
      3 C                    -0.059075
      4 H                     0.176896
      5 C                     0.106798
      6 S                    -0.197922
      7 C                    -0.298014
      8 H                     0.114707
      9 H                     0.110389
     10 H                     0.117495
     11 C                    -0.046809
     12 C                    -0.252212
     13 C                     0.027874
     14 H                     0.182519
     15 C                    -0.236329
     16 S                     0.006866
     17 C                    -0.267403
     18 H                     0.103830
     19 H                     0.108700
     20 H                     0.107466
     21 H                     0.198921
     22 H                     0.110069
     23 H                     0.112241
     24 H                     0.169728
  ----------------------------------------
  Sum of atomic charges =     0.000000

                    Cartesian Multipole Moments
 -----------------------------------------------------------------
    Charge (ESU x 10^10)
                -0.0000
    Dipole Moment (Debye)
         X       2.0474      Y      -0.0206      Z      -0.9415
       Tot       2.2537
    Quadrupole Moments (Debye-Ang)
        XX     -85.1206     XY       4.8356     YY     -79.8800
        XZ       1.0808     YZ       4.5886     ZZ     -85.4941

 Total job time:  56.23s(wall), 1940.71s(cpu)
        *  Thank you very much for using Q-Chem.  Have a nice day.  *
