 Q-Chem 5.4, Q-Chem, Inc., Pleasanton, CA (2021)
 Q-Chem 5.4.0 for Intel X86 EM64T Linux

User input:
--------------------------------------------------------------
$molecule
0 1
C	-0.248806	-3.887800	0.680396
C	0.225147	-3.701456	-0.621614
C	0.370780	-2.345170	-1.019896
H	0.466300	-4.545233	-1.285337
C	0.000000	-1.450135	0.000000
S	-0.522786	-2.321334	1.435271
C	0.865597	-1.934439	-2.378891
H	1.092567	-2.819799	-3.003720
H	1.791940	-1.326210	-2.313975
H	0.114772	-1.325374	-2.924390
C	0.000000	0.000000	0.000000
C	0.729909	0.424971	1.113020
C	1.932179	1.124518	0.820578
H	0.394478	0.229765	2.142881
C	2.146756	1.249161	-0.563588
S	0.838724	0.488500	-1.464748
C	2.852364	1.659924	1.882380
H	2.465145	1.434710	2.894974
H	2.970621	2.761183	1.808137
H	3.868160	1.218416	1.808230
H	2.974781	1.731032	-1.097114
H	0.479986	-4.420219	1.301772
H	-1.206964	-4.419395	0.687795
H	1.014873	-1.450628	0.369368
$end

$rem
JOBTYPE		SP
EXCHANGE	HF
CORRELATION	pRIMP2
BASIS		cc-pvtz
METHOD		rimp2
AUX_BASIS	rimp2-cc-pvtz
SOLVENT_METHOD	PCM
PURECART	11111
SYMMETRY	false
MEM_TOTAL	110000
SCF_CONVERGENCE = 6
THRESH=10
GUI = 2
$end

$solvent
dielectric 4.90
$end
--------------------------------------------------------------

             Standard Nuclear Orientation (Angstroms)
    I     Atom           X                Y                Z
 ----------------------------------------------------------------
    1      C      -0.2488060000    -3.8878000000     0.6803960000
    2      C       0.2251470000    -3.7014560000    -0.6216140000
    3      C       0.3707800000    -2.3451700000    -1.0198960000
    4      H       0.4663000000    -4.5452330000    -1.2853370000
    5      C       0.0000000000    -1.4501350000     0.0000000000
    6      S      -0.5227860000    -2.3213340000     1.4352710000
    7      C       0.8655970000    -1.9344390000    -2.3788910000
    8      H       1.0925670000    -2.8197990000    -3.0037200000
    9      H       1.7919400000    -1.3262100000    -2.3139750000
   10      H       0.1147720000    -1.3253740000    -2.9243900000
   11      C       0.0000000000     0.0000000000     0.0000000000
   12      C       0.7299090000     0.4249710000     1.1130200000
   13      C       1.9321790000     1.1245180000     0.8205780000
   14      H       0.3944780000     0.2297650000     2.1428810000
   15      C       2.1467560000     1.2491610000    -0.5635880000
   16      S       0.8387240000     0.4885000000    -1.4647480000
   17      C       2.8523640000     1.6599240000     1.8823800000
   18      H       2.4651450000     1.4347100000     2.8949740000
   19      H       2.9706210000     2.7611830000     1.8081370000
   20      H       3.8681600000     1.2184160000     1.8082300000
   21      H       2.9747810000     1.7310320000    -1.0971140000
   22      H       0.4799860000    -4.4202190000     1.3017720000
   23      H      -1.2069640000    -4.4193950000     0.6877950000
   24      H       1.0148730000    -1.4506280000     0.3693680000
 ----------------------------------------------------------------

   11   -1180.6490299525      6.90e-07  Convergence criterion met
 Total energy in the final basis set =    -1180.6490299525
        RIMP2         total energy =     -1182.6843700471 a.u.

                    Orbital Energies (a.u.)
 --------------------------------------------------------------

 Alpha MOs
 -- Occupied --
-91.9783 -91.9380 -11.2813 -11.2609 -11.2602 -11.2546 -11.2527 -11.2461
-11.2394 -11.2300 -11.2266 -11.2145  -8.9806  -8.9429  -6.6609  -6.6603
 -6.6599  -6.6243  -6.6233  -6.6221  -1.2116  -1.1523  -1.0609  -1.0314
 -1.0069  -0.9541  -0.9133  -0.9068  -0.8024  -0.7741  -0.7270  -0.7023
 -0.6646  -0.6429  -0.6122  -0.5899  -0.5834  -0.5762  -0.5698  -0.5562
 -0.5403  -0.5325  -0.5199  -0.5190  -0.4918  -0.4571  -0.4401  -0.4369
 -0.3532  -0.3311  -0.3261  -0.2585

          Ground-State Mulliken Net Atomic Charges

     Atom                 Charge (a.u.)
  ----------------------------------------
      1 C                    -0.071755
      2 C                    -0.334328
      3 C                    -0.049377
      4 H                     0.176878
      5 C                     0.074516
      6 S                    -0.213050
      7 C                    -0.257089
      8 H                     0.104362
      9 H                     0.105370
     10 H                     0.108664
     11 C                    -0.126359
     12 C                    -0.153226
     13 C                    -0.017327
     14 H                     0.188632
     15 C                    -0.217806
     16 S                     0.050250
     17 C                    -0.266631
     18 H                     0.104433
     19 H                     0.107613
     20 H                     0.103982
     21 H                     0.201781
     22 H                     0.108291
     23 H                     0.111572
     24 H                     0.160602
  ----------------------------------------
  Sum of atomic charges =     0.000000

                    Cartesian Multipole Moments
 -----------------------------------------------------------------
    Charge (ESU x 10^10)
                -0.0000
    Dipole Moment (Debye)
         X       3.9858      Y       0.2644      Z      -0.9681
       Tot       4.1102
    Quadrupole Moments (Debye-Ang)
        XX     -83.0511     XY       2.8179     YY     -83.8607
        XZ       0.4925     YZ       3.1926     ZZ     -84.4759

 Total job time:  96.14s(wall), 2330.68s(cpu)
        *  Thank you very much for using Q-Chem.  Have a nice day.  *
