 Q-Chem 5.4, Q-Chem, Inc., Pleasanton, CA (2021)
 Q-Chem 5.4.0 for Intel X86 EM64T Linux

User input:
--------------------------------------------------------------
$molecule
0 1
C	-0.363176	-3.887800	0.626855
C	0.329669	-3.701456	-0.573074
C	0.542250	-2.345170	-0.940016
H	0.682412	-4.545233	-1.184837
C	0.000000	-1.450135	0.000000
S	-0.764076	-2.321334	1.322686
C	1.265537	-1.934439	-2.192440
H	1.597559	-2.819799	-2.768365
H	2.166534	-1.326210	-1.967653
H	0.620843	-1.325374	-2.860032
C	0.000000	0.000000	0.000000
C	0.729909	0.424971	1.113020
C	1.932179	1.124518	0.820578
H	0.394478	0.229765	2.142881
C	2.146756	1.249161	-0.563588
S	0.838724	0.488500	-1.464748
C	2.852364	1.659924	1.882380
H	2.465145	1.434710	2.894974
H	2.970621	2.761183	1.808137
H	3.868160	1.218416	1.808230
H	2.974781	1.731032	-1.097114
H	0.246643	-4.420219	1.365344
H	-1.308062	-4.419395	0.467758
H	0.935314	-1.450628	0.539988
$end

$rem
JOBTYPE		SP
EXCHANGE	HF
CORRELATION	pRIMP2
BASIS		cc-pvtz
METHOD		rimp2
AUX_BASIS	rimp2-cc-pvtz
SOLVENT_METHOD	PCM
PURECART	11111
SYMMETRY	false
MEM_TOTAL	110000
SCF_CONVERGENCE = 6
THRESH=10
GUI = 2
$end

$solvent
dielectric 4.90
$end
--------------------------------------------------------------

             Standard Nuclear Orientation (Angstroms)
    I     Atom           X                Y                Z
 ----------------------------------------------------------------
    1      C      -0.3631760000    -3.8878000000     0.6268550000
    2      C       0.3296690000    -3.7014560000    -0.5730740000
    3      C       0.5422500000    -2.3451700000    -0.9400160000
    4      H       0.6824120000    -4.5452330000    -1.1848370000
    5      C       0.0000000000    -1.4501350000     0.0000000000
    6      S      -0.7640760000    -2.3213340000     1.3226860000
    7      C       1.2655370000    -1.9344390000    -2.1924400000
    8      H       1.5975590000    -2.8197990000    -2.7683650000
    9      H       2.1665340000    -1.3262100000    -1.9676530000
   10      H       0.6208430000    -1.3253740000    -2.8600320000
   11      C       0.0000000000     0.0000000000     0.0000000000
   12      C       0.7299090000     0.4249710000     1.1130200000
   13      C       1.9321790000     1.1245180000     0.8205780000
   14      H       0.3944780000     0.2297650000     2.1428810000
   15      C       2.1467560000     1.2491610000    -0.5635880000
   16      S       0.8387240000     0.4885000000    -1.4647480000
   17      C       2.8523640000     1.6599240000     1.8823800000
   18      H       2.4651450000     1.4347100000     2.8949740000
   19      H       2.9706210000     2.7611830000     1.8081370000
   20      H       3.8681600000     1.2184160000     1.8082300000
   21      H       2.9747810000     1.7310320000    -1.0971140000
   22      H       0.2466430000    -4.4202190000     1.3653440000
   23      H      -1.3080620000    -4.4193950000     0.4677580000
   24      H       0.9353140000    -1.4506280000     0.5399880000
 ----------------------------------------------------------------

   11   -1180.6420136140      7.40e-07  Convergence criterion met
 Total energy in the final basis set =    -1180.6420136140
        RIMP2         total energy =     -1182.6790518750 a.u.

                    Orbital Energies (a.u.)
 --------------------------------------------------------------

 Alpha MOs
 -- Occupied --
-91.9797 -91.9364 -11.2812 -11.2607 -11.2591 -11.2526 -11.2523 -11.2470
-11.2388 -11.2302 -11.2265 -11.2139  -8.9817  -8.9413  -6.6620  -6.6615
 -6.6611  -6.6228  -6.6217  -6.6205  -1.2112  -1.1521  -1.0605  -1.0315
 -1.0073  -0.9543  -0.9125  -0.9067  -0.8018  -0.7727  -0.7305  -0.7015
 -0.6648  -0.6411  -0.6112  -0.5899  -0.5811  -0.5786  -0.5690  -0.5583
 -0.5416  -0.5296  -0.5202  -0.5187  -0.4924  -0.4557  -0.4390  -0.4377
 -0.3521  -0.3318  -0.3234  -0.2571

          Ground-State Mulliken Net Atomic Charges

     Atom                 Charge (a.u.)
  ----------------------------------------
      1 C                    -0.069277
      2 C                    -0.338849
      3 C                    -0.048839
      4 H                     0.176817
      5 C                     0.069196
      6 S                    -0.214281
      7 C                    -0.250865
      8 H                     0.102880
      9 H                     0.102132
     10 H                     0.108303
     11 C                    -0.135523
     12 C                    -0.150367
     13 C                    -0.016980
     14 H                     0.191250
     15 C                    -0.221772
     16 S                     0.056920
     17 C                    -0.266700
     18 H                     0.104289
     19 H                     0.107553
     20 H                     0.103658
     21 H                     0.202625
     22 H                     0.107693
     23 H                     0.110799
     24 H                     0.169338
  ----------------------------------------
  Sum of atomic charges =     0.000000

                    Cartesian Multipole Moments
 -----------------------------------------------------------------
    Charge (ESU x 10^10)
                -0.0000
    Dipole Moment (Debye)
         X       4.3908      Y       0.3583      Z      -0.7378
       Tot       4.4668
    Quadrupole Moments (Debye-Ang)
        XX     -83.1652     XY       2.3065     YY     -84.3862
        XZ       0.4728     YZ       2.8218     ZZ     -84.3376

 Total job time:  65.30s(wall), 2159.78s(cpu)
        *  Thank you very much for using Q-Chem.  Have a nice day.  *
