 Q-Chem 5.4, Q-Chem, Inc., Pleasanton, CA (2021)
 Q-Chem 5.4.0 for Intel X86 EM64T Linux

User input:
--------------------------------------------------------------
$molecule
0 1
C	0.124726	-3.887800	0.713644
C	-0.115824	-3.701456	-0.650907
C	-0.188844	-2.345170	-1.068646
H	-0.238841	-4.545233	-1.346284
C	0.000000	-1.450135	0.000000
S	0.264890	-2.321334	1.504375
C	-0.439816	-1.934439	-2.492978
H	-0.555669	-2.819799	-3.147582
H	0.394879	-1.326210	-2.899931
H	-1.362799	-1.325374	-2.589982
C	0.000000	0.000000	0.000000
C	0.285976	0.794723	1.113020
C	0.757308	2.103412	0.820578
H	0.154498	0.429575	2.142881
C	0.841565	2.336821	-0.563588
S	0.328498	0.913334	-1.464748
C	1.118059	3.105040	1.882380
H	0.966197	2.683616	2.894974
H	0.500773	4.024668	1.808137
H	2.180000	3.419766	1.808230
H	1.166129	3.238200	-1.097114
H	1.066566	-4.420219	0.887375
H	-0.701364	-4.419395	1.199130
H	1.063590	-1.450628	-0.187554
$end

$rem
JOBTYPE		SP
EXCHANGE	HF
CORRELATION	pRIMP2
BASIS		cc-pvtz
METHOD		rimp2
AUX_BASIS	rimp2-cc-pvtz
SOLVENT_METHOD	PCM
PURECART	11111
SYMMETRY	false
MEM_TOTAL	110000
SCF_CONVERGENCE = 6
THRESH=10
GUI = 2
$end

$solvent
dielectric 4.90
$end
--------------------------------------------------------------

             Standard Nuclear Orientation (Angstroms)
    I     Atom           X                Y                Z
 ----------------------------------------------------------------
    1      C       0.1247260000    -3.8878000000     0.7136440000
    2      C      -0.1158240000    -3.7014560000    -0.6509070000
    3      C      -0.1888440000    -2.3451700000    -1.0686460000
    4      H      -0.2388410000    -4.5452330000    -1.3462840000
    5      C       0.0000000000    -1.4501350000     0.0000000000
    6      S       0.2648900000    -2.3213340000     1.5043750000
    7      C      -0.4398160000    -1.9344390000    -2.4929780000
    8      H      -0.5556690000    -2.8197990000    -3.1475820000
    9      H       0.3948790000    -1.3262100000    -2.8999310000
   10      H      -1.3627990000    -1.3253740000    -2.5899820000
   11      C       0.0000000000     0.0000000000     0.0000000000
   12      C       0.2859760000     0.7947230000     1.1130200000
   13      C       0.7573080000     2.1034120000     0.8205780000
   14      H       0.1544980000     0.4295750000     2.1428810000
   15      C       0.8415650000     2.3368210000    -0.5635880000
   16      S       0.3284980000     0.9133340000    -1.4647480000
   17      C       1.1180590000     3.1050400000     1.8823800000
   18      H       0.9661970000     2.6836160000     2.8949740000
   19      H       0.5007730000     4.0246680000     1.8081370000
   20      H       2.1800000000     3.4197660000     1.8082300000
   21      H       1.1661290000     3.2382000000    -1.0971140000
   22      H       1.0665660000    -4.4202190000     0.8873750000
   23      H      -0.7013640000    -4.4193950000     1.1991300000
   24      H       1.0635900000    -1.4506280000    -0.1875540000
 ----------------------------------------------------------------

   10   -1180.7552948117      4.88e-07  Convergence criterion met
 Total energy in the final basis set =    -1180.7552948117
        RIMP2         total energy =     -1182.7617760934 a.u.

                    Orbital Energies (a.u.)
 --------------------------------------------------------------

 Alpha MOs
 -- Occupied --
-91.9809 -91.9470 -11.2894 -11.2644 -11.2630 -11.2557 -11.2503 -11.2443
-11.2325 -11.2311 -11.2278 -11.2230  -8.9811  -8.9514  -6.6620  -6.6615
 -6.6608  -6.6328  -6.6318  -6.6305  -1.2027  -1.1527  -1.0602  -1.0282
 -1.0064  -0.9565  -0.9164  -0.9020  -0.8134  -0.7719  -0.7180  -0.7042
 -0.6594  -0.6482  -0.6118  -0.5917  -0.5815  -0.5720  -0.5689  -0.5534
 -0.5422  -0.5339  -0.5157  -0.5099  -0.4897  -0.4835  -0.4582  -0.4451
 -0.3592  -0.3421  -0.3273  -0.2656

          Ground-State Mulliken Net Atomic Charges

     Atom                 Charge (a.u.)
  ----------------------------------------
      1 C                    -0.073968
      2 C                    -0.313806
      3 C                    -0.058504
      4 H                     0.179120
      5 C                     0.124080
      6 S                    -0.187249
      7 C                    -0.308705
      8 H                     0.120778
      9 H                     0.108389
     10 H                     0.119438
     11 C                     0.014333
     12 C                    -0.346189
     13 C                     0.060694
     14 H                     0.176217
     15 C                    -0.283512
     16 S                     0.007357
     17 C                    -0.270361
     18 H                     0.102943
     19 H                     0.108410
     20 H                     0.108793
     21 H                     0.196385
     22 H                     0.112194
     23 H                     0.112405
     24 H                     0.190760
  ----------------------------------------
  Sum of atomic charges =     0.000000

                    Cartesian Multipole Moments
 -----------------------------------------------------------------
    Charge (ESU x 10^10)
                -0.0000
    Dipole Moment (Debye)
         X       0.8999      Y      -0.4484      Z      -1.1308
       Tot       1.5132
    Quadrupole Moments (Debye-Ang)
        XX     -90.5146     XY       2.3447     YY     -74.1231
        XZ       0.8089     YZ       5.0508     ZZ     -85.6566

 Total job time:  66.34s(wall), 2667.36s(cpu)
        *  Thank you very much for using Q-Chem.  Have a nice day.  *
