 Q-Chem 5.4, Q-Chem, Inc., Pleasanton, CA (2021)
 Q-Chem 5.4.0 for Intel X86 EM64T Linux

User input:
--------------------------------------------------------------
$molecule
0 1
C	-0.627947	-3.887800	0.361285
C	0.572038	-3.701456	-0.331462
C	0.939610	-2.345170	-0.542953
H	1.183405	-4.545233	-0.684893
C	0.000000	-1.450135	0.000000
S	-1.323052	-2.321334	0.763441
C	2.192207	-1.934439	-1.265941
H	2.767709	-2.819799	-1.598695
H	2.860100	-1.326210	-0.620770
H	1.967682	-1.325374	-2.166438
C	0.000000	0.000000	0.000000
C	0.285976	0.794723	1.113020
C	0.757308	2.103412	0.820578
H	0.154498	0.429575	2.142881
C	0.841565	2.336821	-0.563588
S	0.328498	0.913334	-1.464748
C	1.118059	3.105040	1.882380
H	0.966197	2.683616	2.894974
H	0.500773	4.024668	1.808137
H	2.180000	3.419766	1.808230
H	1.166129	3.238200	-1.097114
H	-0.469073	-4.420219	1.305744
H	-1.366694	-4.419395	-0.248940
H	0.540012	-1.450628	0.935300
$end

$rem
JOBTYPE		SP
EXCHANGE	HF
CORRELATION	pRIMP2
BASIS		cc-pvtz
METHOD		rimp2
AUX_BASIS	rimp2-cc-pvtz
SOLVENT_METHOD	PCM
PURECART	11111
SYMMETRY	false
MEM_TOTAL	110000
SCF_CONVERGENCE = 6
THRESH=10
GUI = 2
$end

$solvent
dielectric 4.90
$end
--------------------------------------------------------------

             Standard Nuclear Orientation (Angstroms)
    I     Atom           X                Y                Z
 ----------------------------------------------------------------
    1      C      -0.6279470000    -3.8878000000     0.3612850000
    2      C       0.5720380000    -3.7014560000    -0.3314620000
    3      C       0.9396100000    -2.3451700000    -0.5429530000
    4      H       1.1834050000    -4.5452330000    -0.6848930000
    5      C       0.0000000000    -1.4501350000     0.0000000000
    6      S      -1.3230520000    -2.3213340000     0.7634410000
    7      C       2.1922070000    -1.9344390000    -1.2659410000
    8      H       2.7677090000    -2.8197990000    -1.5986950000
    9      H       2.8601000000    -1.3262100000    -0.6207700000
   10      H       1.9676820000    -1.3253740000    -2.1664380000
   11      C       0.0000000000     0.0000000000     0.0000000000
   12      C       0.2859760000     0.7947230000     1.1130200000
   13      C       0.7573080000     2.1034120000     0.8205780000
   14      H       0.1544980000     0.4295750000     2.1428810000
   15      C       0.8415650000     2.3368210000    -0.5635880000
   16      S       0.3284980000     0.9133340000    -1.4647480000
   17      C       1.1180590000     3.1050400000     1.8823800000
   18      H       0.9661970000     2.6836160000     2.8949740000
   19      H       0.5007730000     4.0246680000     1.8081370000
   20      H       2.1800000000     3.4197660000     1.8082300000
   21      H       1.1661290000     3.2382000000    -1.0971140000
   22      H      -0.4690730000    -4.4202190000     1.3057440000
   23      H      -1.3666940000    -4.4193950000    -0.2489400000
   24      H       0.5400120000    -1.4506280000     0.9353000000
 ----------------------------------------------------------------

   10   -1180.7526858335      5.33e-07  Convergence criterion met
 Total energy in the final basis set =    -1180.7526858335
        RIMP2         total energy =     -1182.7604906474 a.u.

                    Orbital Energies (a.u.)
 --------------------------------------------------------------

 Alpha MOs
 -- Occupied --
-91.9823 -91.9406 -11.2819 -11.2638 -11.2631 -11.2556 -11.2512 -11.2410
-11.2404 -11.2300 -11.2294 -11.2193  -8.9822  -8.9454  -6.6631  -6.6625
 -6.6620  -6.6268  -6.6257  -6.6244  -1.1986  -1.1534  -1.0576  -1.0243
 -1.0077  -0.9583  -0.9118  -0.9019  -0.8122  -0.7652  -0.7313  -0.7005
 -0.6611  -0.6411  -0.6104  -0.5869  -0.5796  -0.5732  -0.5675  -0.5513
 -0.5417  -0.5300  -0.5154  -0.5054  -0.4941  -0.4771  -0.4584  -0.4484
 -0.3549  -0.3434  -0.3175  -0.2723

          Ground-State Mulliken Net Atomic Charges

     Atom                 Charge (a.u.)
  ----------------------------------------
      1 C                    -0.074034
      2 C                    -0.327126
      3 C                    -0.021679
      4 H                     0.177685
      5 C                     0.059096
      6 S                    -0.182108
      7 C                    -0.276735
      8 H                     0.114409
      9 H                     0.108438
     10 H                     0.109927
     11 C                    -0.052096
     12 C                    -0.252627
     13 C                     0.026695
     14 H                     0.181925
     15 C                    -0.244087
     16 S                     0.008796
     17 C                    -0.270730
     18 H                     0.102592
     19 H                     0.108538
     20 H                     0.107520
     21 H                     0.196912
     22 H                     0.109656
     23 H                     0.111631
     24 H                     0.177402
  ----------------------------------------
  Sum of atomic charges =     0.000000

                    Cartesian Multipole Moments
 -----------------------------------------------------------------
    Charge (ESU x 10^10)
                -0.0000
    Dipole Moment (Debye)
         X       3.1683      Y       0.4581      Z       0.9156
       Tot       3.3296
    Quadrupole Moments (Debye-Ang)
        XX     -90.8798     XY      -0.6348     YY     -75.4594
        XZ       0.1943     YZ       1.8404     ZZ     -85.5439

 Total job time:  54.32s(wall), 1917.45s(cpu)
        *  Thank you very much for using Q-Chem.  Have a nice day.  *
