 Q-Chem 5.4, Q-Chem, Inc., Pleasanton, CA (2021)
 Q-Chem 5.4.0 for Intel X86 EM64T Linux

User input:
--------------------------------------------------------------
$molecule
0 1
C	-0.724460	-3.887800	-0.001092
C	0.661131	-3.701456	-0.001036
C	1.085203	-2.345170	-0.000406
H	1.367305	-4.545233	-0.001433
C	0.000000	-1.450135	0.000000
S	-1.527517	-2.321334	-0.000367
C	2.531478	-1.934439	-0.000233
H	3.196254	-2.819799	-0.000656
H	2.787305	-1.326210	0.892447
H	2.787282	-1.325374	-0.892350
C	0.000000	0.000000	0.000000
C	0.729909	0.424971	1.113020
C	1.932179	1.124518	0.820578
H	0.394478	0.229765	2.142881
C	2.146756	1.249161	-0.563588
S	0.838724	0.488500	-1.464748
C	2.852364	1.659924	1.882380
H	2.465145	1.434710	2.894974
H	2.970621	2.761183	1.808137
H	3.868160	1.218416	1.808230
H	2.974781	1.731032	-1.097114
H	-1.059101	-4.420219	0.896272
H	-1.059122	-4.419395	-0.898936
H	0.000014	-1.450628	1.080000
$end

$rem
JOBTYPE		SP
EXCHANGE	HF
CORRELATION	pRIMP2
BASIS		cc-pvtz
METHOD		rimp2
AUX_BASIS	rimp2-cc-pvtz
SOLVENT_METHOD	PCM
PURECART	11111
SYMMETRY	false
MEM_TOTAL	110000
SCF_CONVERGENCE = 6
THRESH=10
GUI = 2
$end

$solvent
dielectric 4.90
$end
--------------------------------------------------------------

             Standard Nuclear Orientation (Angstroms)
    I     Atom           X                Y                Z
 ----------------------------------------------------------------
    1      C      -0.7244600000    -3.8878000000    -0.0010920000
    2      C       0.6611310000    -3.7014560000    -0.0010360000
    3      C       1.0852030000    -2.3451700000    -0.0004060000
    4      H       1.3673050000    -4.5452330000    -0.0014330000
    5      C       0.0000000000    -1.4501350000     0.0000000000
    6      S      -1.5275170000    -2.3213340000    -0.0003670000
    7      C       2.5314780000    -1.9344390000    -0.0002330000
    8      H       3.1962540000    -2.8197990000    -0.0006560000
    9      H       2.7873050000    -1.3262100000     0.8924470000
   10      H       2.7872820000    -1.3253740000    -0.8923500000
   11      C       0.0000000000     0.0000000000     0.0000000000
   12      C       0.7299090000     0.4249710000     1.1130200000
   13      C       1.9321790000     1.1245180000     0.8205780000
   14      H       0.3944780000     0.2297650000     2.1428810000
   15      C       2.1467560000     1.2491610000    -0.5635880000
   16      S       0.8387240000     0.4885000000    -1.4647480000
   17      C       2.8523640000     1.6599240000     1.8823800000
   18      H       2.4651450000     1.4347100000     2.8949740000
   19      H       2.9706210000     2.7611830000     1.8081370000
   20      H       3.8681600000     1.2184160000     1.8082300000
   21      H       2.9747810000     1.7310320000    -1.0971140000
   22      H      -1.0591010000    -4.4202190000     0.8962720000
   23      H      -1.0591220000    -4.4193950000    -0.8989360000
   24      H       0.0000140000    -1.4506280000     1.0800000000
 ----------------------------------------------------------------

   10   -1180.6810719682      9.68e-07  Convergence criterion met
 Total energy in the final basis set =    -1180.6810719682
        RIMP2         total energy =     -1182.7077443541 a.u.

                    Orbital Energies (a.u.)
 --------------------------------------------------------------

 Alpha MOs
 -- Occupied --
-91.9787 -91.9300 -11.2885 -11.2651 -11.2572 -11.2532 -11.2527 -11.2491
-11.2351 -11.2328 -11.2252 -11.2147  -8.9795  -8.9350  -6.6603  -6.6595
 -6.6593  -6.6164  -6.6154  -6.6142  -1.2072  -1.1536  -1.0591  -1.0215
 -1.0101  -0.9608  -0.9112  -0.9013  -0.8067  -0.7605  -0.7477  -0.7017
 -0.6560  -0.6361  -0.6145  -0.5936  -0.5850  -0.5751  -0.5635  -0.5510
 -0.5416  -0.5249  -0.5227  -0.5025  -0.4917  -0.4630  -0.4474  -0.4370
 -0.3498  -0.3441  -0.3179  -0.2700

          Ground-State Mulliken Net Atomic Charges

     Atom                 Charge (a.u.)
  ----------------------------------------
      1 C                    -0.072350
      2 C                    -0.328066
      3 C                    -0.022780
      4 H                     0.174799
      5 C                     0.089831
      6 S                    -0.225626
      7 C                    -0.320952
      8 H                     0.125220
      9 H                     0.110963
     10 H                     0.119730
     11 C                    -0.154139
     12 C                    -0.154764
     13 C                     0.004649
     14 H                     0.190652
     15 C                    -0.172762
     16 S                     0.007296
     17 C                    -0.271271
     18 H                     0.105092
     19 H                     0.117912
     20 H                     0.105065
     21 H                     0.201843
     22 H                     0.104341
     23 H                     0.106367
     24 H                     0.158948
  ----------------------------------------
  Sum of atomic charges =     0.000000

                    Cartesian Multipole Moments
 -----------------------------------------------------------------
    Charge (ESU x 10^10)
                -0.0000
    Dipole Moment (Debye)
         X       5.3633      Y       1.0053      Z       2.5875
       Tot       6.0391
    Quadrupole Moments (Debye-Ang)
        XX     -82.7399     XY       1.4392     YY     -84.2484
        XZ       0.3746     YZ      -0.6141     ZZ     -85.2917

 Total job time:  59.09s(wall), 2071.46s(cpu)
        *  Thank you very much for using Q-Chem.  Have a nice day.  *
