 Q-Chem 5.4, Q-Chem, Inc., Pleasanton, CA (2021)
 Q-Chem 5.4.0 for Intel X86 EM64T Linux

User input:
--------------------------------------------------------------
$molecule
0 1
C	-0.627947	-3.887800	0.361285
C	0.572038	-3.701456	-0.331462
C	0.939610	-2.345170	-0.542953
H	1.183405	-4.545233	-0.684893
C	0.000000	-1.450135	0.000000
S	-1.323052	-2.321334	0.763441
C	2.192207	-1.934439	-1.265941
H	2.767709	-2.819799	-1.598695
H	2.860100	-1.326210	-0.620770
H	1.967682	-1.325374	-2.166438
C	0.000000	0.000000	0.000000
C	-0.003081	0.844605	1.113020
C	-0.007772	2.235575	0.820578
H	-0.001743	0.456510	2.142881
C	-0.008427	2.483726	-0.563588
S	-0.003691	0.970607	-1.464748
C	-0.011355	3.300181	1.882380
H	-0.009922	2.852233	2.894974
H	-0.905944	3.953225	1.808137
H	0.878901	3.959133	1.808230
H	-0.011727	3.441752	-1.097114
H	-0.469073	-4.420219	1.305744
H	-1.366694	-4.419395	-0.248940
H	0.540012	-1.450628	0.935300
$end

$rem
JOBTYPE		SP
EXCHANGE	HF
CORRELATION	pRIMP2
BASIS		cc-pvtz
METHOD		rimp2
AUX_BASIS	rimp2-cc-pvtz
SOLVENT_METHOD	PCM
PURECART	11111
SYMMETRY	false
MEM_TOTAL	110000
SCF_CONVERGENCE = 6
THRESH=10
GUI = 2
$end

$solvent
dielectric 4.90
$end
--------------------------------------------------------------

             Standard Nuclear Orientation (Angstroms)
    I     Atom           X                Y                Z
 ----------------------------------------------------------------
    1      C      -0.6279470000    -3.8878000000     0.3612850000
    2      C       0.5720380000    -3.7014560000    -0.3314620000
    3      C       0.9396100000    -2.3451700000    -0.5429530000
    4      H       1.1834050000    -4.5452330000    -0.6848930000
    5      C       0.0000000000    -1.4501350000     0.0000000000
    6      S      -1.3230520000    -2.3213340000     0.7634410000
    7      C       2.1922070000    -1.9344390000    -1.2659410000
    8      H       2.7677090000    -2.8197990000    -1.5986950000
    9      H       2.8601000000    -1.3262100000    -0.6207700000
   10      H       1.9676820000    -1.3253740000    -2.1664380000
   11      C       0.0000000000     0.0000000000     0.0000000000
   12      C      -0.0030810000     0.8446050000     1.1130200000
   13      C      -0.0077720000     2.2355750000     0.8205780000
   14      H      -0.0017430000     0.4565100000     2.1428810000
   15      C      -0.0084270000     2.4837260000    -0.5635880000
   16      S      -0.0036910000     0.9706070000    -1.4647480000
   17      C      -0.0113550000     3.3001810000     1.8823800000
   18      H      -0.0099220000     2.8522330000     2.8949740000
   19      H      -0.9059440000     3.9532250000     1.8081370000
   20      H       0.8789010000     3.9591330000     1.8082300000
   21      H      -0.0117270000     3.4417520000    -1.0971140000
   22      H      -0.4690730000    -4.4202190000     1.3057440000
   23      H      -1.3666940000    -4.4193950000    -0.2489400000
   24      H       0.5400120000    -1.4506280000     0.9353000000
 ----------------------------------------------------------------

   10   -1180.7640685625      4.96e-07  Convergence criterion met
 Total energy in the final basis set =    -1180.7640685625
        RIMP2         total energy =     -1182.7685443321 a.u.

                    Orbital Energies (a.u.)
 --------------------------------------------------------------

 Alpha MOs
 -- Occupied --
-91.9818 -91.9427 -11.2842 -11.2631 -11.2620 -11.2571 -11.2510 -11.2419
-11.2397 -11.2315 -11.2290 -11.2203  -8.9816  -8.9474  -6.6626  -6.6620
 -6.6615  -6.6287  -6.6277  -6.6264  -1.1981  -1.1535  -1.0576  -1.0255
 -1.0072  -0.9582  -0.9130  -0.9013  -0.8143  -0.7653  -0.7301  -0.7005
 -0.6613  -0.6419  -0.6107  -0.5876  -0.5798  -0.5727  -0.5673  -0.5511
 -0.5413  -0.5314  -0.5136  -0.5055  -0.4930  -0.4828  -0.4588  -0.4499
 -0.3560  -0.3426  -0.3172  -0.2752

          Ground-State Mulliken Net Atomic Charges

     Atom                 Charge (a.u.)
  ----------------------------------------
      1 C                    -0.077848
      2 C                    -0.326471
      3 C                    -0.025945
      4 H                     0.177949
      5 C                     0.093992
      6 S                    -0.176660
      7 C                    -0.271347
      8 H                     0.114467
      9 H                     0.105419
     10 H                     0.106761
     11 C                    -0.074888
     12 C                    -0.252297
     13 C                     0.023191
     14 H                     0.183070
     15 C                    -0.245662
     16 S                     0.006599
     17 C                    -0.271529
     18 H                     0.102575
     19 H                     0.108724
     20 H                     0.107830
     21 H                     0.196887
     22 H                     0.110831
     23 H                     0.113258
     24 H                     0.171094
  ----------------------------------------
  Sum of atomic charges =     0.000000

                    Cartesian Multipole Moments
 -----------------------------------------------------------------
    Charge (ESU x 10^10)
                -0.0000
    Dipole Moment (Debye)
         X       2.5023      Y       0.3602      Z       0.9906
       Tot       2.7152
    Quadrupole Moments (Debye-Ang)
        XX     -91.9567     XY      -4.0355     YY     -73.7036
        XZ      -0.2668     YZ       1.9055     ZZ     -85.7071

 Total job time:  55.81s(wall), 1872.56s(cpu)
        *  Thank you very much for using Q-Chem.  Have a nice day.  *
