 Q-Chem 5.4, Q-Chem, Inc., Pleasanton, CA (2021)
 Q-Chem 5.4.0 for Intel X86 EM64T Linux

User input:
--------------------------------------------------------------
$molecule
0 1
C	0.555670	-3.887800	-0.464838
C	-0.505790	-3.701456	0.425760
C	-0.831053	-2.345170	0.697866
H	-1.046496	-4.545233	0.879984
C	0.000000	-1.450135	0.000000
S	1.170382	-2.321334	-0.981588
C	-1.939074	-1.934439	1.627381
H	-2.448051	-2.819799	2.055015
H	-2.708853	-1.326210	1.107991
H	-1.561590	-1.325374	2.475210
C	0.000000	0.000000	0.000000
C	0.354153	0.766774	1.113020
C	0.937751	2.029404	0.820578
H	0.191350	0.414475	2.142881
C	1.042030	2.254581	-0.563588
S	0.406851	0.881228	-1.464748
C	1.384426	2.995779	1.882380
H	1.196413	2.589194	2.894974
H	0.849641	3.965707	1.808137
H	2.469756	3.216753	1.808230
H	1.443919	3.124243	-1.097114
H	0.235206	-4.420219	-1.367361
H	1.389159	-4.419395	0.007834
H	-0.694221	-1.450628	-0.827319
$end

$rem
JOBTYPE		SP
EXCHANGE	HF
CORRELATION	pRIMP2
BASIS		cc-pvtz
METHOD		rimp2
AUX_BASIS	rimp2-cc-pvtz
SOLVENT_METHOD	PCM
PURECART	11111
SYMMETRY	false
MEM_TOTAL	110000
SCF_CONVERGENCE = 6
THRESH=10
GUI = 2
$end

$solvent
dielectric 4.90
$end
--------------------------------------------------------------

             Standard Nuclear Orientation (Angstroms)
    I     Atom           X                Y                Z
 ----------------------------------------------------------------
    1      C       0.5556700000    -3.8878000000    -0.4648380000
    2      C      -0.5057900000    -3.7014560000     0.4257600000
    3      C      -0.8310530000    -2.3451700000     0.6978660000
    4      H      -1.0464960000    -4.5452330000     0.8799840000
    5      C       0.0000000000    -1.4501350000     0.0000000000
    6      S       1.1703820000    -2.3213340000    -0.9815880000
    7      C      -1.9390740000    -1.9344390000     1.6273810000
    8      H      -2.4480510000    -2.8197990000     2.0550150000
    9      H      -2.7088530000    -1.3262100000     1.1079910000
   10      H      -1.5615900000    -1.3253740000     2.4752100000
   11      C       0.0000000000     0.0000000000     0.0000000000
   12      C       0.3541530000     0.7667740000     1.1130200000
   13      C       0.9377510000     2.0294040000     0.8205780000
   14      H       0.1913500000     0.4144750000     2.1428810000
   15      C       1.0420300000     2.2545810000    -0.5635880000
   16      S       0.4068510000     0.8812280000    -1.4647480000
   17      C       1.3844260000     2.9957790000     1.8823800000
   18      H       1.1964130000     2.5891940000     2.8949740000
   19      H       0.8496410000     3.9657070000     1.8081370000
   20      H       2.4697560000     3.2167530000     1.8082300000
   21      H       1.4439190000     3.1242430000    -1.0971140000
   22      H       0.2352060000    -4.4202190000    -1.3673610000
   23      H       1.3891590000    -4.4193950000     0.0078340000
   24      H      -0.6942210000    -1.4506280000    -0.8273190000
 ----------------------------------------------------------------

   10   -1180.7472871868      5.28e-07  Convergence criterion met
 Total energy in the final basis set =    -1180.7472871868
        RIMP2         total energy =     -1182.7545921802 a.u.

                    Orbital Energies (a.u.)
 --------------------------------------------------------------

 Alpha MOs
 -- Occupied --
-91.9849 -91.9421 -11.2772 -11.2665 -11.2626 -11.2548 -11.2509 -11.2409
-11.2387 -11.2320 -11.2288 -11.2186  -8.9847  -8.9467  -6.6656  -6.6651
 -6.6645  -6.6280  -6.6270  -6.6257  -1.1980  -1.1536  -1.0570  -1.0282
 -1.0005  -0.9635  -0.9121  -0.9007  -0.8141  -0.7579  -0.7416  -0.7030
 -0.6530  -0.6356  -0.6109  -0.5892  -0.5808  -0.5689  -0.5667  -0.5533
 -0.5432  -0.5313  -0.5134  -0.5056  -0.4905  -0.4779  -0.4647  -0.4481
 -0.3555  -0.3413  -0.3203  -0.2704

          Ground-State Mulliken Net Atomic Charges

     Atom                 Charge (a.u.)
  ----------------------------------------
      1 C                    -0.076279
      2 C                    -0.327375
      3 C                    -0.035451
      4 H                     0.176472
      5 C                     0.081173
      6 S                    -0.171227
      7 C                    -0.274932
      8 H                     0.114401
      9 H                     0.105489
     10 H                     0.103364
     11 C                    -0.104678
     12 C                    -0.206378
     13 C                     0.011840
     14 H                     0.191603
     15 C                    -0.226188
     16 S                     0.003365
     17 C                    -0.272366
     18 H                     0.101773
     19 H                     0.107705
     20 H                     0.108209
     21 H                     0.198693
     22 H                     0.109226
     23 H                     0.112745
     24 H                     0.168815
  ----------------------------------------
  Sum of atomic charges =     0.000000

                    Cartesian Multipole Moments
 -----------------------------------------------------------------
    Charge (ESU x 10^10)
                -0.0000
    Dipole Moment (Debye)
         X      -1.5123      Y       0.5817      Z       2.4015
       Tot       2.8970
    Quadrupole Moments (Debye-Ang)
        XX     -90.1032     XY       7.9036     YY     -75.6023
        XZ       0.2554     YZ      -0.3376     ZZ     -85.5151

 Total job time:  66.25s(wall), 2203.12s(cpu)
        *  Thank you very much for using Q-Chem.  Have a nice day.  *
