 Q-Chem 5.4, Q-Chem, Inc., Pleasanton, CA (2021)
 Q-Chem 5.4.0 for Intel X86 EM64T Linux

User input:
--------------------------------------------------------------
$molecule
0 1
C	-0.713264	-3.887800	-0.126876
C	0.651267	-3.701456	0.113784
C	1.068787	-2.345170	0.188043
H	1.346782	-4.545233	0.236019
C	0.000000	-1.450135	0.000000
S	-1.504247	-2.321334	-0.265612
C	2.493059	-1.934439	0.439357
H	3.147809	-2.819799	0.554378
H	2.589987	-1.326210	1.362899
H	2.899892	-1.325374	-0.394786
C	0.000000	0.000000	0.000000
C	0.354153	0.766774	1.113020
C	0.937751	2.029404	0.820578
H	0.191350	0.414475	2.142881
C	1.042030	2.254581	-0.563588
S	0.406851	0.881228	-1.464748
C	1.384426	2.995779	1.882380
H	1.196413	2.589194	2.894974
H	0.849641	3.965707	1.808137
H	2.469756	3.216753	1.808230
H	1.443919	3.124243	-1.097114
H	-1.198647	-4.420219	0.698744
H	-0.886933	-4.419395	-1.069193
H	-0.187526	-1.450628	1.063595
$end

$rem
JOBTYPE		SP
EXCHANGE	HF
CORRELATION	pRIMP2
BASIS		cc-pvtz
METHOD		rimp2
AUX_BASIS	rimp2-cc-pvtz
SOLVENT_METHOD	PCM
PURECART	11111
SYMMETRY	false
MEM_TOTAL	110000
SCF_CONVERGENCE = 6
THRESH=10
GUI = 2
$end

$solvent
dielectric 4.90
$end
--------------------------------------------------------------

             Standard Nuclear Orientation (Angstroms)
    I     Atom           X                Y                Z
 ----------------------------------------------------------------
    1      C      -0.7132640000    -3.8878000000    -0.1268760000
    2      C       0.6512670000    -3.7014560000     0.1137840000
    3      C       1.0687870000    -2.3451700000     0.1880430000
    4      H       1.3467820000    -4.5452330000     0.2360190000
    5      C       0.0000000000    -1.4501350000     0.0000000000
    6      S      -1.5042470000    -2.3213340000    -0.2656120000
    7      C       2.4930590000    -1.9344390000     0.4393570000
    8      H       3.1478090000    -2.8197990000     0.5543780000
    9      H       2.5899870000    -1.3262100000     1.3628990000
   10      H       2.8998920000    -1.3253740000    -0.3947860000
   11      C       0.0000000000     0.0000000000     0.0000000000
   12      C       0.3541530000     0.7667740000     1.1130200000
   13      C       0.9377510000     2.0294040000     0.8205780000
   14      H       0.1913500000     0.4144750000     2.1428810000
   15      C       1.0420300000     2.2545810000    -0.5635880000
   16      S       0.4068510000     0.8812280000    -1.4647480000
   17      C       1.3844260000     2.9957790000     1.8823800000
   18      H       1.1964130000     2.5891940000     2.8949740000
   19      H       0.8496410000     3.9657070000     1.8081370000
   20      H       2.4697560000     3.2167530000     1.8082300000
   21      H       1.4439190000     3.1242430000    -1.0971140000
   22      H      -1.1986470000    -4.4202190000     0.6987440000
   23      H      -0.8869330000    -4.4193950000    -1.0691930000
   24      H      -0.1875260000    -1.4506280000     1.0635950000
 ----------------------------------------------------------------

   10   -1180.7539842437      5.54e-07  Convergence criterion met
 Total energy in the final basis set =    -1180.7539842437
        RIMP2         total energy =     -1182.7617516371 a.u.

                    Orbital Energies (a.u.)
 --------------------------------------------------------------

 Alpha MOs
 -- Occupied --
-91.9803 -91.9387 -11.2767 -11.2700 -11.2620 -11.2549 -11.2519 -11.2472
-11.2399 -11.2306 -11.2303 -11.2189  -8.9804  -8.9434  -6.6613  -6.6607
 -6.6602  -6.6248  -6.6238  -6.6225  -1.1977  -1.1543  -1.0571  -1.0246
 -1.0059  -0.9611  -0.9111  -0.9019  -0.8128  -0.7598  -0.7370  -0.7037
 -0.6588  -0.6400  -0.6112  -0.5900  -0.5805  -0.5723  -0.5651  -0.5510
 -0.5410  -0.5281  -0.5178  -0.5051  -0.4916  -0.4750  -0.4599  -0.4471
 -0.3542  -0.3421  -0.3143  -0.2807

          Ground-State Mulliken Net Atomic Charges

     Atom                 Charge (a.u.)
  ----------------------------------------
      1 C                    -0.075461
      2 C                    -0.327031
      3 C                    -0.017588
      4 H                     0.176866
      5 C                     0.062763
      6 S                    -0.184517
      7 C                    -0.269997
      8 H                     0.115404
      9 H                     0.100690
     10 H                     0.110952
     11 C                    -0.054968
     12 C                    -0.266530
     13 C                     0.038400
     14 H                     0.184509
     15 C                    -0.232686
     16 S                     0.004155
     17 C                    -0.269881
     18 H                     0.102377
     19 H                     0.108748
     20 H                     0.107791
     21 H                     0.198506
     22 H                     0.109362
     23 H                     0.110181
     24 H                     0.167956
  ----------------------------------------
  Sum of atomic charges =     0.000000

                    Cartesian Multipole Moments
 -----------------------------------------------------------------
    Charge (ESU x 10^10)
                -0.0000
    Dipole Moment (Debye)
         X       3.1842      Y       0.7832      Z       2.7973
       Tot       4.3102
    Quadrupole Moments (Debye-Ang)
        XX     -89.8364     XY       0.6656     YY     -75.7551
        XZ       0.2005     YZ      -0.9552     ZZ     -86.0946

 Total job time:  57.01s(wall), 1955.92s(cpu)
        *  Thank you very much for using Q-Chem.  Have a nice day.  *
