 Q-Chem 5.4, Q-Chem, Inc., Pleasanton, CA (2021)
 Q-Chem 5.4.0 for Intel X86 EM64T Linux

User input:
--------------------------------------------------------------
$molecule
0 1
C	-0.466510	-3.887800	0.554267
C	0.424173	-3.701456	-0.507121
C	0.697244	-2.345170	-0.831575
H	0.877789	-4.545233	-1.048337
C	0.000000	-1.450135	0.000000
S	-0.982150	-2.321334	1.169911
C	1.627024	-1.934439	-1.939374
H	2.054010	-2.819799	-2.448894
H	2.475299	-1.326210	-1.561545
H	1.108051	-1.325374	-2.708773
C	0.000000	0.000000	0.000000
C	0.143630	0.832309	1.113020
C	0.380550	2.202961	0.820578
H	0.077556	0.449877	2.142881
C	0.422995	2.447456	-0.563588
S	0.164909	0.956502	-1.464748
C	0.561888	3.252016	1.882380
H	0.485513	2.810624	2.894974
H	-0.205711	4.050482	1.808137
H	1.553045	3.746365	1.808230
H	0.586105	3.391501	-1.097114
H	0.005807	-4.420219	1.387431
H	-1.369415	-4.419395	0.233510
H	0.827337	-1.450628	0.694200
$end

$rem
JOBTYPE		SP
EXCHANGE	HF
CORRELATION	pRIMP2
BASIS		cc-pvtz
METHOD		rimp2
AUX_BASIS	rimp2-cc-pvtz
SOLVENT_METHOD	PCM
PURECART	11111
SYMMETRY	false
MEM_TOTAL	110000
SCF_CONVERGENCE = 6
THRESH=10
GUI = 2
$end

$solvent
dielectric 4.90
$end
--------------------------------------------------------------

             Standard Nuclear Orientation (Angstroms)
    I     Atom           X                Y                Z
 ----------------------------------------------------------------
    1      C      -0.4665100000    -3.8878000000     0.5542670000
    2      C       0.4241730000    -3.7014560000    -0.5071210000
    3      C       0.6972440000    -2.3451700000    -0.8315750000
    4      H       0.8777890000    -4.5452330000    -1.0483370000
    5      C       0.0000000000    -1.4501350000     0.0000000000
    6      S      -0.9821500000    -2.3213340000     1.1699110000
    7      C       1.6270240000    -1.9344390000    -1.9393740000
    8      H       2.0540100000    -2.8197990000    -2.4488940000
    9      H       2.4752990000    -1.3262100000    -1.5615450000
   10      H       1.1080510000    -1.3253740000    -2.7087730000
   11      C       0.0000000000     0.0000000000     0.0000000000
   12      C       0.1436300000     0.8323090000     1.1130200000
   13      C       0.3805500000     2.2029610000     0.8205780000
   14      H       0.0775560000     0.4498770000     2.1428810000
   15      C       0.4229950000     2.4474560000    -0.5635880000
   16      S       0.1649090000     0.9565020000    -1.4647480000
   17      C       0.5618880000     3.2520160000     1.8823800000
   18      H       0.4855130000     2.8106240000     2.8949740000
   19      H      -0.2057110000     4.0504820000     1.8081370000
   20      H       1.5530450000     3.7463650000     1.8082300000
   21      H       0.5861050000     3.3915010000    -1.0971140000
   22      H       0.0058070000    -4.4202190000     1.3874310000
   23      H      -1.3694150000    -4.4193950000     0.2335100000
   24      H       0.8273370000    -1.4506280000     0.6942000000
 ----------------------------------------------------------------

   10   -1180.7581767409      4.90e-07  Convergence criterion met
 Total energy in the final basis set =    -1180.7581767409
        RIMP2         total energy =     -1182.7643127728 a.u.

                    Orbital Energies (a.u.)
 --------------------------------------------------------------

 Alpha MOs
 -- Occupied --
-91.9827 -91.9442 -11.2874 -11.2643 -11.2589 -11.2574 -11.2506 -11.2430
-11.2339 -11.2314 -11.2284 -11.2213  -8.9824  -8.9488  -6.6634  -6.6628
 -6.6622  -6.6302  -6.6292  -6.6279  -1.1999  -1.1527  -1.0585  -1.0261
 -1.0075  -0.9568  -0.9139  -0.9016  -0.8136  -0.7684  -0.7243  -0.7008
 -0.6622  -0.6440  -0.6108  -0.5866  -0.5806  -0.5736  -0.5681  -0.5529
 -0.5419  -0.5320  -0.5143  -0.5073  -0.4927  -0.4816  -0.4574  -0.4493
 -0.3568  -0.3428  -0.3215  -0.2682

          Ground-State Mulliken Net Atomic Charges

     Atom                 Charge (a.u.)
  ----------------------------------------
      1 C                    -0.074474
      2 C                    -0.324150
      3 C                    -0.027577
      4 H                     0.178619
      5 C                     0.075501
      6 S                    -0.176490
      7 C                    -0.289206
      8 H                     0.115785
      9 H                     0.112269
     10 H                     0.109830
     11 C                    -0.033784
     12 C                    -0.275465
     13 C                     0.029072
     14 H                     0.181993
     15 C                    -0.261145
     16 S                     0.008283
     17 C                    -0.271337
     18 H                     0.102658
     19 H                     0.108534
     20 H                     0.107678
     21 H                     0.196484
     22 H                     0.110480
     23 H                     0.113587
     24 H                     0.182854
  ----------------------------------------
  Sum of atomic charges =     0.000000

                    Cartesian Multipole Moments
 -----------------------------------------------------------------
    Charge (ESU x 10^10)
                -0.0000
    Dipole Moment (Debye)
         X       2.4918      Y      -0.0318      Z       0.0684
       Tot       2.4929
    Quadrupole Moments (Debye-Ang)
        XX     -91.6729     XY      -1.7957     YY     -74.1067
        XZ       0.1146     YZ       3.0954     ZZ     -85.4879

 Total job time:  52.77s(wall), 1865.98s(cpu)
        *  Thank you very much for using Q-Chem.  Have a nice day.  *
