 Q-Chem 5.4, Q-Chem, Inc., Pleasanton, CA (2021)
 Q-Chem 5.4.0 for Intel X86 EM64T Linux

User input:
--------------------------------------------------------------
$molecule
0 1
C	0.001092	-3.887800	-0.724460
C	0.001036	-3.701456	0.661131
C	0.000406	-2.345170	1.085203
H	0.001433	-4.545233	1.367305
C	-0.000000	-1.450135	-0.000000
S	0.000367	-2.321334	-1.527517
C	0.000233	-1.934439	2.531478
H	0.000656	-2.819799	3.196254
H	-0.892447	-1.326210	2.787305
H	0.892350	-1.325374	2.787282
C	0.000000	0.000000	0.000000
C	0.070542	0.841660	1.113020
C	0.187101	2.227746	0.820578
H	0.038051	0.454925	2.142881
C	0.208076	2.475009	-0.563588
S	0.080917	0.967235	-1.464748
C	0.276318	3.288613	1.882380
H	0.238704	2.842244	2.894974
H	-0.557951	4.017140	1.808137
H	1.220618	3.867466	1.808230
H	0.288286	3.429678	-1.097114
H	-0.896272	-4.420219	-1.059101
H	0.898936	-4.419395	-1.059122
H	-1.080000	-1.450628	0.000014
$end

$rem
JOBTYPE		SP
EXCHANGE	HF
CORRELATION	pRIMP2
BASIS		cc-pvtz
METHOD		rimp2
AUX_BASIS	rimp2-cc-pvtz
SOLVENT_METHOD	PCM
PURECART	11111
SYMMETRY	false
MEM_TOTAL	110000
SCF_CONVERGENCE = 6
THRESH=10
GUI = 2
$end

$solvent
dielectric 4.90
$end
--------------------------------------------------------------

             Standard Nuclear Orientation (Angstroms)
    I     Atom           X                Y                Z
 ----------------------------------------------------------------
    1      C       0.0010920000    -3.8878000000    -0.7244600000
    2      C       0.0010360000    -3.7014560000     0.6611310000
    3      C       0.0004060000    -2.3451700000     1.0852030000
    4      H       0.0014330000    -4.5452330000     1.3673050000
    5      C       0.0000000000    -1.4501350000     0.0000000000
    6      S       0.0003670000    -2.3213340000    -1.5275170000
    7      C       0.0002330000    -1.9344390000     2.5314780000
    8      H       0.0006560000    -2.8197990000     3.1962540000
    9      H      -0.8924470000    -1.3262100000     2.7873050000
   10      H       0.8923500000    -1.3253740000     2.7872820000
   11      C       0.0000000000     0.0000000000     0.0000000000
   12      C       0.0705420000     0.8416600000     1.1130200000
   13      C       0.1871010000     2.2277460000     0.8205780000
   14      H       0.0380510000     0.4549250000     2.1428810000
   15      C       0.2080760000     2.4750090000    -0.5635880000
   16      S       0.0809170000     0.9672350000    -1.4647480000
   17      C       0.2763180000     3.2886130000     1.8823800000
   18      H       0.2387040000     2.8422440000     2.8949740000
   19      H      -0.5579510000     4.0171400000     1.8081370000
   20      H       1.2206180000     3.8674660000     1.8082300000
   21      H       0.2882860000     3.4296780000    -1.0971140000
   22      H      -0.8962720000    -4.4202190000    -1.0591010000
   23      H       0.8989360000    -4.4193950000    -1.0591220000
   24      H      -1.0800000000    -1.4506280000     0.0000140000
 ----------------------------------------------------------------

   10   -1180.7560427716      5.05e-07  Convergence criterion met
 Total energy in the final basis set =    -1180.7560427716
        RIMP2         total energy =     -1182.7617628845 a.u.

                    Orbital Energies (a.u.)
 --------------------------------------------------------------

 Alpha MOs
 -- Occupied --
-91.9844 -91.9470 -11.2906 -11.2668 -11.2627 -11.2534 -11.2497 -11.2454
-11.2343 -11.2281 -11.2269 -11.2241  -8.9839  -8.9516  -6.6649  -6.6644
 -6.6637  -6.6330  -6.6320  -6.6307  -1.2019  -1.1523  -1.0596  -1.0322
 -1.0014  -0.9613  -0.9171  -0.8997  -0.8178  -0.7628  -0.7279  -0.7068
 -0.6569  -0.6487  -0.6108  -0.5948  -0.5858  -0.5687  -0.5606  -0.5505
 -0.5458  -0.5355  -0.5247  -0.4997  -0.4874  -0.4826  -0.4686  -0.4444
 -0.3613  -0.3437  -0.3246  -0.2641

          Ground-State Mulliken Net Atomic Charges

     Atom                 Charge (a.u.)
  ----------------------------------------
      1 C                    -0.071468
      2 C                    -0.312001
      3 C                    -0.058674
      4 H                     0.180395
      5 C                     0.140438
      6 S                    -0.180068
      7 C                    -0.303640
      8 H                     0.124140
      9 H                     0.105258
     10 H                     0.109970
     11 C                    -0.062857
     12 C                    -0.267513
     13 C                     0.033240
     14 H                     0.190763
     15 C                    -0.284430
     16 S                     0.004621
     17 C                    -0.273118
     18 H                     0.100244
     19 H                     0.108377
     20 H                     0.108586
     21 H                     0.197255
     22 H                     0.111390
     23 H                     0.113878
     24 H                     0.185215
  ----------------------------------------
  Sum of atomic charges =     0.000000

                    Cartesian Multipole Moments
 -----------------------------------------------------------------
    Charge (ESU x 10^10)
                -0.0000
    Dipole Moment (Debye)
         X      -0.7775      Y      -0.5348      Z       3.7910
       Tot       3.9067
    Quadrupole Moments (Debye-Ang)
        XX     -91.7322     XY       2.3252     YY     -72.8545
        XZ       0.3603     YZ      -2.3863     ZZ     -85.6627

 Total job time:  63.43s(wall), 2258.96s(cpu)
        *  Thank you very much for using Q-Chem.  Have a nice day.  *
