 Q-Chem 5.4, Q-Chem, Inc., Pleasanton, CA (2021)
 Q-Chem 5.4.0 for Intel X86 EM64T Linux

User input:
--------------------------------------------------------------
$molecule
0 1
C	-0.724460	-3.887800	-0.001092
C	0.661131	-3.701456	-0.001036
C	1.085203	-2.345170	-0.000406
H	1.367305	-4.545233	-0.001433
C	0.000000	-1.450135	0.000000
S	-1.527517	-2.321334	-0.000367
C	2.531478	-1.934439	-0.000233
H	3.196254	-2.819799	-0.000656
H	2.787305	-1.326210	0.892447
H	2.787282	-1.325374	-0.892350
C	0.000000	0.000000	0.000000
C	-0.003081	0.844605	1.113020
C	-0.007772	2.235575	0.820578
H	-0.001743	0.456510	2.142881
C	-0.008427	2.483726	-0.563588
S	-0.003691	0.970607	-1.464748
C	-0.011355	3.300181	1.882380
H	-0.009922	2.852233	2.894974
H	-0.905944	3.953225	1.808137
H	0.878901	3.959133	1.808230
H	-0.011727	3.441752	-1.097114
H	-1.059101	-4.420219	0.896272
H	-1.059122	-4.419395	-0.898936
H	0.000014	-1.450628	1.080000
$end

$rem
JOBTYPE		SP
EXCHANGE	HF
CORRELATION	pRIMP2
BASIS		cc-pvtz
METHOD		rimp2
AUX_BASIS	rimp2-cc-pvtz
SOLVENT_METHOD	PCM
PURECART	11111
SYMMETRY	false
MEM_TOTAL	110000
SCF_CONVERGENCE = 6
THRESH=10
GUI = 2
$end

$solvent
dielectric 4.90
$end
--------------------------------------------------------------

             Standard Nuclear Orientation (Angstroms)
    I     Atom           X                Y                Z
 ----------------------------------------------------------------
    1      C      -0.7244600000    -3.8878000000    -0.0010920000
    2      C       0.6611310000    -3.7014560000    -0.0010360000
    3      C       1.0852030000    -2.3451700000    -0.0004060000
    4      H       1.3673050000    -4.5452330000    -0.0014330000
    5      C       0.0000000000    -1.4501350000     0.0000000000
    6      S      -1.5275170000    -2.3213340000    -0.0003670000
    7      C       2.5314780000    -1.9344390000    -0.0002330000
    8      H       3.1962540000    -2.8197990000    -0.0006560000
    9      H       2.7873050000    -1.3262100000     0.8924470000
   10      H       2.7872820000    -1.3253740000    -0.8923500000
   11      C       0.0000000000     0.0000000000     0.0000000000
   12      C      -0.0030810000     0.8446050000     1.1130200000
   13      C      -0.0077720000     2.2355750000     0.8205780000
   14      H      -0.0017430000     0.4565100000     2.1428810000
   15      C      -0.0084270000     2.4837260000    -0.5635880000
   16      S      -0.0036910000     0.9706070000    -1.4647480000
   17      C      -0.0113550000     3.3001810000     1.8823800000
   18      H      -0.0099220000     2.8522330000     2.8949740000
   19      H      -0.9059440000     3.9532250000     1.8081370000
   20      H       0.8789010000     3.9591330000     1.8082300000
   21      H      -0.0117270000     3.4417520000    -1.0971140000
   22      H      -1.0591010000    -4.4202190000     0.8962720000
   23      H      -1.0591220000    -4.4193950000    -0.8989360000
   24      H       0.0000140000    -1.4506280000     1.0800000000
 ----------------------------------------------------------------

   10   -1180.7662113049      4.98e-07  Convergence criterion met
 Total energy in the final basis set =    -1180.7662113049
        RIMP2         total energy =     -1182.7699570735 a.u.

                    Orbital Energies (a.u.)
 --------------------------------------------------------------

 Alpha MOs
 -- Occupied --
-91.9807 -91.9417 -11.2817 -11.2653 -11.2622 -11.2561 -11.2509 -11.2435
-11.2412 -11.2313 -11.2295 -11.2193  -8.9807  -8.9463  -6.6616  -6.6611
 -6.6605  -6.6277  -6.6267  -6.6254  -1.1972  -1.1539  -1.0570  -1.0254
 -1.0061  -0.9599  -0.9119  -0.9013  -0.8147  -0.7609  -0.7350  -0.7021
 -0.6605  -0.6408  -0.6107  -0.5891  -0.5800  -0.5714  -0.5659  -0.5501
 -0.5411  -0.5295  -0.5130  -0.5054  -0.4937  -0.4822  -0.4597  -0.4491
 -0.3561  -0.3410  -0.3127  -0.2827

          Ground-State Mulliken Net Atomic Charges

     Atom                 Charge (a.u.)
  ----------------------------------------
      1 C                    -0.077588
      2 C                    -0.329540
      3 C                    -0.019674
      4 H                     0.177276
      5 C                     0.086361
      6 S                    -0.176496
      7 C                    -0.266327
      8 H                     0.113098
      9 H                     0.101153
     10 H                     0.106843
     11 C                    -0.083295
     12 C                    -0.238090
     13 C                     0.019451
     14 H                     0.181366
     15 C                    -0.235668
     16 S                     0.006287
     17 C                    -0.271756
     18 H                     0.102190
     19 H                     0.108854
     20 H                     0.107969
     21 H                     0.197385
     22 H                     0.111280
     23 H                     0.112588
     24 H                     0.166333
  ----------------------------------------
  Sum of atomic charges =     0.000000

                    Cartesian Multipole Moments
 -----------------------------------------------------------------
    Charge (ESU x 10^10)
                -0.0000
    Dipole Moment (Debye)
         X       2.4183      Y       0.6112      Z       2.3156
       Tot       3.4035
    Quadrupole Moments (Debye-Ang)
        XX     -91.7491     XY      -3.7800     YY     -73.6753
        XZ      -0.3293     YZ      -0.1574     ZZ     -86.0603

 Total job time:  55.71s(wall), 1812.61s(cpu)
        *  Thank you very much for using Q-Chem.  Have a nice day.  *
