 Q-Chem 5.4, Q-Chem, Inc., Pleasanton, CA (2021)
 Q-Chem 5.4.0 for Intel X86 EM64T Linux

User input:
--------------------------------------------------------------
$molecule
0 1
C	-0.363176	-3.887800	0.626855
C	0.329669	-3.701456	-0.573074
C	0.542250	-2.345170	-0.940016
H	0.682412	-4.545233	-1.184837
C	-0.000000	-1.450135	-0.000000
S	-0.764076	-2.321334	1.322686
C	1.265537	-1.934439	-2.192440
H	1.597559	-2.819799	-2.768365
H	2.166534	-1.326210	-1.967653
H	0.620843	-1.325374	-2.860032
C	0.000000	0.000000	0.000000
C	0.540541	0.648986	1.113020
C	1.431046	1.717546	0.820578
H	0.292104	0.350827	2.142881
C	1.590053	1.908061	-0.563588
S	0.621066	0.745901	-1.464748
C	2.112618	2.535384	1.882380
H	1.825779	2.191315	2.894974
H	1.847090	3.610676	1.808137
H	3.218159	2.467925	1.808230
H	2.203332	2.644073	-1.097114
H	0.246643	-4.420219	1.365344
H	-1.308062	-4.419395	0.467758
H	0.935314	-1.450628	0.539988
$end

$rem
JOBTYPE		SP
EXCHANGE	HF
CORRELATION	pRIMP2
BASIS		cc-pvtz
METHOD		rimp2
AUX_BASIS	rimp2-cc-pvtz
SOLVENT_METHOD	PCM
PURECART	11111
SYMMETRY	false
MEM_TOTAL	110000
SCF_CONVERGENCE = 6
THRESH=10
GUI = 2
$end

$solvent
dielectric 4.90
$end
--------------------------------------------------------------

             Standard Nuclear Orientation (Angstroms)
    I     Atom           X                Y                Z
 ----------------------------------------------------------------
    1      C      -0.3631760000    -3.8878000000     0.6268550000
    2      C       0.3296690000    -3.7014560000    -0.5730740000
    3      C       0.5422500000    -2.3451700000    -0.9400160000
    4      H       0.6824120000    -4.5452330000    -1.1848370000
    5      C       0.0000000000    -1.4501350000     0.0000000000
    6      S      -0.7640760000    -2.3213340000     1.3226860000
    7      C       1.2655370000    -1.9344390000    -2.1924400000
    8      H       1.5975590000    -2.8197990000    -2.7683650000
    9      H       2.1665340000    -1.3262100000    -1.9676530000
   10      H       0.6208430000    -1.3253740000    -2.8600320000
   11      C       0.0000000000     0.0000000000     0.0000000000
   12      C       0.5405410000     0.6489860000     1.1130200000
   13      C       1.4310460000     1.7175460000     0.8205780000
   14      H       0.2921040000     0.3508270000     2.1428810000
   15      C       1.5900530000     1.9080610000    -0.5635880000
   16      S       0.6210660000     0.7459010000    -1.4647480000
   17      C       2.1126180000     2.5353840000     1.8823800000
   18      H       1.8257790000     2.1913150000     2.8949740000
   19      H       1.8470900000     3.6106760000     1.8081370000
   20      H       3.2181590000     2.4679250000     1.8082300000
   21      H       2.2033320000     2.6440730000    -1.0971140000
   22      H       0.2466430000    -4.4202190000     1.3653440000
   23      H      -1.3080620000    -4.4193950000     0.4677580000
   24      H       0.9353140000    -1.4506280000     0.5399880000
 ----------------------------------------------------------------

   10   -1180.7136424126      7.94e-07  Convergence criterion met
 Total energy in the final basis set =    -1180.7136424126
        RIMP2         total energy =     -1182.7325953584 a.u.

                    Orbital Energies (a.u.)
 --------------------------------------------------------------

 Alpha MOs
 -- Occupied --
-91.9806 -91.9411 -11.2782 -11.2645 -11.2627 -11.2564 -11.2509 -11.2414
-11.2363 -11.2288 -11.2284 -11.2180  -8.9813  -8.9459  -6.6620  -6.6614
 -6.6609  -6.6273  -6.6263  -6.6250  -1.2032  -1.1523  -1.0590  -1.0261
 -1.0073  -0.9554  -0.9122  -0.9038  -0.8077  -0.7701  -0.7243  -0.7007
 -0.6625  -0.6430  -0.6108  -0.5840  -0.5829  -0.5749  -0.5686  -0.5539
 -0.5419  -0.5302  -0.5161  -0.5147  -0.4924  -0.4671  -0.4517  -0.4442
 -0.3549  -0.3394  -0.3232  -0.2615

          Ground-State Mulliken Net Atomic Charges

     Atom                 Charge (a.u.)
  ----------------------------------------
      1 C                    -0.070725
      2 C                    -0.327242
      3 C                    -0.039003
      4 H                     0.178584
      5 C                     0.057098
      6 S                    -0.194419
      7 C                    -0.281005
      8 H                     0.110621
      9 H                     0.111883
     10 H                     0.108441
     11 C                    -0.049268
     12 C                    -0.237999
     13 C                     0.017661
     14 H                     0.183673
     15 C                    -0.250243
     16 S                     0.023588
     17 C                    -0.268858
     18 H                     0.103085
     19 H                     0.108071
     20 H                     0.105744
     21 H                     0.198375
     22 H                     0.109289
     23 H                     0.111857
     24 H                     0.190791
  ----------------------------------------
  Sum of atomic charges =     0.000000

                    Cartesian Multipole Moments
 -----------------------------------------------------------------
    Charge (ESU x 10^10)
                -0.0000
    Dipole Moment (Debye)
         X       3.2314      Y       0.1110      Z      -0.5046
       Tot       3.2725
    Quadrupole Moments (Debye-Ang)
        XX     -87.6010     XY       2.1552     YY     -79.2643
        XZ       0.6549     YZ       3.1433     ZZ     -85.0997

 Total job time:  57.99s(wall), 1963.27s(cpu)
        *  Thank you very much for using Q-Chem.  Have a nice day.  *
