 Q-Chem 5.4, Q-Chem, Inc., Pleasanton, CA (2021)
 Q-Chem 5.4.0 for Intel X86 EM64T Linux

User input:
--------------------------------------------------------------
$molecule
0 1
C	0.248806	-3.887800	-0.680396
C	-0.225147	-3.701456	0.621614
C	-0.370780	-2.345170	1.019896
H	-0.466300	-4.545233	1.285337
C	0.000000	-1.450135	0.000000
S	0.522786	-2.321334	-1.435271
C	-0.865597	-1.934439	2.378891
H	-1.092567	-2.819799	3.003720
H	-1.791940	-1.326210	2.313975
H	-0.114772	-1.325374	2.924390
C	0.000000	0.000000	0.000000
C	0.645024	0.545262	1.113020
C	1.707554	1.442954	0.820578
H	0.348587	0.294774	2.142881
C	1.897227	1.602964	-0.563588
S	0.741155	0.626722	-1.464748
C	2.520787	2.130014	1.882380
H	2.178559	1.840981	2.894974
H	2.446016	3.235078	1.808137
H	3.597818	1.871604	1.808230
H	2.628997	2.221299	-1.097114
H	-0.479986	-4.420219	-1.301772
H	1.206964	-4.419395	-0.687795
H	-1.014873	-1.450628	-0.369368
$end

$rem
JOBTYPE		SP
EXCHANGE	HF
CORRELATION	pRIMP2
BASIS		cc-pvtz
METHOD		rimp2
AUX_BASIS	rimp2-cc-pvtz
SOLVENT_METHOD	PCM
PURECART	11111
SYMMETRY	false
MEM_TOTAL	110000
SCF_CONVERGENCE = 6
THRESH=10
GUI = 2
$end

$solvent
dielectric 4.90
$end
--------------------------------------------------------------

             Standard Nuclear Orientation (Angstroms)
    I     Atom           X                Y                Z
 ----------------------------------------------------------------
    1      C       0.2488060000    -3.8878000000    -0.6803960000
    2      C      -0.2251470000    -3.7014560000     0.6216140000
    3      C      -0.3707800000    -2.3451700000     1.0198960000
    4      H      -0.4663000000    -4.5452330000     1.2853370000
    5      C       0.0000000000    -1.4501350000     0.0000000000
    6      S       0.5227860000    -2.3213340000    -1.4352710000
    7      C      -0.8655970000    -1.9344390000     2.3788910000
    8      H      -1.0925670000    -2.8197990000     3.0037200000
    9      H      -1.7919400000    -1.3262100000     2.3139750000
   10      H      -0.1147720000    -1.3253740000     2.9243900000
   11      C       0.0000000000     0.0000000000     0.0000000000
   12      C       0.6450240000     0.5452620000     1.1130200000
   13      C       1.7075540000     1.4429540000     0.8205780000
   14      H       0.3485870000     0.2947740000     2.1428810000
   15      C       1.8972270000     1.6029640000    -0.5635880000
   16      S       0.7411550000     0.6267220000    -1.4647480000
   17      C       2.5207870000     2.1300140000     1.8823800000
   18      H       2.1785590000     1.8409810000     2.8949740000
   19      H       2.4460160000     3.2350780000     1.8081370000
   20      H       3.5978180000     1.8716040000     1.8082300000
   21      H       2.6289970000     2.2212990000    -1.0971140000
   22      H      -0.4799860000    -4.4202190000    -1.3017720000
   23      H       1.2069640000    -4.4193950000    -0.6877950000
   24      H      -1.0148730000    -1.4506280000    -0.3693680000
 ----------------------------------------------------------------

   11   -1180.6930985501      4.89e-07  Convergence criterion met
 Total energy in the final basis set =    -1180.6930985501
        RIMP2         total energy =     -1182.7146997159 a.u.

                    Orbital Energies (a.u.)
 --------------------------------------------------------------

 Alpha MOs
 -- Occupied --
-91.9813 -91.9405 -11.2755 -11.2629 -11.2609 -11.2515 -11.2489 -11.2469
-11.2373 -11.2322 -11.2296 -11.2144  -8.9818  -8.9450  -6.6626  -6.6619
 -6.6615  -6.6263  -6.6252  -6.6239  -1.2007  -1.1532  -1.0565  -1.0309
 -0.9977  -0.9654  -0.9117  -0.9013  -0.8132  -0.7575  -0.7367  -0.7078
 -0.6502  -0.6382  -0.6116  -0.5944  -0.5853  -0.5678  -0.5666  -0.5495
 -0.5435  -0.5336  -0.5184  -0.5050  -0.4828  -0.4758  -0.4559  -0.4369
 -0.3580  -0.3396  -0.3238  -0.2550

          Ground-State Mulliken Net Atomic Charges

     Atom                 Charge (a.u.)
  ----------------------------------------
      1 C                    -0.080475
      2 C                    -0.334699
      3 C                    -0.040008
      4 H                     0.174973
      5 C                     0.075702
      6 S                    -0.181541
      7 C                    -0.293231
      8 H                     0.118999
      9 H                     0.111487
     10 H                     0.098266
     11 C                    -0.116103
     12 C                    -0.179685
     13 C                    -0.000030
     14 H                     0.198371
     15 C                    -0.207011
     16 S                     0.014429
     17 C                    -0.269609
     18 H                     0.100842
     19 H                     0.108167
     20 H                     0.106596
     21 H                     0.200719
     22 H                     0.107205
     23 H                     0.109786
     24 H                     0.176852
  ----------------------------------------
  Sum of atomic charges =     0.000000

                    Cartesian Multipole Moments
 -----------------------------------------------------------------
    Charge (ESU x 10^10)
                -0.0000
    Dipole Moment (Debye)
         X       0.3838      Y       0.6493      Z       3.4475
       Tot       3.5291
    Quadrupole Moments (Debye-Ang)
        XX     -85.0996     XY       8.2305     YY     -81.4394
        XZ       0.6470     YZ      -2.2020     ZZ     -85.1115

 Total job time:  61.59s(wall), 2129.63s(cpu)
        *  Thank you very much for using Q-Chem.  Have a nice day.  *
