 Q-Chem 5.4, Q-Chem, Inc., Pleasanton, CA (2021)
 Q-Chem 5.4.0 for Intel X86 EM64T Linux

User input:
--------------------------------------------------------------
$molecule
0 1
C	0.363176	-3.887800	-0.626855
C	-0.329669	-3.701456	0.573074
C	-0.542250	-2.345170	0.940016
H	-0.682412	-4.545233	1.184837
C	-0.000000	-1.450135	-0.000000
S	0.764076	-2.321334	-1.322686
C	-1.265537	-1.934439	2.192440
H	-1.597559	-2.819799	2.768365
H	-2.166534	-1.326210	1.967653
H	-0.620843	-1.325374	2.860032
C	0.000000	0.000000	0.000000
C	0.215623	0.816623	1.113020
C	0.571102	2.161411	0.820578
H	0.116470	0.441406	2.142881
C	0.634696	2.401276	-0.563588
S	0.247646	0.938489	-1.464748
C	0.843182	3.190669	1.882380
H	0.728628	2.757614	2.894974
H	0.148095	4.052998	1.808137
H	1.873652	3.596752	1.808230
H	0.879464	3.327513	-1.097114
H	-0.246643	-4.420219	-1.365344
H	1.308062	-4.419395	-0.467758
H	-0.935314	-1.450628	-0.539988
$end

$rem
JOBTYPE		SP
EXCHANGE	HF
CORRELATION	pRIMP2
BASIS		cc-pvtz
METHOD		rimp2
AUX_BASIS	rimp2-cc-pvtz
SOLVENT_METHOD	PCM
PURECART	11111
SYMMETRY	false
MEM_TOTAL	110000
SCF_CONVERGENCE = 6
THRESH=10
GUI = 2
$end

$solvent
dielectric 4.90
$end
--------------------------------------------------------------

             Standard Nuclear Orientation (Angstroms)
    I     Atom           X                Y                Z
 ----------------------------------------------------------------
    1      C       0.3631760000    -3.8878000000    -0.6268550000
    2      C      -0.3296690000    -3.7014560000     0.5730740000
    3      C      -0.5422500000    -2.3451700000     0.9400160000
    4      H      -0.6824120000    -4.5452330000     1.1848370000
    5      C       0.0000000000    -1.4501350000     0.0000000000
    6      S       0.7640760000    -2.3213340000    -1.3226860000
    7      C      -1.2655370000    -1.9344390000     2.1924400000
    8      H      -1.5975590000    -2.8197990000     2.7683650000
    9      H      -2.1665340000    -1.3262100000     1.9676530000
   10      H      -0.6208430000    -1.3253740000     2.8600320000
   11      C       0.0000000000     0.0000000000     0.0000000000
   12      C       0.2156230000     0.8166230000     1.1130200000
   13      C       0.5711020000     2.1614110000     0.8205780000
   14      H       0.1164700000     0.4414060000     2.1428810000
   15      C       0.6346960000     2.4012760000    -0.5635880000
   16      S       0.2476460000     0.9384890000    -1.4647480000
   17      C       0.8431820000     3.1906690000     1.8823800000
   18      H       0.7286280000     2.7576140000     2.8949740000
   19      H       0.1480950000     4.0529980000     1.8081370000
   20      H       1.8736520000     3.5967520000     1.8082300000
   21      H       0.8794640000     3.3275130000    -1.0971140000
   22      H      -0.2466430000    -4.4202190000    -1.3653440000
   23      H       1.3080620000    -4.4193950000    -0.4677580000
   24      H      -0.9353140000    -1.4506280000    -0.5399880000
 ----------------------------------------------------------------

   10   -1180.7532923036      5.08e-07  Convergence criterion met
 Total energy in the final basis set =    -1180.7532923036
        RIMP2         total energy =     -1182.7592911293 a.u.

                    Orbital Energies (a.u.)
 --------------------------------------------------------------

 Alpha MOs
 -- Occupied --
-91.9845 -91.9454 -11.2853 -11.2650 -11.2592 -11.2588 -11.2504 -11.2434
-11.2333 -11.2328 -11.2285 -11.2219  -8.9842  -8.9500  -6.6652  -6.6646
 -6.6640  -6.6313  -6.6303  -6.6290  -1.2000  -1.1531  -1.0584  -1.0304
 -1.0009  -0.9628  -0.9146  -0.9003  -0.8164  -0.7606  -0.7361  -0.7042
 -0.6545  -0.6421  -0.6106  -0.5925  -0.5828  -0.5683  -0.5656  -0.5523
 -0.5453  -0.5332  -0.5191  -0.5030  -0.4889  -0.4809  -0.4669  -0.4467
 -0.3579  -0.3429  -0.3240  -0.2665

          Ground-State Mulliken Net Atomic Charges

     Atom                 Charge (a.u.)
  ----------------------------------------
      1 C                    -0.075166
      2 C                    -0.323702
      3 C                    -0.033879
      4 H                     0.178528
      5 C                     0.111822
      6 S                    -0.174632
      7 C                    -0.291065
      8 H                     0.118191
      9 H                     0.111592
     10 H                     0.103586
     11 C                    -0.088439
     12 C                    -0.234198
     13 C                     0.018676
     14 H                     0.192194
     15 C                    -0.251465
     16 S                    -0.001965
     17 C                    -0.273527
     18 H                     0.100836
     19 H                     0.108262
     20 H                     0.108715
     21 H                     0.198170
     22 H                     0.110787
     23 H                     0.114365
     24 H                     0.172312
  ----------------------------------------
  Sum of atomic charges =     0.000000

                    Cartesian Multipole Moments
 -----------------------------------------------------------------
    Charge (ESU x 10^10)
                -0.0000
    Dipole Moment (Debye)
         X      -1.5299      Y      -0.0075      Z       3.0614
       Tot       3.4223
    Quadrupole Moments (Debye-Ang)
        XX     -91.3275     XY       5.6079     YY     -73.7048
        XZ       0.2494     YZ      -1.2790     ZZ     -85.5726

 Total job time:  59.97s(wall), 1954.56s(cpu)
        *  Thank you very much for using Q-Chem.  Have a nice day.  *
