 Q-Chem 5.4, Q-Chem, Inc., Pleasanton, CA (2021)
 Q-Chem 5.4.0 for Intel X86 EM64T Linux

User input:
--------------------------------------------------------------
$molecule
0 1
C	0.674034	-3.828925	0.724460
C	0.641731	-3.645403	-0.661131
C	0.406834	-2.309612	-1.085203
H	0.787861	-4.476429	-1.367305
C	0.251813	-1.428104	0.000000
S	0.402734	-2.286131	1.527517
C	0.335682	-1.905091	-2.531478
H	0.489007	-2.777074	-3.196254
H	1.109183	-1.151090	-2.787305
H	-0.648644	-1.460194	-2.787282
C	0.000000	0.000000	0.000000
C	0.419634	0.732990	1.113020
C	1.111057	1.939951	0.820578
H	0.226746	0.396221	2.142881
C	1.234565	2.155183	-0.563588
S	0.482106	0.842416	-1.464748
C	1.640257	2.863718	1.882380
H	1.417524	2.475067	2.894974
H	1.192042	3.876565	1.808137
H	2.740717	2.989259	1.808230
H	1.710720	2.986508	-1.097114
H	1.650218	-4.197430	1.059101
H	-0.117859	-4.508353	1.059122
H	1.315491	-1.241050	-0.000014
$end

$rem
JOBTYPE		SP
EXCHANGE	HF
CORRELATION	pRIMP2
BASIS		cc-pvtz
METHOD		rimp2
AUX_BASIS	rimp2-cc-pvtz
SOLVENT_METHOD	PCM
PURECART	11111
SYMMETRY	false
MEM_TOTAL	110000
SCF_CONVERGENCE = 6
THRESH=10
GUI = 2
$end

$solvent
dielectric 4.90
$end
--------------------------------------------------------------

             Standard Nuclear Orientation (Angstroms)
    I     Atom           X                Y                Z
 ----------------------------------------------------------------
    1      C       0.6740340000    -3.8289250000     0.7244600000
    2      C       0.6417310000    -3.6454030000    -0.6611310000
    3      C       0.4068340000    -2.3096120000    -1.0852030000
    4      H       0.7878610000    -4.4764290000    -1.3673050000
    5      C       0.2518130000    -1.4281040000     0.0000000000
    6      S       0.4027340000    -2.2861310000     1.5275170000
    7      C       0.3356820000    -1.9050910000    -2.5314780000
    8      H       0.4890070000    -2.7770740000    -3.1962540000
    9      H       1.1091830000    -1.1510900000    -2.7873050000
   10      H      -0.6486440000    -1.4601940000    -2.7872820000
   11      C       0.0000000000     0.0000000000     0.0000000000
   12      C       0.4196340000     0.7329900000     1.1130200000
   13      C       1.1110570000     1.9399510000     0.8205780000
   14      H       0.2267460000     0.3962210000     2.1428810000
   15      C       1.2345650000     2.1551830000    -0.5635880000
   16      S       0.4821060000     0.8424160000    -1.4647480000
   17      C       1.6402570000     2.8637180000     1.8823800000
   18      H       1.4175240000     2.4750670000     2.8949740000
   19      H       1.1920420000     3.8765650000     1.8081370000
   20      H       2.7407170000     2.9892590000     1.8082300000
   21      H       1.7107200000     2.9865080000    -1.0971140000
   22      H       1.6502180000    -4.1974300000     1.0591010000
   23      H      -0.1178590000    -4.5083530000     1.0591220000
   24      H       1.3154910000    -1.2410500000    -0.0000140000
 ----------------------------------------------------------------

   10   -1180.7256580537      6.41e-07  Convergence criterion met
 Total energy in the final basis set =    -1180.7256580537
        RIMP2         total energy =     -1182.7411002683 a.u.

                    Orbital Energies (a.u.)
 --------------------------------------------------------------

 Alpha MOs
 -- Occupied --
-91.9783 -91.9444 -11.2815 -11.2632 -11.2619 -11.2606 -11.2513 -11.2426
-11.2358 -11.2294 -11.2284 -11.2201  -8.9792  -8.9490  -6.6600  -6.6594
 -6.6588  -6.6303  -6.6293  -6.6281  -1.2048  -1.1529  -1.0601  -1.0276
 -1.0063  -0.9556  -0.9146  -0.9034  -0.8095  -0.7726  -0.7188  -0.7030
 -0.6606  -0.6470  -0.6125  -0.5886  -0.5834  -0.5725  -0.5697  -0.5526
 -0.5413  -0.5338  -0.5163  -0.5142  -0.4900  -0.4718  -0.4548  -0.4416
 -0.3576  -0.3405  -0.3277  -0.2625

          Ground-State Mulliken Net Atomic Charges

     Atom                 Charge (a.u.)
  ----------------------------------------
      1 C                    -0.074386
      2 C                    -0.319932
      3 C                    -0.050882
      4 H                     0.178180
      5 C                     0.100790
      6 S                    -0.197542
      7 C                    -0.301826
      8 H                     0.115945
      9 H                     0.111428
     10 H                     0.116724
     11 C                    -0.015059
     12 C                    -0.288892
     13 C                     0.040670
     14 H                     0.178847
     15 C                    -0.262867
     16 S                     0.012589
     17 C                    -0.268567
     18 H                     0.103397
     19 H                     0.108623
     20 H                     0.107207
     21 H                     0.197641
     22 H                     0.110819
     23 H                     0.112606
     24 H                     0.184487
  ----------------------------------------
  Sum of atomic charges =     0.000000

                    Cartesian Multipole Moments
 -----------------------------------------------------------------
    Charge (ESU x 10^10)
                -0.0000
    Dipole Moment (Debye)
         X       2.0087      Y       0.1628      Z      -1.0281
       Tot       2.2624
    Quadrupole Moments (Debye-Ang)
        XX     -88.3945     XY       1.8811     YY     -76.9868
        XZ       0.1408     YZ       4.5235     ZZ     -85.4100

 Total job time:  57.60s(wall), 2064.42s(cpu)
        *  Thank you very much for using Q-Chem.  Have a nice day.  *
