 Q-Chem 5.4, Q-Chem, Inc., Pleasanton, CA (2021)
 Q-Chem 5.4.0 for Intel X86 EM64T Linux

User input:
--------------------------------------------------------------
$molecule
0 1
C	-0.466510	-3.887800	0.554267
C	0.424173	-3.701456	-0.507121
C	0.697244	-2.345170	-0.831575
H	0.877789	-4.545233	-1.048337
C	0.000000	-1.450135	0.000000
S	-0.982150	-2.321334	1.169911
C	1.627024	-1.934439	-1.939374
H	2.054010	-2.819799	-2.448894
H	2.475299	-1.326210	-1.561545
H	1.108051	-1.325374	-2.708773
C	0.000000	0.000000	0.000000
C	0.645024	0.545262	1.113020
C	1.707554	1.442954	0.820578
H	0.348587	0.294774	2.142881
C	1.897227	1.602964	-0.563588
S	0.741155	0.626722	-1.464748
C	2.520787	2.130014	1.882380
H	2.178559	1.840981	2.894974
H	2.446016	3.235078	1.808137
H	3.597818	1.871604	1.808230
H	2.628997	2.221299	-1.097114
H	0.005807	-4.420219	1.387431
H	-1.369415	-4.419395	0.233510
H	0.827337	-1.450628	0.694200
$end

$rem
JOBTYPE		SP
EXCHANGE	HF
CORRELATION	pRIMP2
BASIS		cc-pvtz
METHOD		rimp2
AUX_BASIS	rimp2-cc-pvtz
SOLVENT_METHOD	PCM
PURECART	11111
SYMMETRY	false
MEM_TOTAL	110000
SCF_CONVERGENCE = 6
THRESH=10
GUI = 2
$end

$solvent
dielectric 4.90
$end
--------------------------------------------------------------

             Standard Nuclear Orientation (Angstroms)
    I     Atom           X                Y                Z
 ----------------------------------------------------------------
    1      C      -0.4665100000    -3.8878000000     0.5542670000
    2      C       0.4241730000    -3.7014560000    -0.5071210000
    3      C       0.6972440000    -2.3451700000    -0.8315750000
    4      H       0.8777890000    -4.5452330000    -1.0483370000
    5      C       0.0000000000    -1.4501350000     0.0000000000
    6      S      -0.9821500000    -2.3213340000     1.1699110000
    7      C       1.6270240000    -1.9344390000    -1.9393740000
    8      H       2.0540100000    -2.8197990000    -2.4488940000
    9      H       2.4752990000    -1.3262100000    -1.5615450000
   10      H       1.1080510000    -1.3253740000    -2.7087730000
   11      C       0.0000000000     0.0000000000     0.0000000000
   12      C       0.6450240000     0.5452620000     1.1130200000
   13      C       1.7075540000     1.4429540000     0.8205780000
   14      H       0.3485870000     0.2947740000     2.1428810000
   15      C       1.8972270000     1.6029640000    -0.5635880000
   16      S       0.7411550000     0.6267220000    -1.4647480000
   17      C       2.5207870000     2.1300140000     1.8823800000
   18      H       2.1785590000     1.8409810000     2.8949740000
   19      H       2.4460160000     3.2350780000     1.8081370000
   20      H       3.5978180000     1.8716040000     1.8082300000
   21      H       2.6289970000     2.2212990000    -1.0971140000
   22      H       0.0058070000    -4.4202190000     1.3874310000
   23      H      -1.3694150000    -4.4193950000     0.2335100000
   24      H       0.8273370000    -1.4506280000     0.6942000000
 ----------------------------------------------------------------

   11   -1180.6827930827      5.66e-07  Convergence criterion met
 Total energy in the final basis set =    -1180.6827930827
        RIMP2         total energy =     -1182.7100052079 a.u.

                    Orbital Energies (a.u.)
 --------------------------------------------------------------

 Alpha MOs
 -- Occupied --
-91.9808 -91.9371 -11.2734 -11.2682 -11.2614 -11.2520 -11.2519 -11.2433
-11.2392 -11.2299 -11.2262 -11.2153  -8.9819  -8.9420  -6.6625  -6.6618
 -6.6616  -6.6234  -6.6224  -6.6212  -1.2052  -1.1524  -1.0590  -1.0259
 -1.0082  -0.9557  -0.9102  -0.9053  -0.8047  -0.7693  -0.7305  -0.7001
 -0.6624  -0.6401  -0.6104  -0.5858  -0.5821  -0.5766  -0.5679  -0.5556
 -0.5423  -0.5280  -0.5181  -0.5146  -0.4927  -0.4591  -0.4478  -0.4423
 -0.3524  -0.3386  -0.3208  -0.2594

          Ground-State Mulliken Net Atomic Charges

     Atom                 Charge (a.u.)
  ----------------------------------------
      1 C                    -0.068402
      2 C                    -0.337110
      3 C                    -0.040513
      4 H                     0.177508
      5 C                     0.063626
      6 S                    -0.206698
      7 C                    -0.270531
      8 H                     0.107871
      9 H                     0.106898
     10 H                     0.110801
     11 C                    -0.097279
     12 C                    -0.191333
     13 C                     0.001160
     14 H                     0.188287
     15 C                    -0.233673
     16 S                     0.038434
     17 C                    -0.267342
     18 H                     0.103369
     19 H                     0.107685
     20 H                     0.104674
     21 H                     0.199839
     22 H                     0.107781
     23 H                     0.110183
     24 H                     0.184765
  ----------------------------------------
  Sum of atomic charges =     0.000000

                    Cartesian Multipole Moments
 -----------------------------------------------------------------
    Charge (ESU x 10^10)
                -0.0000
    Dipole Moment (Debye)
         X       4.1004      Y       0.4574      Z      -0.2280
       Tot       4.1321
    Quadrupole Moments (Debye-Ang)
        XX     -85.6059     XY       2.1844     YY     -82.1693
        XZ       0.6101     YZ       2.5435     ZZ     -84.7275

 Total job time:  61.73s(wall), 2135.57s(cpu)
        *  Thank you very much for using Q-Chem.  Have a nice day.  *
