 Q-Chem 5.4, Q-Chem, Inc., Pleasanton, CA (2021)
 Q-Chem 5.4.0 for Intel X86 EM64T Linux

User input:
--------------------------------------------------------------
$molecule
0 1
C	0.248806	-3.887800	-0.680396
C	-0.225147	-3.701456	0.621614
C	-0.370780	-2.345170	1.019896
H	-0.466300	-4.545233	1.285337
C	0.000000	-1.450135	0.000000
S	0.522786	-2.321334	-1.435271
C	-0.865597	-1.934439	2.378891
H	-1.092567	-2.819799	3.003720
H	-1.791940	-1.326210	2.313975
H	-0.114772	-1.325374	2.924390
C	0.000000	0.000000	0.000000
C	0.143630	0.832309	1.113020
C	0.380550	2.202961	0.820578
H	0.077556	0.449877	2.142881
C	0.422995	2.447456	-0.563588
S	0.164909	0.956502	-1.464748
C	0.561888	3.252016	1.882380
H	0.485513	2.810624	2.894974
H	-0.205711	4.050482	1.808137
H	1.553045	3.746365	1.808230
H	0.586105	3.391501	-1.097114
H	-0.479986	-4.420219	-1.301772
H	1.206964	-4.419395	-0.687795
H	-1.014873	-1.450628	-0.369368
$end

$rem
JOBTYPE		SP
EXCHANGE	HF
CORRELATION	pRIMP2
BASIS		cc-pvtz
METHOD		rimp2
AUX_BASIS	rimp2-cc-pvtz
SOLVENT_METHOD	PCM
PURECART	11111
SYMMETRY	false
MEM_TOTAL	110000
SCF_CONVERGENCE = 6
THRESH=10
GUI = 2
$end

$solvent
dielectric 4.90
$end
--------------------------------------------------------------

             Standard Nuclear Orientation (Angstroms)
    I     Atom           X                Y                Z
 ----------------------------------------------------------------
    1      C       0.2488060000    -3.8878000000    -0.6803960000
    2      C      -0.2251470000    -3.7014560000     0.6216140000
    3      C      -0.3707800000    -2.3451700000     1.0198960000
    4      H      -0.4663000000    -4.5452330000     1.2853370000
    5      C       0.0000000000    -1.4501350000     0.0000000000
    6      S       0.5227860000    -2.3213340000    -1.4352710000
    7      C      -0.8655970000    -1.9344390000     2.3788910000
    8      H      -1.0925670000    -2.8197990000     3.0037200000
    9      H      -1.7919400000    -1.3262100000     2.3139750000
   10      H      -0.1147720000    -1.3253740000     2.9243900000
   11      C       0.0000000000     0.0000000000     0.0000000000
   12      C       0.1436300000     0.8323090000     1.1130200000
   13      C       0.3805500000     2.2029610000     0.8205780000
   14      H       0.0775560000     0.4498770000     2.1428810000
   15      C       0.4229950000     2.4474560000    -0.5635880000
   16      S       0.1649090000     0.9565020000    -1.4647480000
   17      C       0.5618880000     3.2520160000     1.8823800000
   18      H       0.4855130000     2.8106240000     2.8949740000
   19      H      -0.2057110000     4.0504820000     1.8081370000
   20      H       1.5530450000     3.7463650000     1.8082300000
   21      H       0.5861050000     3.3915010000    -1.0971140000
   22      H      -0.4799860000    -4.4202190000    -1.3017720000
   23      H       1.2069640000    -4.4193950000    -0.6877950000
   24      H      -1.0148730000    -1.4506280000    -0.3693680000
 ----------------------------------------------------------------

   10   -1180.7550599135      5.07e-07  Convergence criterion met
 Total energy in the final basis set =    -1180.7550599135
        RIMP2         total energy =     -1182.7607210643 a.u.

                    Orbital Energies (a.u.)
 --------------------------------------------------------------

 Alpha MOs
 -- Occupied --
-91.9844 -91.9464 -11.2882 -11.2660 -11.2609 -11.2563 -11.2501 -11.2445
-11.2339 -11.2299 -11.2283 -11.2232  -8.9840  -8.9510  -6.6650  -6.6645
 -6.6638  -6.6324  -6.6314  -6.6301  -1.2010  -1.1528  -1.0591  -1.0314
 -1.0011  -0.9623  -0.9159  -0.9000  -0.8172  -0.7618  -0.7330  -0.7052
 -0.6553  -0.6452  -0.6107  -0.5940  -0.5837  -0.5684  -0.5645  -0.5510
 -0.5462  -0.5341  -0.5218  -0.5013  -0.4882  -0.4820  -0.4677  -0.4458
 -0.3596  -0.3431  -0.3247  -0.2653

          Ground-State Mulliken Net Atomic Charges

     Atom                 Charge (a.u.)
  ----------------------------------------
      1 C                    -0.072774
      2 C                    -0.320378
      3 C                    -0.033973
      4 H                     0.179515
      5 C                     0.121555
      6 S                    -0.177115
      7 C                    -0.299498
      8 H                     0.120980
      9 H                     0.113827
     10 H                     0.103622
     11 C                    -0.078758
     12 C                    -0.249906
     13 C                     0.025238
     14 H                     0.192730
     15 C                    -0.267211
     16 S                    -0.001293
     17 C                    -0.273290
     18 H                     0.100515
     19 H                     0.108358
     20 H                     0.108813
     21 H                     0.197836
     22 H                     0.110922
     23 H                     0.114607
     24 H                     0.175681
  ----------------------------------------
  Sum of atomic charges =     0.000000

                    Cartesian Multipole Moments
 -----------------------------------------------------------------
    Charge (ESU x 10^10)
                -0.0000
    Dipole Moment (Debye)
         X      -1.3982      Y      -0.2783      Z       3.3539
       Tot       3.6443
    Quadrupole Moments (Debye-Ang)
        XX     -91.6734     XY       4.2902     YY     -73.0951
        XZ       0.2440     YZ      -1.6982     ZZ     -85.5805

 Total job time:  58.31s(wall), 2156.61s(cpu)
        *  Thank you very much for using Q-Chem.  Have a nice day.  *
