 Q-Chem 5.4, Q-Chem, Inc., Pleasanton, CA (2021)
 Q-Chem 5.4.0 for Intel X86 EM64T Linux

User input:
--------------------------------------------------------------
$molecule
0 1
C	-0.713264	-3.887800	-0.126876
C	0.651267	-3.701456	0.113784
C	1.068787	-2.345170	0.188043
H	1.346782	-4.545233	0.236019
C	0.000000	-1.450135	0.000000
S	-1.504247	-2.321334	-0.265612
C	2.493059	-1.934439	0.439357
H	3.147809	-2.819799	0.554378
H	2.589987	-1.326210	1.362899
H	2.899892	-1.325374	-0.394786
C	0.000000	0.000000	0.000000
C	0.285976	0.794723	1.113020
C	0.757308	2.103412	0.820578
H	0.154498	0.429575	2.142881
C	0.841565	2.336821	-0.563588
S	0.328498	0.913334	-1.464748
C	1.118059	3.105040	1.882380
H	0.966197	2.683616	2.894974
H	0.500773	4.024668	1.808137
H	2.180000	3.419766	1.808230
H	1.166129	3.238200	-1.097114
H	-1.198647	-4.420219	0.698744
H	-0.886933	-4.419395	-1.069193
H	-0.187526	-1.450628	1.063595
$end

$rem
JOBTYPE		SP
EXCHANGE	HF
CORRELATION	pRIMP2
BASIS		cc-pvtz
METHOD		rimp2
AUX_BASIS	rimp2-cc-pvtz
SOLVENT_METHOD	PCM
PURECART	11111
SYMMETRY	false
MEM_TOTAL	110000
SCF_CONVERGENCE = 6
THRESH=10
GUI = 2
$end

$solvent
dielectric 4.90
$end
--------------------------------------------------------------

             Standard Nuclear Orientation (Angstroms)
    I     Atom           X                Y                Z
 ----------------------------------------------------------------
    1      C      -0.7132640000    -3.8878000000    -0.1268760000
    2      C       0.6512670000    -3.7014560000     0.1137840000
    3      C       1.0687870000    -2.3451700000     0.1880430000
    4      H       1.3467820000    -4.5452330000     0.2360190000
    5      C       0.0000000000    -1.4501350000     0.0000000000
    6      S      -1.5042470000    -2.3213340000    -0.2656120000
    7      C       2.4930590000    -1.9344390000     0.4393570000
    8      H       3.1478090000    -2.8197990000     0.5543780000
    9      H       2.5899870000    -1.3262100000     1.3628990000
   10      H       2.8998920000    -1.3253740000    -0.3947860000
   11      C       0.0000000000     0.0000000000     0.0000000000
   12      C       0.2859760000     0.7947230000     1.1130200000
   13      C       0.7573080000     2.1034120000     0.8205780000
   14      H       0.1544980000     0.4295750000     2.1428810000
   15      C       0.8415650000     2.3368210000    -0.5635880000
   16      S       0.3284980000     0.9133340000    -1.4647480000
   17      C       1.1180590000     3.1050400000     1.8823800000
   18      H       0.9661970000     2.6836160000     2.8949740000
   19      H       0.5007730000     4.0246680000     1.8081370000
   20      H       2.1800000000     3.4197660000     1.8082300000
   21      H       1.1661290000     3.2382000000    -1.0971140000
   22      H      -1.1986470000    -4.4202190000     0.6987440000
   23      H      -0.8869330000    -4.4193950000    -1.0691930000
   24      H      -0.1875260000    -1.4506280000     1.0635950000
 ----------------------------------------------------------------

   10   -1180.7583573778      5.30e-07  Convergence criterion met
 Total energy in the final basis set =    -1180.7583573778
        RIMP2         total energy =     -1182.7648031930 a.u.

                    Orbital Energies (a.u.)
 --------------------------------------------------------------

 Alpha MOs
 -- Occupied --
-91.9805 -91.9396 -11.2785 -11.2683 -11.2623 -11.2555 -11.2516 -11.2459
-11.2403 -11.2308 -11.2301 -11.2192  -8.9805  -8.9443  -6.6614  -6.6609
 -6.6603  -6.6257  -6.6247  -6.6234  -1.1975  -1.1542  -1.0571  -1.0249
 -1.0058  -0.9609  -0.9113  -0.9017  -0.8135  -0.7599  -0.7363  -0.7036
 -0.6593  -0.6404  -0.6110  -0.5898  -0.5805  -0.5720  -0.5651  -0.5509
 -0.5411  -0.5284  -0.5168  -0.5052  -0.4919  -0.4773  -0.4600  -0.4476
 -0.3548  -0.3418  -0.3140  -0.2813

          Ground-State Mulliken Net Atomic Charges

     Atom                 Charge (a.u.)
  ----------------------------------------
      1 C                    -0.076229
      2 C                    -0.327929
      3 C                    -0.014422
      4 H                     0.176918
      5 C                     0.064784
      6 S                    -0.181275
      7 C                    -0.268530
      8 H                     0.114833
      9 H                     0.100680
     10 H                     0.110331
     11 C                    -0.060122
     12 C                    -0.259946
     13 C                     0.032079
     14 H                     0.183463
     15 C                    -0.234895
     16 S                     0.004291
     17 C                    -0.270520
     18 H                     0.102243
     19 H                     0.108697
     20 H                     0.107965
     21 H                     0.198171
     22 H                     0.110085
     23 H                     0.110813
     24 H                     0.168516
  ----------------------------------------
  Sum of atomic charges =     0.000000

                    Cartesian Multipole Moments
 -----------------------------------------------------------------
    Charge (ESU x 10^10)
                -0.0000
    Dipole Moment (Debye)
         X       2.9737      Y       0.7240      Z       2.7740
       Tot       4.1306
    Quadrupole Moments (Debye-Ang)
        XX     -90.4860     XY      -0.0214     YY     -75.0039
        XZ       0.1190     YZ      -0.9011     ZZ     -86.1279

 Total job time:  66.15s(wall), 1946.41s(cpu)
        *  Thank you very much for using Q-Chem.  Have a nice day.  *
