 Q-Chem 5.4, Q-Chem, Inc., Pleasanton, CA (2021)
 Q-Chem 5.4.0 for Intel X86 EM64T Linux

User input:
--------------------------------------------------------------
$molecule
0 1
C	-0.555670	-3.887800	0.464838
C	0.505790	-3.701456	-0.425760
C	0.831053	-2.345170	-0.697866
H	1.046496	-4.545233	-0.879984
C	0.000000	-1.450135	0.000000
S	-1.170382	-2.321334	0.981588
C	1.939074	-1.934439	-1.627381
H	2.448051	-2.819799	-2.055015
H	2.708853	-1.326210	-1.107991
H	1.561590	-1.325374	-2.475210
C	0.000000	0.000000	0.000000
C	-0.003081	0.844605	1.113020
C	-0.007772	2.235575	0.820578
H	-0.001743	0.456510	2.142881
C	-0.008427	2.483726	-0.563588
S	-0.003691	0.970607	-1.464748
C	-0.011355	3.300181	1.882380
H	-0.009922	2.852233	2.894974
H	-0.905944	3.953225	1.808137
H	0.878901	3.959133	1.808230
H	-0.011727	3.441752	-1.097114
H	-0.235206	-4.420219	1.367361
H	-1.389159	-4.419395	-0.007834
H	0.694221	-1.450628	0.827319
$end

$rem
JOBTYPE		SP
EXCHANGE	HF
CORRELATION	pRIMP2
BASIS		cc-pvtz
METHOD		rimp2
AUX_BASIS	rimp2-cc-pvtz
SOLVENT_METHOD	PCM
PURECART	11111
SYMMETRY	false
MEM_TOTAL	110000
SCF_CONVERGENCE = 6
THRESH=10
GUI = 2
$end

$solvent
dielectric 4.90
$end
--------------------------------------------------------------

             Standard Nuclear Orientation (Angstroms)
    I     Atom           X                Y                Z
 ----------------------------------------------------------------
    1      C      -0.5556700000    -3.8878000000     0.4648380000
    2      C       0.5057900000    -3.7014560000    -0.4257600000
    3      C       0.8310530000    -2.3451700000    -0.6978660000
    4      H       1.0464960000    -4.5452330000    -0.8799840000
    5      C       0.0000000000    -1.4501350000     0.0000000000
    6      S      -1.1703820000    -2.3213340000     0.9815880000
    7      C       1.9390740000    -1.9344390000    -1.6273810000
    8      H       2.4480510000    -2.8197990000    -2.0550150000
    9      H       2.7088530000    -1.3262100000    -1.1079910000
   10      H       1.5615900000    -1.3253740000    -2.4752100000
   11      C       0.0000000000     0.0000000000     0.0000000000
   12      C      -0.0030810000     0.8446050000     1.1130200000
   13      C      -0.0077720000     2.2355750000     0.8205780000
   14      H      -0.0017430000     0.4565100000     2.1428810000
   15      C      -0.0084270000     2.4837260000    -0.5635880000
   16      S      -0.0036910000     0.9706070000    -1.4647480000
   17      C      -0.0113550000     3.3001810000     1.8823800000
   18      H      -0.0099220000     2.8522330000     2.8949740000
   19      H      -0.9059440000     3.9532250000     1.8081370000
   20      H       0.8789010000     3.9591330000     1.8082300000
   21      H      -0.0117270000     3.4417520000    -1.0971140000
   22      H      -0.2352060000    -4.4202190000     1.3673610000
   23      H      -1.3891590000    -4.4193950000    -0.0078340000
   24      H       0.6942210000    -1.4506280000     0.8273190000
 ----------------------------------------------------------------

   10   -1180.7627989869      4.93e-07  Convergence criterion met
 Total energy in the final basis set =    -1180.7627989869
        RIMP2         total energy =     -1182.7676444907 a.u.

                    Orbital Energies (a.u.)
 --------------------------------------------------------------

 Alpha MOs
 -- Occupied --
-91.9822 -91.9436 -11.2858 -11.2636 -11.2598 -11.2579 -11.2509 -11.2424
-11.2371 -11.2317 -11.2287 -11.2208  -8.9820  -8.9482  -6.6630  -6.6624
 -6.6618  -6.6296  -6.6286  -6.6273  -1.1988  -1.1532  -1.0580  -1.0259
 -1.0074  -0.9576  -0.9136  -0.9013  -0.8144  -0.7669  -0.7272  -0.7005
 -0.6616  -0.6429  -0.6107  -0.5872  -0.5802  -0.5732  -0.5677  -0.5520
 -0.5415  -0.5321  -0.5138  -0.5060  -0.4923  -0.4832  -0.4584  -0.4500
 -0.3564  -0.3429  -0.3194  -0.2718

          Ground-State Mulliken Net Atomic Charges

     Atom                 Charge (a.u.)
  ----------------------------------------
      1 C                    -0.077085
      2 C                    -0.325657
      3 C                    -0.029842
      4 H                     0.178269
      5 C                     0.097587
      6 S                    -0.176104
      7 C                    -0.278257
      8 H                     0.115423
      9 H                     0.107793
     10 H                     0.108320
     11 C                    -0.061483
     12 C                    -0.265181
     13 C                     0.025687
     14 H                     0.183284
     15 C                    -0.253292
     16 S                     0.007086
     17 C                    -0.271870
     18 H                     0.102674
     19 H                     0.108680
     20 H                     0.107784
     21 H                     0.196552
     22 H                     0.110707
     23 H                     0.113507
     24 H                     0.175419
  ----------------------------------------
  Sum of atomic charges =     0.000000

                    Cartesian Multipole Moments
 -----------------------------------------------------------------
    Charge (ESU x 10^10)
                -0.0000
    Dipole Moment (Debye)
         X       2.3927      Y       0.1766      Z       0.5470
       Tot       2.4608
    Quadrupole Moments (Debye-Ang)
        XX     -91.9664     XY      -3.8460     YY     -73.6729
        XZ      -0.2064     YZ       2.5557     ZZ     -85.6117

 Total job time:  55.08s(wall), 1862.73s(cpu)
        *  Thank you very much for using Q-Chem.  Have a nice day.  *
