 Q-Chem 5.4, Q-Chem, Inc., Pleasanton, CA (2021)
 Q-Chem 5.4.0 for Intel X86 EM64T Linux

User input:
--------------------------------------------------------------
$molecule
0 1
C	0.363176	-3.887800	-0.626855
C	-0.329669	-3.701456	0.573074
C	-0.542250	-2.345170	0.940016
H	-0.682412	-4.545233	1.184837
C	0.000000	-1.450135	0.000000
S	0.764076	-2.321334	-1.322686
C	-1.265537	-1.934439	2.192440
H	-1.597559	-2.819799	2.768365
H	-2.166534	-1.326210	1.967653
H	-0.620843	-1.325374	2.860032
C	0.000000	0.000000	0.000000
C	0.143630	0.832309	1.113020
C	0.380550	2.202961	0.820578
H	0.077556	0.449877	2.142881
C	0.422995	2.447456	-0.563588
S	0.164909	0.956502	-1.464748
C	0.561888	3.252016	1.882380
H	0.485513	2.810624	2.894974
H	-0.205711	4.050482	1.808137
H	1.553045	3.746365	1.808230
H	0.586105	3.391501	-1.097114
H	-0.246643	-4.420219	-1.365344
H	1.308062	-4.419395	-0.467758
H	-0.935314	-1.450628	-0.539988
$end

$rem
JOBTYPE		SP
EXCHANGE	HF
CORRELATION	pRIMP2
BASIS		cc-pvtz
METHOD		rimp2
AUX_BASIS	rimp2-cc-pvtz
SOLVENT_METHOD	PCM
PURECART	11111
SYMMETRY	false
MEM_TOTAL	110000
SCF_CONVERGENCE = 6
THRESH=10
GUI = 2
$end

$solvent
dielectric 4.90
$end
--------------------------------------------------------------

             Standard Nuclear Orientation (Angstroms)
    I     Atom           X                Y                Z
 ----------------------------------------------------------------
    1      C       0.3631760000    -3.8878000000    -0.6268550000
    2      C      -0.3296690000    -3.7014560000     0.5730740000
    3      C      -0.5422500000    -2.3451700000     0.9400160000
    4      H      -0.6824120000    -4.5452330000     1.1848370000
    5      C       0.0000000000    -1.4501350000     0.0000000000
    6      S       0.7640760000    -2.3213340000    -1.3226860000
    7      C      -1.2655370000    -1.9344390000     2.1924400000
    8      H      -1.5975590000    -2.8197990000     2.7683650000
    9      H      -2.1665340000    -1.3262100000     1.9676530000
   10      H      -0.6208430000    -1.3253740000     2.8600320000
   11      C       0.0000000000     0.0000000000     0.0000000000
   12      C       0.1436300000     0.8323090000     1.1130200000
   13      C       0.3805500000     2.2029610000     0.8205780000
   14      H       0.0775560000     0.4498770000     2.1428810000
   15      C       0.4229950000     2.4474560000    -0.5635880000
   16      S       0.1649090000     0.9565020000    -1.4647480000
   17      C       0.5618880000     3.2520160000     1.8823800000
   18      H       0.4855130000     2.8106240000     2.8949740000
   19      H      -0.2057110000     4.0504820000     1.8081370000
   20      H       1.5530450000     3.7463650000     1.8082300000
   21      H       0.5861050000     3.3915010000    -1.0971140000
   22      H      -0.2466430000    -4.4202190000    -1.3653440000
   23      H       1.3080620000    -4.4193950000    -0.4677580000
   24      H      -0.9353140000    -1.4506280000    -0.5399880000
 ----------------------------------------------------------------

   10   -1180.7565447360      5.07e-07  Convergence criterion met
 Total energy in the final basis set =    -1180.7565447360
        RIMP2         total energy =     -1182.7616711071 a.u.

                    Orbital Energies (a.u.)
 --------------------------------------------------------------

 Alpha MOs
 -- Occupied --
-91.9845 -91.9456 -11.2866 -11.2653 -11.2597 -11.2583 -11.2503 -11.2438
-11.2333 -11.2319 -11.2284 -11.2224  -8.9842  -8.9502  -6.6652  -6.6646
 -6.6640  -6.6315  -6.6305  -6.6292  -1.2002  -1.1530  -1.0587  -1.0305
 -1.0011  -0.9626  -0.9149  -0.9002  -0.8165  -0.7610  -0.7359  -0.7041
 -0.6548  -0.6426  -0.6107  -0.5927  -0.5825  -0.5684  -0.5654  -0.5524
 -0.5455  -0.5333  -0.5195  -0.5027  -0.4890  -0.4820  -0.4665  -0.4472
 -0.3581  -0.3429  -0.3241  -0.2671

          Ground-State Mulliken Net Atomic Charges

     Atom                 Charge (a.u.)
  ----------------------------------------
      1 C                    -0.074133
      2 C                    -0.323801
      3 C                    -0.030518
      4 H                     0.178864
      5 C                     0.117686
      6 S                    -0.175916
      7 C                    -0.290833
      8 H                     0.118257
      9 H                     0.111919
     10 H                     0.103606
     11 C                    -0.092380
     12 C                    -0.236180
     13 C                     0.018610
     14 H                     0.192324
     15 C                    -0.256014
     16 S                    -0.001420
     17 C                    -0.273788
     18 H                     0.100905
     19 H                     0.108258
     20 H                     0.108919
     21 H                     0.197955
     22 H                     0.110840
     23 H                     0.114654
     24 H                     0.172184
  ----------------------------------------
  Sum of atomic charges =     0.000000

                    Cartesian Multipole Moments
 -----------------------------------------------------------------
    Charge (ESU x 10^10)
                -0.0000
    Dipole Moment (Debye)
         X      -1.6818      Y      -0.0755      Z       3.0632
       Tot       3.4953
    Quadrupole Moments (Debye-Ang)
        XX     -91.7064     XY       4.7727     YY     -73.2227
        XZ       0.1573     YZ      -1.2366     ZZ     -85.6073

 Total job time:  54.18s(wall), 1914.42s(cpu)
        *  Thank you very much for using Q-Chem.  Have a nice day.  *
