 Q-Chem 5.4, Q-Chem, Inc., Pleasanton, CA (2021)
 Q-Chem 5.4.0 for Intel X86 EM64T Linux

User input:
--------------------------------------------------------------
$molecule
0 1
C	-0.464838	-3.887800	-0.555670
C	0.425760	-3.701456	0.505790
C	0.697866	-2.345170	0.831053
H	0.879984	-4.545233	1.046496
C	-0.000000	-1.450135	-0.000000
S	-0.981588	-2.321334	-1.170382
C	1.627381	-1.934439	1.939074
H	2.055015	-2.819799	2.448051
H	1.107991	-1.326210	2.708853
H	2.475210	-1.325374	1.561590
C	0.000000	0.000000	0.000000
C	0.070542	0.841660	1.113020
C	0.187101	2.227746	0.820578
H	0.038051	0.454925	2.142881
C	0.208076	2.475009	-0.563588
S	0.080917	0.967235	-1.464748
C	0.276318	3.288613	1.882380
H	0.238704	2.842244	2.894974
H	-0.557951	4.017140	1.808137
H	1.220618	3.867466	1.808230
H	0.288286	3.429678	-1.097114
H	-1.367361	-4.420219	-0.235206
H	0.007834	-4.419395	-1.389159
H	-0.827319	-1.450628	0.694221
$end

$rem
JOBTYPE		SP
EXCHANGE	HF
CORRELATION	pRIMP2
BASIS		cc-pvtz
METHOD		rimp2
AUX_BASIS	rimp2-cc-pvtz
SOLVENT_METHOD	PCM
PURECART	11111
SYMMETRY	false
MEM_TOTAL	110000
SCF_CONVERGENCE = 6
THRESH=10
GUI = 2
$end

$solvent
dielectric 4.90
$end
--------------------------------------------------------------

             Standard Nuclear Orientation (Angstroms)
    I     Atom           X                Y                Z
 ----------------------------------------------------------------
    1      C      -0.4648380000    -3.8878000000    -0.5556700000
    2      C       0.4257600000    -3.7014560000     0.5057900000
    3      C       0.6978660000    -2.3451700000     0.8310530000
    4      H       0.8799840000    -4.5452330000     1.0464960000
    5      C       0.0000000000    -1.4501350000     0.0000000000
    6      S      -0.9815880000    -2.3213340000    -1.1703820000
    7      C       1.6273810000    -1.9344390000     1.9390740000
    8      H       2.0550150000    -2.8197990000     2.4480510000
    9      H       1.1079910000    -1.3262100000     2.7088530000
   10      H       2.4752100000    -1.3253740000     1.5615900000
   11      C       0.0000000000     0.0000000000     0.0000000000
   12      C       0.0705420000     0.8416600000     1.1130200000
   13      C       0.1871010000     2.2277460000     0.8205780000
   14      H       0.0380510000     0.4549250000     2.1428810000
   15      C       0.2080760000     2.4750090000    -0.5635880000
   16      S       0.0809170000     0.9672350000    -1.4647480000
   17      C       0.2763180000     3.2886130000     1.8823800000
   18      H       0.2387040000     2.8422440000     2.8949740000
   19      H      -0.5579510000     4.0171400000     1.8081370000
   20      H       1.2206180000     3.8674660000     1.8082300000
   21      H       0.2882860000     3.4296780000    -1.0971140000
   22      H      -1.3673610000    -4.4202190000    -0.2352060000
   23      H       0.0078340000    -4.4193950000    -1.3891590000
   24      H      -0.8273190000    -1.4506280000     0.6942210000
 ----------------------------------------------------------------

   10   -1180.7605551217      4.97e-07  Convergence criterion met
 Total energy in the final basis set =    -1180.7605551217
        RIMP2         total energy =     -1182.7661000253 a.u.

                    Orbital Energies (a.u.)
 --------------------------------------------------------------

 Alpha MOs
 -- Occupied --
-91.9830 -91.9449 -11.2870 -11.2648 -11.2594 -11.2582 -11.2509 -11.2433
-11.2349 -11.2325 -11.2290 -11.2216  -8.9826  -8.9494  -6.6635  -6.6630
 -6.6624  -6.6308  -6.6298  -6.6285  -1.1997  -1.1530  -1.0583  -1.0289
 -1.0031  -0.9612  -0.9138  -0.9006  -0.8168  -0.7609  -0.7287  -0.7065
 -0.6593  -0.6454  -0.6111  -0.5914  -0.5854  -0.5701  -0.5599  -0.5539
 -0.5419  -0.5323  -0.5185  -0.5044  -0.4864  -0.4838  -0.4644  -0.4470
 -0.3576  -0.3426  -0.3218  -0.2701

          Ground-State Mulliken Net Atomic Charges

     Atom                 Charge (a.u.)
  ----------------------------------------
      1 C                    -0.074626
      2 C                    -0.320947
      3 C                    -0.054980
      4 H                     0.178602
      5 C                     0.121337
      6 S                    -0.177870
      7 C                    -0.279094
      8 H                     0.118264
      9 H                     0.097222
     10 H                     0.114632
     11 C                    -0.068782
     12 C                    -0.264617
     13 C                     0.024758
     14 H                     0.189449
     15 C                    -0.260309
     16 S                     0.010141
     17 C                    -0.273227
     18 H                     0.101252
     19 H                     0.108836
     20 H                     0.108450
     21 H                     0.196462
     22 H                     0.112432
     23 H                     0.111701
     24 H                     0.180916
  ----------------------------------------
  Sum of atomic charges =     0.000000

                    Cartesian Multipole Moments
 -----------------------------------------------------------------
    Charge (ESU x 10^10)
                -0.0000
    Dipole Moment (Debye)
         X       1.0478      Y      -0.0045      Z       3.8229
       Tot       3.9639
    Quadrupole Moments (Debye-Ang)
        XX     -91.3163     XY      -0.2546     YY     -73.4494
        XZ       0.2880     YZ      -2.4497     ZZ     -86.2381

 Total job time:  58.37s(wall), 2110.64s(cpu)
        *  Thank you very much for using Q-Chem.  Have a nice day.  *
