 Q-Chem 5.4, Q-Chem, Inc., Pleasanton, CA (2021)
 Q-Chem 5.4.0 for Intel X86 EM64T Linux

User input:
--------------------------------------------------------------
$molecule
0 1
C	0.713644	-3.887800	-0.124726
C	-0.650907	-3.701456	0.115824
C	-1.068646	-2.345170	0.188844
H	-1.346284	-4.545233	0.238841
C	-0.000000	-1.450135	-0.000000
S	1.504375	-2.321334	-0.264890
C	-2.492978	-1.934439	0.439816
H	-3.147582	-2.819799	0.555669
H	-2.899931	-1.326210	-0.394879
H	-2.589982	-1.325374	1.362799
C	0.000000	0.000000	0.000000
C	0.540541	0.648986	1.113020
C	1.431046	1.717546	0.820578
H	0.292104	0.350827	2.142881
C	1.590053	1.908061	-0.563588
S	0.621066	0.745901	-1.464748
C	2.112618	2.535384	1.882380
H	1.825779	2.191315	2.894974
H	1.847090	3.610676	1.808137
H	3.218159	2.467925	1.808230
H	2.203332	2.644073	-1.097114
H	0.887375	-4.420219	-1.066566
H	1.199130	-4.419395	0.701364
H	-0.187554	-1.450628	-1.063590
$end

$rem
JOBTYPE		SP
EXCHANGE	HF
CORRELATION	pRIMP2
BASIS		cc-pvtz
METHOD		rimp2
AUX_BASIS	rimp2-cc-pvtz
SOLVENT_METHOD	PCM
PURECART	11111
SYMMETRY	false
MEM_TOTAL	110000
SCF_CONVERGENCE = 6
THRESH=10
GUI = 2
$end

$solvent
dielectric 4.90
$end
--------------------------------------------------------------

             Standard Nuclear Orientation (Angstroms)
    I     Atom           X                Y                Z
 ----------------------------------------------------------------
    1      C       0.7136440000    -3.8878000000    -0.1247260000
    2      C      -0.6509070000    -3.7014560000     0.1158240000
    3      C      -1.0686460000    -2.3451700000     0.1888440000
    4      H      -1.3462840000    -4.5452330000     0.2388410000
    5      C       0.0000000000    -1.4501350000     0.0000000000
    6      S       1.5043750000    -2.3213340000    -0.2648900000
    7      C      -2.4929780000    -1.9344390000     0.4398160000
    8      H      -3.1475820000    -2.8197990000     0.5556690000
    9      H      -2.8999310000    -1.3262100000    -0.3948790000
   10      H      -2.5899820000    -1.3253740000     1.3627990000
   11      C       0.0000000000     0.0000000000     0.0000000000
   12      C       0.5405410000     0.6489860000     1.1130200000
   13      C       1.4310460000     1.7175460000     0.8205780000
   14      H       0.2921040000     0.3508270000     2.1428810000
   15      C       1.5900530000     1.9080610000    -0.5635880000
   16      S       0.6210660000     0.7459010000    -1.4647480000
   17      C       2.1126180000     2.5353840000     1.8823800000
   18      H       1.8257790000     2.1913150000     2.8949740000
   19      H       1.8470900000     3.6106760000     1.8081370000
   20      H       3.2181590000     2.4679250000     1.8082300000
   21      H       2.2033320000     2.6440730000    -1.0971140000
   22      H       0.8873750000    -4.4202190000    -1.0665660000
   23      H       1.1991300000    -4.4193950000     0.7013640000
   24      H      -0.1875540000    -1.4506280000    -1.0635900000
 ----------------------------------------------------------------

   10   -1180.7309017817      6.17e-07  Convergence criterion met
 Total energy in the final basis set =    -1180.7309017817
        RIMP2         total energy =     -1182.7420755323 a.u.

                    Orbital Energies (a.u.)
 --------------------------------------------------------------

 Alpha MOs
 -- Occupied --
-91.9839 -91.9378 -11.2763 -11.2647 -11.2584 -11.2517 -11.2514 -11.2467
-11.2388 -11.2300 -11.2292 -11.2145  -8.9840  -8.9426  -6.6649  -6.6643
 -6.6638  -6.6239  -6.6230  -6.6217  -1.1981  -1.1539  -1.0566  -1.0255
 -1.0004  -0.9635  -0.9107  -0.9007  -0.8099  -0.7590  -0.7441  -0.7029
 -0.6510  -0.6299  -0.6126  -0.5865  -0.5785  -0.5733  -0.5661  -0.5517
 -0.5412  -0.5306  -0.5069  -0.5064  -0.4905  -0.4720  -0.4634  -0.4473
 -0.3581  -0.3349  -0.3136  -0.2783

          Ground-State Mulliken Net Atomic Charges

     Atom                 Charge (a.u.)
  ----------------------------------------
      1 C                    -0.073779
      2 C                    -0.329187
      3 C                    -0.044328
      4 H                     0.174761
      5 C                     0.058219
      6 S                    -0.177732
      7 C                    -0.271193
      8 H                     0.112532
      9 H                     0.103238
     10 H                     0.103727
     11 C                    -0.110153
     12 C                    -0.179158
     13 C                     0.016514
     14 H                     0.182920
     15 C                    -0.210921
     16 S                     0.014248
     17 C                    -0.269076
     18 H                     0.102786
     19 H                     0.107398
     20 H                     0.107473
     21 H                     0.200658
     22 H                     0.107306
     23 H                     0.110393
     24 H                     0.163354
  ----------------------------------------
  Sum of atomic charges =     0.000000

                    Cartesian Multipole Moments
 -----------------------------------------------------------------
    Charge (ESU x 10^10)
                -0.0000
    Dipole Moment (Debye)
         X      -0.8740      Y       1.0257      Z       1.2834
       Tot       1.8609
    Quadrupole Moments (Debye-Ang)
        XX     -87.1524     XY       9.6894     YY     -79.0467
        XZ       0.2734     YZ       1.4233     ZZ     -85.4686

 Total job time:  57.59s(wall), 1969.45s(cpu)
        *  Thank you very much for using Q-Chem.  Have a nice day.  *
