 Q-Chem 5.4, Q-Chem, Inc., Pleasanton, CA (2021)
 Q-Chem 5.4.0 for Intel X86 EM64T Linux

User input:
--------------------------------------------------------------
$molecule
0 1
C	-0.466510	-3.887800	0.554267
C	0.424173	-3.701456	-0.507121
C	0.697244	-2.345170	-0.831575
H	0.877789	-4.545233	-1.048337
C	0.000000	-1.450135	0.000000
S	-0.982150	-2.321334	1.169911
C	1.627024	-1.934439	-1.939374
H	2.054010	-2.819799	-2.448894
H	2.475299	-1.326210	-1.561545
H	1.108051	-1.325374	-2.708773
C	0.000000	0.000000	0.000000
C	-0.003081	0.844605	1.113020
C	-0.007772	2.235575	0.820578
H	-0.001743	0.456510	2.142881
C	-0.008427	2.483726	-0.563588
S	-0.003691	0.970607	-1.464748
C	-0.011355	3.300181	1.882380
H	-0.009922	2.852233	2.894974
H	-0.905944	3.953225	1.808137
H	0.878901	3.959133	1.808230
H	-0.011727	3.441752	-1.097114
H	0.005807	-4.420219	1.387431
H	-1.369415	-4.419395	0.233510
H	0.827337	-1.450628	0.694200
$end

$rem
JOBTYPE		SP
EXCHANGE	HF
CORRELATION	pRIMP2
BASIS		cc-pvtz
METHOD		rimp2
AUX_BASIS	rimp2-cc-pvtz
SOLVENT_METHOD	PCM
PURECART	11111
SYMMETRY	false
MEM_TOTAL	110000
SCF_CONVERGENCE = 6
THRESH=10
GUI = 2
$end

$solvent
dielectric 4.90
$end
--------------------------------------------------------------

             Standard Nuclear Orientation (Angstroms)
    I     Atom           X                Y                Z
 ----------------------------------------------------------------
    1      C      -0.4665100000    -3.8878000000     0.5542670000
    2      C       0.4241730000    -3.7014560000    -0.5071210000
    3      C       0.6972440000    -2.3451700000    -0.8315750000
    4      H       0.8777890000    -4.5452330000    -1.0483370000
    5      C       0.0000000000    -1.4501350000     0.0000000000
    6      S      -0.9821500000    -2.3213340000     1.1699110000
    7      C       1.6270240000    -1.9344390000    -1.9393740000
    8      H       2.0540100000    -2.8197990000    -2.4488940000
    9      H       2.4752990000    -1.3262100000    -1.5615450000
   10      H       1.1080510000    -1.3253740000    -2.7087730000
   11      C       0.0000000000     0.0000000000     0.0000000000
   12      C      -0.0030810000     0.8446050000     1.1130200000
   13      C      -0.0077720000     2.2355750000     0.8205780000
   14      H      -0.0017430000     0.4565100000     2.1428810000
   15      C      -0.0084270000     2.4837260000    -0.5635880000
   16      S      -0.0036910000     0.9706070000    -1.4647480000
   17      C      -0.0113550000     3.3001810000     1.8823800000
   18      H      -0.0099220000     2.8522330000     2.8949740000
   19      H      -0.9059440000     3.9532250000     1.8081370000
   20      H       0.8789010000     3.9591330000     1.8082300000
   21      H      -0.0117270000     3.4417520000    -1.0971140000
   22      H       0.0058070000    -4.4202190000     1.3874310000
   23      H      -1.3694150000    -4.4193950000     0.2335100000
   24      H       0.8273370000    -1.4506280000     0.6942000000
 ----------------------------------------------------------------

   10   -1180.7615644283      4.92e-07  Convergence criterion met
 Total energy in the final basis set =    -1180.7615644283
        RIMP2         total energy =     -1182.7667230074 a.u.

                    Orbital Energies (a.u.)
 --------------------------------------------------------------

 Alpha MOs
 -- Occupied --
-91.9825 -91.9448 -11.2876 -11.2643 -11.2591 -11.2575 -11.2508 -11.2431
-11.2345 -11.2322 -11.2284 -11.2216  -8.9823  -8.9493  -6.6632  -6.6627
 -6.6621  -6.6307  -6.6296  -6.6283  -1.1997  -1.1529  -1.0585  -1.0265
 -1.0075  -0.9570  -0.9144  -0.9014  -0.8145  -0.7684  -0.7242  -0.7009
 -0.6619  -0.6442  -0.6109  -0.5872  -0.5808  -0.5736  -0.5679  -0.5529
 -0.5417  -0.5326  -0.5141  -0.5068  -0.4917  -0.4837  -0.4580  -0.4497
 -0.3571  -0.3428  -0.3216  -0.2691

          Ground-State Mulliken Net Atomic Charges

     Atom                 Charge (a.u.)
  ----------------------------------------
      1 C                    -0.076023
      2 C                    -0.324731
      3 C                    -0.032419
      4 H                     0.178674
      5 C                     0.101923
      6 S                    -0.175983
      7 C                    -0.286981
      8 H                     0.116286
      9 H                     0.110793
     10 H                     0.109591
     11 C                    -0.045731
     12 C                    -0.281035
     13 C                     0.029494
     14 H                     0.182204
     15 C                    -0.261282
     16 S                     0.008000
     17 C                    -0.272347
     18 H                     0.102750
     19 H                     0.108667
     20 H                     0.107777
     21 H                     0.196227
     22 H                     0.110664
     23 H                     0.113874
     24 H                     0.179608
  ----------------------------------------
  Sum of atomic charges =     0.000000

                    Cartesian Multipole Moments
 -----------------------------------------------------------------
    Charge (ESU x 10^10)
                -0.0000
    Dipole Moment (Debye)
         X       2.2192      Y      -0.0316      Z       0.1259
       Tot       2.2230
    Quadrupole Moments (Debye-Ang)
        XX     -91.9520     XY      -3.5507     YY     -73.5635
        XZ      -0.1399     YZ       3.1511     ZZ     -85.5273

 Total job time:  99.09s(wall), 1823.08s(cpu)
        *  Thank you very much for using Q-Chem.  Have a nice day.  *
