 Q-Chem 5.4, Q-Chem, Inc., Pleasanton, CA (2021)
 Q-Chem 5.4.0 for Intel X86 EM64T Linux

User input:
--------------------------------------------------------------
$molecule
0 1
C	0.724460	-3.887800	0.001092
C	-0.661131	-3.701456	0.001036
C	-1.085203	-2.345170	0.000406
H	-1.367305	-4.545233	0.001433
C	0.000000	-1.450135	0.000000
S	1.527517	-2.321334	0.000367
C	-2.531478	-1.934439	0.000233
H	-3.196254	-2.819799	0.000656
H	-2.787305	-1.326210	-0.892447
H	-2.787282	-1.325374	0.892350
C	0.000000	0.000000	0.000000
C	0.419634	0.732990	1.113020
C	1.111057	1.939951	0.820578
H	0.226746	0.396221	2.142881
C	1.234565	2.155183	-0.563588
S	0.482106	0.842416	-1.464748
C	1.640257	2.863718	1.882380
H	1.417524	2.475067	2.894974
H	1.192042	3.876565	1.808137
H	2.740717	2.989259	1.808230
H	1.710720	2.986508	-1.097114
H	1.059101	-4.420219	-0.896272
H	1.059122	-4.419395	0.898936
H	-0.000014	-1.450628	-1.080000
$end

$rem
JOBTYPE		SP
EXCHANGE	HF
CORRELATION	pRIMP2
BASIS		cc-pvtz
METHOD		rimp2
AUX_BASIS	rimp2-cc-pvtz
SOLVENT_METHOD	PCM
PURECART	11111
SYMMETRY	false
MEM_TOTAL	110000
SCF_CONVERGENCE = 6
THRESH=10
GUI = 2
$end

$solvent
dielectric 4.90
$end
--------------------------------------------------------------

             Standard Nuclear Orientation (Angstroms)
    I     Atom           X                Y                Z
 ----------------------------------------------------------------
    1      C       0.7244600000    -3.8878000000     0.0010920000
    2      C      -0.6611310000    -3.7014560000     0.0010360000
    3      C      -1.0852030000    -2.3451700000     0.0004060000
    4      H      -1.3673050000    -4.5452330000     0.0014330000
    5      C       0.0000000000    -1.4501350000     0.0000000000
    6      S       1.5275170000    -2.3213340000     0.0003670000
    7      C      -2.5314780000    -1.9344390000     0.0002330000
    8      H      -3.1962540000    -2.8197990000     0.0006560000
    9      H      -2.7873050000    -1.3262100000    -0.8924470000
   10      H      -2.7872820000    -1.3253740000     0.8923500000
   11      C       0.0000000000     0.0000000000     0.0000000000
   12      C       0.4196340000     0.7329900000     1.1130200000
   13      C       1.1110570000     1.9399510000     0.8205780000
   14      H       0.2267460000     0.3962210000     2.1428810000
   15      C       1.2345650000     2.1551830000    -0.5635880000
   16      S       0.4821060000     0.8424160000    -1.4647480000
   17      C       1.6402570000     2.8637180000     1.8823800000
   18      H       1.4175240000     2.4750670000     2.8949740000
   19      H       1.1920420000     3.8765650000     1.8081370000
   20      H       2.7407170000     2.9892590000     1.8082300000
   21      H       1.7107200000     2.9865080000    -1.0971140000
   22      H       1.0591010000    -4.4202190000    -0.8962720000
   23      H       1.0591220000    -4.4193950000     0.8989360000
   24      H      -0.0000140000    -1.4506280000    -1.0800000000
 ----------------------------------------------------------------

   10   -1180.7447753384      5.48e-07  Convergence criterion met
 Total energy in the final basis set =    -1180.7447753384
        RIMP2         total energy =     -1182.7525202672 a.u.

                    Orbital Energies (a.u.)
 --------------------------------------------------------------

 Alpha MOs
 -- Occupied --
-91.9850 -91.9401 -11.2713 -11.2712 -11.2596 -11.2532 -11.2512 -11.2428
-11.2398 -11.2306 -11.2290 -11.2159  -8.9849  -8.9448  -6.6658  -6.6652
 -6.6646  -6.6261  -6.6251  -6.6238  -1.1974  -1.1538  -1.0569  -1.0255
 -1.0016  -0.9626  -0.9119  -0.9005  -0.8108  -0.7612  -0.7412  -0.7029
 -0.6521  -0.6316  -0.6118  -0.5868  -0.5778  -0.5731  -0.5671  -0.5523
 -0.5414  -0.5302  -0.5085  -0.5065  -0.4901  -0.4774  -0.4636  -0.4480
 -0.3573  -0.3378  -0.3126  -0.2806

          Ground-State Mulliken Net Atomic Charges

     Atom                 Charge (a.u.)
  ----------------------------------------
      1 C                    -0.072171
      2 C                    -0.328004
      3 C                    -0.040797
      4 H                     0.175355
      5 C                     0.073699
      6 S                    -0.174584
      7 C                    -0.270681
      8 H                     0.112536
      9 H                     0.102554
     10 H                     0.105139
     11 C                    -0.088939
     12 C                    -0.223357
     13 C                     0.033841
     14 H                     0.182074
     15 C                    -0.231486
     16 S                     0.013039
     17 C                    -0.269826
     18 H                     0.103020
     19 H                     0.107423
     20 H                     0.107859
     21 H                     0.199994
     22 H                     0.108298
     23 H                     0.110360
     24 H                     0.164656
  ----------------------------------------
  Sum of atomic charges =     0.000000

                    Cartesian Multipole Moments
 -----------------------------------------------------------------
    Charge (ESU x 10^10)
                -0.0000
    Dipole Moment (Debye)
         X      -1.2840      Y       0.9164      Z       0.8318
       Tot       1.7834
    Quadrupole Moments (Debye-Ang)
        XX     -88.9836     XY       8.5670     YY     -76.8704
        XZ       0.2176     YZ       2.2382     ZZ     -85.7263

 Total job time:  56.23s(wall), 2014.10s(cpu)
        *  Thank you very much for using Q-Chem.  Have a nice day.  *
