 Q-Chem 5.4, Q-Chem, Inc., Pleasanton, CA (2021)
 Q-Chem 5.4.0 for Intel X86 EM64T Linux

User input:
--------------------------------------------------------------
$molecule
0 1
C	-0.124726	-3.887800	-0.713644
C	0.115824	-3.701456	0.650907
C	0.188844	-2.345170	1.068646
H	0.238841	-4.545233	1.346284
C	-0.000000	-1.450135	-0.000000
S	-0.264890	-2.321334	-1.504375
C	0.439816	-1.934439	2.492978
H	0.555669	-2.819799	3.147582
H	-0.394879	-1.326210	2.899931
H	1.362799	-1.325374	2.589982
C	0.000000	0.000000	0.000000
C	0.540541	0.648986	1.113020
C	1.431046	1.717546	0.820578
H	0.292104	0.350827	2.142881
C	1.590053	1.908061	-0.563588
S	0.621066	0.745901	-1.464748
C	2.112618	2.535384	1.882380
H	1.825779	2.191315	2.894974
H	1.847090	3.610676	1.808137
H	3.218159	2.467925	1.808230
H	2.203332	2.644073	-1.097114
H	-1.066566	-4.420219	-0.887375
H	0.701364	-4.419395	-1.199130
H	-1.063590	-1.450628	0.187554
$end

$rem
JOBTYPE		SP
EXCHANGE	HF
CORRELATION	pRIMP2
BASIS		cc-pvtz
METHOD		rimp2
AUX_BASIS	rimp2-cc-pvtz
SOLVENT_METHOD	PCM
PURECART	11111
SYMMETRY	false
MEM_TOTAL	110000
SCF_CONVERGENCE = 6
THRESH=10
GUI = 2
$end

$solvent
dielectric 4.90
$end
--------------------------------------------------------------

             Standard Nuclear Orientation (Angstroms)
    I     Atom           X                Y                Z
 ----------------------------------------------------------------
    1      C      -0.1247260000    -3.8878000000    -0.7136440000
    2      C       0.1158240000    -3.7014560000     0.6509070000
    3      C       0.1888440000    -2.3451700000     1.0686460000
    4      H       0.2388410000    -4.5452330000     1.3462840000
    5      C       0.0000000000    -1.4501350000     0.0000000000
    6      S      -0.2648900000    -2.3213340000    -1.5043750000
    7      C       0.4398160000    -1.9344390000     2.4929780000
    8      H       0.5556690000    -2.8197990000     3.1475820000
    9      H      -0.3948790000    -1.3262100000     2.8999310000
   10      H       1.3627990000    -1.3253740000     2.5899820000
   11      C       0.0000000000     0.0000000000     0.0000000000
   12      C       0.5405410000     0.6489860000     1.1130200000
   13      C       1.4310460000     1.7175460000     0.8205780000
   14      H       0.2921040000     0.3508270000     2.1428810000
   15      C       1.5900530000     1.9080610000    -0.5635880000
   16      S       0.6210660000     0.7459010000    -1.4647480000
   17      C       2.1126180000     2.5353840000     1.8823800000
   18      H       1.8257790000     2.1913150000     2.8949740000
   19      H       1.8470900000     3.6106760000     1.8081370000
   20      H       3.2181590000     2.4679250000     1.8082300000
   21      H       2.2033320000     2.6440730000    -1.0971140000
   22      H      -1.0665660000    -4.4202190000    -0.8873750000
   23      H       0.7013640000    -4.4193950000    -1.1991300000
   24      H      -1.0635900000    -1.4506280000     0.1875540000
 ----------------------------------------------------------------

   10   -1180.7135453399      8.20e-07  Convergence criterion met
 Total energy in the final basis set =    -1180.7135453399
        RIMP2         total energy =     -1182.7318260707 a.u.

                    Orbital Energies (a.u.)
 --------------------------------------------------------------

 Alpha MOs
 -- Occupied --
-91.9798 -91.9430 -11.2734 -11.2665 -11.2640 -11.2542 -11.2504 -11.2419
-11.2390 -11.2331 -11.2292 -11.2181  -8.9800  -8.9476  -6.6609  -6.6602
 -6.6597  -6.6290  -6.6280  -6.6267  -1.2007  -1.1528  -1.0576  -1.0317
 -0.9994  -0.9631  -0.9152  -0.9006  -0.8139  -0.7601  -0.7293  -0.7111
 -0.6516  -0.6455  -0.6107  -0.5949  -0.5892  -0.5692  -0.5601  -0.5487
 -0.5440  -0.5348  -0.5247  -0.5036  -0.4810  -0.4713  -0.4621  -0.4411
 -0.3598  -0.3409  -0.3231  -0.2589

          Ground-State Mulliken Net Atomic Charges

     Atom                 Charge (a.u.)
  ----------------------------------------
      1 C                    -0.074765
      2 C                    -0.329094
      3 C                    -0.046877
      4 H                     0.178316
      5 C                     0.094383
      6 S                    -0.185773
      7 C                    -0.294687
      8 H                     0.121237
      9 H                     0.100281
     10 H                     0.111951
     11 C                    -0.059705
     12 C                    -0.272776
     13 C                     0.041856
     14 H                     0.197395
     15 C                    -0.246596
     16 S                     0.018828
     17 C                    -0.271611
     18 H                     0.100823
     19 H                     0.109913
     20 H                     0.107425
     21 H                     0.197126
     22 H                     0.110357
     23 H                     0.112043
     24 H                     0.179950
  ----------------------------------------
  Sum of atomic charges =     0.000000

                    Cartesian Multipole Moments
 -----------------------------------------------------------------
    Charge (ESU x 10^10)
                -0.0000
    Dipole Moment (Debye)
         X       0.8887      Y       0.1473      Z       4.0971
       Tot       4.1950
    Quadrupole Moments (Debye-Ang)
        XX     -87.2162     XY       6.0297     YY     -78.3891
        XZ       1.0345     YZ      -2.8486     ZZ     -85.6042

 Total job time:  56.27s(wall), 1939.44s(cpu)
        *  Thank you very much for using Q-Chem.  Have a nice day.  *
