 Q-Chem 5.4, Q-Chem, Inc., Pleasanton, CA (2021)
 Q-Chem 5.4.0 for Intel X86 EM64T Linux

User input:
--------------------------------------------------------------
$molecule
0 1
C	0.363176	-3.887800	-0.626855
C	-0.329669	-3.701456	0.573074
C	-0.542250	-2.345170	0.940016
H	-0.682412	-4.545233	1.184837
C	0.000000	-1.450135	0.000000
S	0.764076	-2.321334	-1.322686
C	-1.265537	-1.934439	2.192440
H	-1.597559	-2.819799	2.768365
H	-2.166534	-1.326210	1.967653
H	-0.620843	-1.325374	2.860032
C	0.000000	0.000000	0.000000
C	0.285976	0.794723	1.113020
C	0.757308	2.103412	0.820578
H	0.154498	0.429575	2.142881
C	0.841565	2.336821	-0.563588
S	0.328498	0.913334	-1.464748
C	1.118059	3.105040	1.882380
H	0.966197	2.683616	2.894974
H	0.500773	4.024668	1.808137
H	2.180000	3.419766	1.808230
H	1.166129	3.238200	-1.097114
H	-0.246643	-4.420219	-1.365344
H	1.308062	-4.419395	-0.467758
H	-0.935314	-1.450628	-0.539988
$end

$rem
JOBTYPE		SP
EXCHANGE	HF
CORRELATION	pRIMP2
BASIS		cc-pvtz
METHOD		rimp2
AUX_BASIS	rimp2-cc-pvtz
SOLVENT_METHOD	PCM
PURECART	11111
SYMMETRY	false
MEM_TOTAL	110000
SCF_CONVERGENCE = 6
THRESH=10
GUI = 2
$end

$solvent
dielectric 4.90
$end
--------------------------------------------------------------

             Standard Nuclear Orientation (Angstroms)
    I     Atom           X                Y                Z
 ----------------------------------------------------------------
    1      C       0.3631760000    -3.8878000000    -0.6268550000
    2      C      -0.3296690000    -3.7014560000     0.5730740000
    3      C      -0.5422500000    -2.3451700000     0.9400160000
    4      H      -0.6824120000    -4.5452330000     1.1848370000
    5      C       0.0000000000    -1.4501350000     0.0000000000
    6      S       0.7640760000    -2.3213340000    -1.3226860000
    7      C      -1.2655370000    -1.9344390000     2.1924400000
    8      H      -1.5975590000    -2.8197990000     2.7683650000
    9      H      -2.1665340000    -1.3262100000     1.9676530000
   10      H      -0.6208430000    -1.3253740000     2.8600320000
   11      C       0.0000000000     0.0000000000     0.0000000000
   12      C       0.2859760000     0.7947230000     1.1130200000
   13      C       0.7573080000     2.1034120000     0.8205780000
   14      H       0.1544980000     0.4295750000     2.1428810000
   15      C       0.8415650000     2.3368210000    -0.5635880000
   16      S       0.3284980000     0.9133340000    -1.4647480000
   17      C       1.1180590000     3.1050400000     1.8823800000
   18      H       0.9661970000     2.6836160000     2.8949740000
   19      H       0.5007730000     4.0246680000     1.8081370000
   20      H       2.1800000000     3.4197660000     1.8082300000
   21      H       1.1661290000     3.2382000000    -1.0971140000
   22      H      -0.2466430000    -4.4202190000    -1.3653440000
   23      H       1.3080620000    -4.4193950000    -0.4677580000
   24      H      -0.9353140000    -1.4506280000    -0.5399880000
 ----------------------------------------------------------------

   10   -1180.7489129584      5.12e-07  Convergence criterion met
 Total energy in the final basis set =    -1180.7489129584
        RIMP2         total energy =     -1182.7561066323 a.u.

                    Orbital Energies (a.u.)
 --------------------------------------------------------------

 Alpha MOs
 -- Occupied --
-91.9844 -91.9450 -11.2836 -11.2646 -11.2605 -11.2577 -11.2505 -11.2428
-11.2339 -11.2332 -11.2285 -11.2212  -8.9841  -8.9496  -6.6651  -6.6646
 -6.6639  -6.6309  -6.6299  -6.6286  -1.1998  -1.1532  -1.0581  -1.0303
 -1.0007  -0.9631  -0.9143  -0.9004  -0.8161  -0.7601  -0.7364  -0.7043
 -0.6541  -0.6414  -0.6106  -0.5924  -0.5830  -0.5682  -0.5658  -0.5521
 -0.5450  -0.5331  -0.5186  -0.5035  -0.4885  -0.4794  -0.4672  -0.4460
 -0.3576  -0.3428  -0.3239  -0.2657

          Ground-State Mulliken Net Atomic Charges

     Atom                 Charge (a.u.)
  ----------------------------------------
      1 C                    -0.076291
      2 C                    -0.323763
      3 C                    -0.036846
      4 H                     0.178102
      5 C                     0.103981
      6 S                    -0.173413
      7 C                    -0.291268
      8 H                     0.118187
      9 H                     0.111248
     10 H                     0.103421
     11 C                    -0.084601
     12 C                    -0.232559
     13 C                     0.019282
     14 H                     0.192274
     15 C                    -0.246738
     16 S                    -0.001627
     17 C                    -0.272987
     18 H                     0.100811
     19 H                     0.108261
     20 H                     0.108463
     21 H                     0.198429
     22 H                     0.110585
     23 H                     0.113980
     24 H                     0.173071
  ----------------------------------------
  Sum of atomic charges =     0.000000

                    Cartesian Multipole Moments
 -----------------------------------------------------------------
    Charge (ESU x 10^10)
                -0.0000
    Dipole Moment (Debye)
         X      -1.3637      Y       0.0774      Z       3.0645
       Tot       3.3551
    Quadrupole Moments (Debye-Ang)
        XX     -90.7995     XY       6.3832     YY     -74.3722
        XZ       0.3346     YZ      -1.3330     ZZ     -85.5321

 Total job time:  56.22s(wall), 1925.96s(cpu)
        *  Thank you very much for using Q-Chem.  Have a nice day.  *
