 Q-Chem 5.4, Q-Chem, Inc., Pleasanton, CA (2021)
 Q-Chem 5.4.0 for Intel X86 EM64T Linux

User input:
--------------------------------------------------------------
$molecule
0 1
C	0.337756	-3.873100	0.724460
C	0.321571	-3.687462	-0.661131
C	0.203990	-2.336281	-1.085203
H	0.394716	-4.528062	-1.367305
C	0.126388	-1.444617	0.000000
S	0.201952	-2.312532	1.527517
C	0.168365	-1.927099	-2.531478
H	0.245108	-2.809126	-3.196254
H	1.004638	-1.243381	-2.787305
H	-0.773440	-1.398104	-2.787282
C	0.000000	0.000000	0.000000
C	0.143630	0.832309	1.113020
C	0.380550	2.202961	0.820578
H	0.077556	0.449877	2.142881
C	0.422995	2.447456	-0.563588
S	0.164909	0.956502	-1.464748
C	0.561888	3.252016	1.882380
H	0.485513	2.810624	2.894974
H	-0.205711	4.050482	1.808137
H	1.553045	3.746365	1.808230
H	0.586105	3.391501	-1.097114
H	1.278108	-4.325283	1.059101
H	-0.510339	-4.480925	1.059122
H	1.202321	-1.350980	-0.000014
$end

$rem
JOBTYPE		SP
EXCHANGE	HF
CORRELATION	pRIMP2
BASIS		cc-pvtz
METHOD		rimp2
AUX_BASIS	rimp2-cc-pvtz
SOLVENT_METHOD	PCM
PURECART	11111
SYMMETRY	false
MEM_TOTAL	110000
SCF_CONVERGENCE = 6
THRESH=10
GUI = 2
$end

$solvent
dielectric 4.90
$end
--------------------------------------------------------------

             Standard Nuclear Orientation (Angstroms)
    I     Atom           X                Y                Z
 ----------------------------------------------------------------
    1      C       0.3377560000    -3.8731000000     0.7244600000
    2      C       0.3215710000    -3.6874620000    -0.6611310000
    3      C       0.2039900000    -2.3362810000    -1.0852030000
    4      H       0.3947160000    -4.5280620000    -1.3673050000
    5      C       0.1263880000    -1.4446170000     0.0000000000
    6      S       0.2019520000    -2.3125320000     1.5275170000
    7      C       0.1683650000    -1.9270990000    -2.5314780000
    8      H       0.2451080000    -2.8091260000    -3.1962540000
    9      H       1.0046380000    -1.2433810000    -2.7873050000
   10      H      -0.7734400000    -1.3981040000    -2.7872820000
   11      C       0.0000000000     0.0000000000     0.0000000000
   12      C       0.1436300000     0.8323090000     1.1130200000
   13      C       0.3805500000     2.2029610000     0.8205780000
   14      H       0.0775560000     0.4498770000     2.1428810000
   15      C       0.4229950000     2.4474560000    -0.5635880000
   16      S       0.1649090000     0.9565020000    -1.4647480000
   17      C       0.5618880000     3.2520160000     1.8823800000
   18      H       0.4855130000     2.8106240000     2.8949740000
   19      H      -0.2057110000     4.0504820000     1.8081370000
   20      H       1.5530450000     3.7463650000     1.8082300000
   21      H       0.5861050000     3.3915010000    -1.0971140000
   22      H       1.2781080000    -4.3252830000     1.0591010000
   23      H      -0.5103390000    -4.4809250000     1.0591220000
   24      H       1.2023210000    -1.3509800000    -0.0000140000
 ----------------------------------------------------------------

   10   -1180.7570344208      4.93e-07  Convergence criterion met
 Total energy in the final basis set =    -1180.7570344208
        RIMP2         total energy =     -1182.7631107595 a.u.

                    Orbital Energies (a.u.)
 --------------------------------------------------------------

 Alpha MOs
 -- Occupied --
-91.9814 -91.9473 -11.2907 -11.2652 -11.2634 -11.2537 -11.2501 -11.2448
-11.2325 -11.2295 -11.2276 -11.2231  -8.9815  -8.9518  -6.6624  -6.6618
 -6.6611  -6.6332  -6.6322  -6.6309  -1.2026  -1.1524  -1.0602  -1.0283
 -1.0068  -0.9560  -0.9165  -0.9020  -0.8139  -0.7719  -0.7168  -0.7041
 -0.6608  -0.6486  -0.6116  -0.5911  -0.5820  -0.5717  -0.5685  -0.5538
 -0.5421  -0.5337  -0.5163  -0.5096  -0.4905  -0.4842  -0.4576  -0.4455
 -0.3593  -0.3416  -0.3273  -0.2651

          Ground-State Mulliken Net Atomic Charges

     Atom                 Charge (a.u.)
  ----------------------------------------
      1 C                    -0.073788
      2 C                    -0.314535
      3 C                    -0.054692
      4 H                     0.179741
      5 C                     0.122507
      6 S                    -0.186970
      7 C                    -0.312288
      8 H                     0.121776
      9 H                     0.110542
     10 H                     0.116823
     11 C                     0.007730
     12 C                    -0.332390
     13 C                     0.053446
     14 H                     0.175504
     15 C                    -0.286891
     16 S                     0.009333
     17 C                    -0.270828
     18 H                     0.102761
     19 H                     0.108392
     20 H                     0.108505
     21 H                     0.196706
     22 H                     0.111824
     23 H                     0.113114
     24 H                     0.193678
  ----------------------------------------
  Sum of atomic charges =     0.000000

                    Cartesian Multipole Moments
 -----------------------------------------------------------------
    Charge (ESU x 10^10)
                -0.0000
    Dipole Moment (Debye)
         X       1.2633      Y      -0.4121      Z      -1.0806
       Tot       1.7127
    Quadrupole Moments (Debye-Ang)
        XX     -91.1515     XY      -0.5953     YY     -73.7349
        XZ       0.1910     YZ       4.8763     ZZ     -85.4995

 Total job time:  60.01s(wall), 1963.95s(cpu)
        *  Thank you very much for using Q-Chem.  Have a nice day.  *
