 Q-Chem 5.4, Q-Chem, Inc., Pleasanton, CA (2021)
 Q-Chem 5.4.0 for Intel X86 EM64T Linux

User input:
--------------------------------------------------------------
$molecule
0 1
C	0.713264	-3.887800	0.126876
C	-0.651267	-3.701456	-0.113784
C	-1.068787	-2.345170	-0.188043
H	-1.346782	-4.545233	-0.236019
C	0.000000	-1.450135	0.000000
S	1.504247	-2.321334	0.265612
C	-2.493059	-1.934439	-0.439357
H	-3.147809	-2.819799	-0.554378
H	-2.589987	-1.326210	-1.362899
H	-2.899892	-1.325374	0.394786
C	0.000000	0.000000	0.000000
C	-0.003081	0.844605	1.113020
C	-0.007772	2.235575	0.820578
H	-0.001743	0.456510	2.142881
C	-0.008427	2.483726	-0.563588
S	-0.003691	0.970607	-1.464748
C	-0.011355	3.300181	1.882380
H	-0.009922	2.852233	2.894974
H	-0.905944	3.953225	1.808137
H	0.878901	3.959133	1.808230
H	-0.011727	3.441752	-1.097114
H	1.198647	-4.420219	-0.698744
H	0.886933	-4.419395	1.069193
H	0.187526	-1.450628	-1.063595
$end

$rem
JOBTYPE		SP
EXCHANGE	HF
CORRELATION	pRIMP2
BASIS		cc-pvtz
METHOD		rimp2
AUX_BASIS	rimp2-cc-pvtz
SOLVENT_METHOD	PCM
PURECART	11111
SYMMETRY	false
MEM_TOTAL	110000
SCF_CONVERGENCE = 6
THRESH=10
GUI = 2
$end

$solvent
dielectric 4.90
$end
--------------------------------------------------------------

             Standard Nuclear Orientation (Angstroms)
    I     Atom           X                Y                Z
 ----------------------------------------------------------------
    1      C       0.7132640000    -3.8878000000     0.1268760000
    2      C      -0.6512670000    -3.7014560000    -0.1137840000
    3      C      -1.0687870000    -2.3451700000    -0.1880430000
    4      H      -1.3467820000    -4.5452330000    -0.2360190000
    5      C       0.0000000000    -1.4501350000     0.0000000000
    6      S       1.5042470000    -2.3213340000     0.2656120000
    7      C      -2.4930590000    -1.9344390000    -0.4393570000
    8      H      -3.1478090000    -2.8197990000    -0.5543780000
    9      H      -2.5899870000    -1.3262100000    -1.3628990000
   10      H      -2.8998920000    -1.3253740000     0.3947860000
   11      C       0.0000000000     0.0000000000     0.0000000000
   12      C      -0.0030810000     0.8446050000     1.1130200000
   13      C      -0.0077720000     2.2355750000     0.8205780000
   14      H      -0.0017430000     0.4565100000     2.1428810000
   15      C      -0.0084270000     2.4837260000    -0.5635880000
   16      S      -0.0036910000     0.9706070000    -1.4647480000
   17      C      -0.0113550000     3.3001810000     1.8823800000
   18      H      -0.0099220000     2.8522330000     2.8949740000
   19      H      -0.9059440000     3.9532250000     1.8081370000
   20      H       0.8789010000     3.9591330000     1.8082300000
   21      H      -0.0117270000     3.4417520000    -1.0971140000
   22      H       1.1986470000    -4.4202190000    -0.6987440000
   23      H       0.8869330000    -4.4193950000     1.0691930000
   24      H       0.1875260000    -1.4506280000    -1.0635950000
 ----------------------------------------------------------------

   10   -1180.7613559550      4.98e-07  Convergence criterion met
 Total energy in the final basis set =    -1180.7613559550
        RIMP2         total energy =     -1182.7650831812 a.u.

                    Orbital Energies (a.u.)
 --------------------------------------------------------------

 Alpha MOs
 -- Occupied --
-91.9871 -91.9421 -11.2794 -11.2655 -11.2623 -11.2558 -11.2511 -11.2411
-11.2377 -11.2310 -11.2288 -11.2187  -8.9867  -8.9466  -6.6675  -6.6671
 -6.6664  -6.6280  -6.6270  -6.6257  -1.1971  -1.1538  -1.0575  -1.0253
 -1.0035  -0.9622  -0.9132  -0.9005  -0.8122  -0.7637  -0.7381  -0.7039
 -0.6537  -0.6340  -0.6112  -0.5879  -0.5762  -0.5728  -0.5692  -0.5531
 -0.5419  -0.5294  -0.5127  -0.5047  -0.4918  -0.4831  -0.4633  -0.4486
 -0.3560  -0.3414  -0.3133  -0.2817

          Ground-State Mulliken Net Atomic Charges

     Atom                 Charge (a.u.)
  ----------------------------------------
      1 C                    -0.076856
      2 C                    -0.330879
      3 C                    -0.027885
      4 H                     0.177017
      5 C                     0.112329
      6 S                    -0.176441
      7 C                    -0.265836
      8 H                     0.112838
      9 H                     0.101028
     10 H                     0.106801
     11 C                    -0.120507
     12 C                    -0.217849
     13 C                     0.018707
     14 H                     0.185063
     15 C                    -0.244749
     16 S                     0.016493
     17 C                    -0.272141
     18 H                     0.103202
     19 H                     0.107591
     20 H                     0.108333
     21 H                     0.199217
     22 H                     0.110796
     23 H                     0.112395
     24 H                     0.161333
  ----------------------------------------
  Sum of atomic charges =     0.000000

                    Cartesian Multipole Moments
 -----------------------------------------------------------------
    Charge (ESU x 10^10)
                -0.0000
    Dipole Moment (Debye)
         X      -2.2587      Y       0.7390      Z       0.3270
       Tot       2.3989
    Quadrupole Moments (Debye-Ang)
        XX     -91.6517     XY       3.3651     YY     -73.6978
        XZ      -0.2513     YZ       3.0965     ZZ     -86.0163

 Total job time:  56.76s(wall), 1818.97s(cpu)
        *  Thank you very much for using Q-Chem.  Have a nice day.  *
