 Q-Chem 5.4, Q-Chem, Inc., Pleasanton, CA (2021)
 Q-Chem 5.4.0 for Intel X86 EM64T Linux

User input:
--------------------------------------------------------------
$molecule
0 1
C	0.126876	-3.887800	-0.713264
C	-0.113784	-3.701456	0.651267
C	-0.188043	-2.345170	1.068787
H	-0.236019	-4.545233	1.346782
C	0.000000	-1.450135	0.000000
S	0.265612	-2.321334	-1.504247
C	-0.439357	-1.934439	2.493059
H	-0.554378	-2.819799	3.147809
H	-1.362899	-1.326210	2.589987
H	0.394786	-1.325374	2.899892
C	0.000000	0.000000	0.000000
C	0.285976	0.794723	1.113020
C	0.757308	2.103412	0.820578
H	0.154498	0.429575	2.142881
C	0.841565	2.336821	-0.563588
S	0.328498	0.913334	-1.464748
C	1.118059	3.105040	1.882380
H	0.966197	2.683616	2.894974
H	0.500773	4.024668	1.808137
H	2.180000	3.419766	1.808230
H	1.166129	3.238200	-1.097114
H	-0.698744	-4.420219	-1.198647
H	1.069193	-4.419395	-0.886933
H	-1.063595	-1.450628	-0.187526
$end

$rem
JOBTYPE		SP
EXCHANGE	HF
CORRELATION	pRIMP2
BASIS		cc-pvtz
METHOD		rimp2
AUX_BASIS	rimp2-cc-pvtz
SOLVENT_METHOD	PCM
PURECART	11111
SYMMETRY	false
MEM_TOTAL	110000
SCF_CONVERGENCE = 6
THRESH=10
GUI = 2
$end

$solvent
dielectric 4.90
$end
--------------------------------------------------------------

             Standard Nuclear Orientation (Angstroms)
    I     Atom           X                Y                Z
 ----------------------------------------------------------------
    1      C       0.1268760000    -3.8878000000    -0.7132640000
    2      C      -0.1137840000    -3.7014560000     0.6512670000
    3      C      -0.1880430000    -2.3451700000     1.0687870000
    4      H      -0.2360190000    -4.5452330000     1.3467820000
    5      C       0.0000000000    -1.4501350000     0.0000000000
    6      S       0.2656120000    -2.3213340000    -1.5042470000
    7      C      -0.4393570000    -1.9344390000     2.4930590000
    8      H      -0.5543780000    -2.8197990000     3.1478090000
    9      H      -1.3628990000    -1.3262100000     2.5899870000
   10      H       0.3947860000    -1.3253740000     2.8998920000
   11      C       0.0000000000     0.0000000000     0.0000000000
   12      C       0.2859760000     0.7947230000     1.1130200000
   13      C       0.7573080000     2.1034120000     0.8205780000
   14      H       0.1544980000     0.4295750000     2.1428810000
   15      C       0.8415650000     2.3368210000    -0.5635880000
   16      S       0.3284980000     0.9133340000    -1.4647480000
   17      C       1.1180590000     3.1050400000     1.8823800000
   18      H       0.9661970000     2.6836160000     2.8949740000
   19      H       0.5007730000     4.0246680000     1.8081370000
   20      H       2.1800000000     3.4197660000     1.8082300000
   21      H       1.1661290000     3.2382000000    -1.0971140000
   22      H      -0.6987440000    -4.4202190000    -1.1986470000
   23      H       1.0691930000    -4.4193950000    -0.8869330000
   24      H      -1.0635950000    -1.4506280000    -0.1875260000
 ----------------------------------------------------------------

   10   -1180.7454719106      5.17e-07  Convergence criterion met
 Total energy in the final basis set =    -1180.7454719106
        RIMP2         total energy =     -1182.7540434741 a.u.

                    Orbital Energies (a.u.)
 --------------------------------------------------------------

 Alpha MOs
 -- Occupied --
-91.9838 -91.9463 -11.2862 -11.2659 -11.2596 -11.2571 -11.2500 -11.2442
-11.2340 -11.2304 -11.2283 -11.2223  -8.9835  -8.9509  -6.6645  -6.6639
 -6.6633  -6.6323  -6.6312  -6.6300  -1.2011  -1.1526  -1.0588  -1.0318
 -1.0007  -0.9623  -0.9162  -0.8999  -0.8170  -0.7616  -0.7308  -0.7067
 -0.6547  -0.6462  -0.6104  -0.5946  -0.5854  -0.5684  -0.5636  -0.5492
 -0.5465  -0.5345  -0.5232  -0.5012  -0.4862  -0.4791  -0.4687  -0.4437
 -0.3606  -0.3430  -0.3244  -0.2627

          Ground-State Mulliken Net Atomic Charges

     Atom                 Charge (a.u.)
  ----------------------------------------
      1 C                    -0.074461
      2 C                    -0.317429
      3 C                    -0.043594
      4 H                     0.179395
      5 C                     0.114588
      6 S                    -0.177983
      7 C                    -0.302181
      8 H                     0.122713
      9 H                     0.110753
     10 H                     0.104329
     11 C                    -0.052854
     12 C                    -0.270149
     13 C                     0.037056
     14 H                     0.190824
     15 C                    -0.270228
     16 S                     0.004199
     17 C                    -0.271635
     18 H                     0.100339
     19 H                     0.108437
     20 H                     0.108308
     21 H                     0.197928
     22 H                     0.111171
     23 H                     0.113954
     24 H                     0.176520
  ----------------------------------------
  Sum of atomic charges =     0.000000

                    Cartesian Multipole Moments
 -----------------------------------------------------------------
    Charge (ESU x 10^10)
                -0.0000
    Dipole Moment (Debye)
         X      -0.7686      Y      -0.2636      Z       3.6159
       Tot       3.7061
    Quadrupole Moments (Debye-Ang)
        XX     -90.7332     XY       5.2871     YY     -74.2233
        XZ       0.5567     YZ      -2.1615     ZZ     -85.5301

 Total job time:  55.31s(wall), 1954.19s(cpu)
        *  Thank you very much for using Q-Chem.  Have a nice day.  *
