 Q-Chem 5.4, Q-Chem, Inc., Pleasanton, CA (2021)
 Q-Chem 5.4.0 for Intel X86 EM64T Linux

User input:
--------------------------------------------------------------
$molecule
0 1
C	-0.626855	-3.887800	-0.363176
C	0.573074	-3.701456	0.329669
C	0.940016	-2.345170	0.542250
H	1.184837	-4.545233	0.682412
C	0.000000	-1.450135	0.000000
S	-1.322686	-2.321334	-0.764076
C	2.192440	-1.934439	1.265537
H	2.768365	-2.819799	1.597559
H	1.967653	-1.326210	2.166534
H	2.860032	-1.325374	0.620843
C	0.000000	0.000000	0.000000
C	0.143630	0.832309	1.113020
C	0.380550	2.202961	0.820578
H	0.077556	0.449877	2.142881
C	0.422995	2.447456	-0.563588
S	0.164909	0.956502	-1.464748
C	0.561888	3.252016	1.882380
H	0.485513	2.810624	2.894974
H	-0.205711	4.050482	1.808137
H	1.553045	3.746365	1.808230
H	0.586105	3.391501	-1.097114
H	-1.365344	-4.420219	0.246643
H	-0.467758	-4.419395	-1.308062
H	-0.539988	-1.450628	0.935314
$end

$rem
JOBTYPE		SP
EXCHANGE	HF
CORRELATION	pRIMP2
BASIS		cc-pvtz
METHOD		rimp2
AUX_BASIS	rimp2-cc-pvtz
SOLVENT_METHOD	PCM
PURECART	11111
SYMMETRY	false
MEM_TOTAL	110000
SCF_CONVERGENCE = 6
THRESH=10
GUI = 2
$end

$solvent
dielectric 4.90
$end
--------------------------------------------------------------

             Standard Nuclear Orientation (Angstroms)
    I     Atom           X                Y                Z
 ----------------------------------------------------------------
    1      C      -0.6268550000    -3.8878000000    -0.3631760000
    2      C       0.5730740000    -3.7014560000     0.3296690000
    3      C       0.9400160000    -2.3451700000     0.5422500000
    4      H       1.1848370000    -4.5452330000     0.6824120000
    5      C       0.0000000000    -1.4501350000     0.0000000000
    6      S      -1.3226860000    -2.3213340000    -0.7640760000
    7      C       2.1924400000    -1.9344390000     1.2655370000
    8      H       2.7683650000    -2.8197990000     1.5975590000
    9      H       1.9676530000    -1.3262100000     2.1665340000
   10      H       2.8600320000    -1.3253740000     0.6208430000
   11      C       0.0000000000     0.0000000000     0.0000000000
   12      C       0.1436300000     0.8323090000     1.1130200000
   13      C       0.3805500000     2.2029610000     0.8205780000
   14      H       0.0775560000     0.4498770000     2.1428810000
   15      C       0.4229950000     2.4474560000    -0.5635880000
   16      S       0.1649090000     0.9565020000    -1.4647480000
   17      C       0.5618880000     3.2520160000     1.8823800000
   18      H       0.4855130000     2.8106240000     2.8949740000
   19      H      -0.2057110000     4.0504820000     1.8081370000
   20      H       1.5530450000     3.7463650000     1.8082300000
   21      H       0.5861050000     3.3915010000    -1.0971140000
   22      H      -1.3653440000    -4.4202190000     0.2466430000
   23      H      -0.4677580000    -4.4193950000    -1.3080620000
   24      H      -0.5399880000    -1.4506280000     0.9353140000
 ----------------------------------------------------------------

   10   -1180.7626591139      5.05e-07  Convergence criterion met
 Total energy in the final basis set =    -1180.7626591139
        RIMP2         total energy =     -1182.7679085577 a.u.

                    Orbital Energies (a.u.)
 --------------------------------------------------------------

 Alpha MOs
 -- Occupied --
-91.9812 -91.9426 -11.2828 -11.2635 -11.2634 -11.2573 -11.2512 -11.2418
-11.2411 -11.2315 -11.2296 -11.2200  -8.9811  -8.9472  -6.6620  -6.6614
 -6.6609  -6.6286  -6.6276  -6.6263  -1.1981  -1.1536  -1.0575  -1.0267
 -1.0044  -0.9611  -0.9122  -0.9012  -0.8154  -0.7598  -0.7328  -0.7050
 -0.6595  -0.6425  -0.6110  -0.5902  -0.5826  -0.5710  -0.5625  -0.5526
 -0.5413  -0.5301  -0.5162  -0.5060  -0.4889  -0.4816  -0.4614  -0.4481
 -0.3559  -0.3417  -0.3175  -0.2770

          Ground-State Mulliken Net Atomic Charges

     Atom                 Charge (a.u.)
  ----------------------------------------
      1 C                    -0.075661
      2 C                    -0.326748
      3 C                    -0.030730
      4 H                     0.177684
      5 C                     0.087836
      6 S                    -0.176197
      7 C                    -0.268705
      8 H                     0.116045
      9 H                     0.098359
     10 H                     0.112002
     11 C                    -0.071588
     12 C                    -0.255036
     13 C                     0.020246
     14 H                     0.187465
     15 C                    -0.242988
     16 S                     0.006276
     17 C                    -0.271953
     18 H                     0.101745
     19 H                     0.108837
     20 H                     0.108252
     21 H                     0.197345
     22 H                     0.111577
     23 H                     0.111400
     24 H                     0.174536
  ----------------------------------------
  Sum of atomic charges =     0.000000

                    Cartesian Multipole Moments
 -----------------------------------------------------------------
    Charge (ESU x 10^10)
                -0.0000
    Dipole Moment (Debye)
         X       2.0119      Y       0.4161      Z       3.4289
       Tot       3.9972
    Quadrupole Moments (Debye-Ang)
        XX     -91.1474     XY      -0.6123     YY     -73.8946
        XZ       0.1332     YZ      -1.8540     ZZ     -86.3229

 Total job time:  56.95s(wall), 1932.96s(cpu)
        *  Thank you very much for using Q-Chem.  Have a nice day.  *
