 Q-Chem 5.4, Q-Chem, Inc., Pleasanton, CA (2021)
 Q-Chem 5.4.0 for Intel X86 EM64T Linux

User input:
--------------------------------------------------------------
$molecule
0 1
C	-0.246754	-3.887800	-0.681143
C	0.227093	-3.701456	0.620906
C	0.371543	-2.345170	1.019618
H	0.468992	-4.545233	1.284357
C	0.000000	-1.450135	0.000000
S	-0.522097	-2.321334	-1.435522
C	0.866035	-1.934439	2.378731
H	1.093799	-2.819799	3.003272
H	0.114688	-1.326210	2.924444
H	1.791841	-1.325374	2.313987
C	0.000000	0.000000	0.000000
C	0.645024	0.545262	1.113020
C	1.707554	1.442954	0.820578
H	0.348587	0.294774	2.142881
C	1.897227	1.602964	-0.563588
S	0.741155	0.626722	-1.464748
C	2.520787	2.130014	1.882380
H	2.178559	1.840981	2.894974
H	2.446016	3.235078	1.808137
H	3.597818	1.871604	1.808230
H	2.628997	2.221299	-1.097114
H	-1.204454	-4.420219	-0.688686
H	0.482482	-4.419395	-1.302703
H	-1.014863	-1.450628	0.369395
$end

$rem
JOBTYPE		SP
EXCHANGE	HF
CORRELATION	pRIMP2
BASIS		cc-pvtz
METHOD		rimp2
AUX_BASIS	rimp2-cc-pvtz
SOLVENT_METHOD	PCM
PURECART	11111
SYMMETRY	false
MEM_TOTAL	110000
SCF_CONVERGENCE = 6
THRESH=10
GUI = 2
$end

$solvent
dielectric 4.90
$end
--------------------------------------------------------------

             Standard Nuclear Orientation (Angstroms)
    I     Atom           X                Y                Z
 ----------------------------------------------------------------
    1      C      -0.2467540000    -3.8878000000    -0.6811430000
    2      C       0.2270930000    -3.7014560000     0.6209060000
    3      C       0.3715430000    -2.3451700000     1.0196180000
    4      H       0.4689920000    -4.5452330000     1.2843570000
    5      C       0.0000000000    -1.4501350000     0.0000000000
    6      S      -0.5220970000    -2.3213340000    -1.4355220000
    7      C       0.8660350000    -1.9344390000     2.3787310000
    8      H       1.0937990000    -2.8197990000     3.0032720000
    9      H       0.1146880000    -1.3262100000     2.9244440000
   10      H       1.7918410000    -1.3253740000     2.3139870000
   11      C       0.0000000000     0.0000000000     0.0000000000
   12      C       0.6450240000     0.5452620000     1.1130200000
   13      C       1.7075540000     1.4429540000     0.8205780000
   14      H       0.3485870000     0.2947740000     2.1428810000
   15      C       1.8972270000     1.6029640000    -0.5635880000
   16      S       0.7411550000     0.6267220000    -1.4647480000
   17      C       2.5207870000     2.1300140000     1.8823800000
   18      H       2.1785590000     1.8409810000     2.8949740000
   19      H       2.4460160000     3.2350780000     1.8081370000
   20      H       3.5978180000     1.8716040000     1.8082300000
   21      H       2.6289970000     2.2212990000    -1.0971140000
   22      H      -1.2044540000    -4.4202190000    -0.6886860000
   23      H       0.4824820000    -4.4193950000    -1.3027030000
   24      H      -1.0148630000    -1.4506280000     0.3693950000
 ----------------------------------------------------------------

   11   -1180.6926920443      4.79e-07  Convergence criterion met
 Total energy in the final basis set =    -1180.6926920443
        RIMP2         total energy =     -1182.7163006523 a.u.

                    Orbital Energies (a.u.)
 --------------------------------------------------------------

 Alpha MOs
 -- Occupied --
-91.9769 -91.9401 -11.2758 -11.2623 -11.2622 -11.2513 -11.2512 -11.2478
-11.2402 -11.2327 -11.2303 -11.2156  -8.9775  -8.9447  -6.6584  -6.6575
 -6.6572  -6.6261  -6.6251  -6.6239  -1.2015  -1.1532  -1.0574  -1.0318
 -0.9988  -0.9640  -0.9144  -0.9016  -0.8115  -0.7596  -0.7315  -0.7131
 -0.6495  -0.6441  -0.6123  -0.5959  -0.5915  -0.5698  -0.5589  -0.5497
 -0.5421  -0.5344  -0.5250  -0.5059  -0.4791  -0.4688  -0.4531  -0.4404
 -0.3576  -0.3390  -0.3230  -0.2588

          Ground-State Mulliken Net Atomic Charges

     Atom                 Charge (a.u.)
  ----------------------------------------
      1 C                    -0.072346
      2 C                    -0.338718
      3 C                    -0.051370
      4 H                     0.177186
      5 C                     0.089076
      6 S                    -0.191707
      7 C                    -0.286110
      8 H                     0.120780
      9 H                     0.095031
     10 H                     0.113892
     11 C                    -0.101525
     12 C                    -0.235447
     13 C                     0.022428
     14 H                     0.201819
     15 C                    -0.212539
     16 S                     0.021535
     17 C                    -0.275942
     18 H                     0.102154
     19 H                     0.113662
     20 H                     0.107385
     21 H                     0.198008
     22 H                     0.108663
     23 H                     0.110623
     24 H                     0.183461
  ----------------------------------------
  Sum of atomic charges =     0.000000

                    Cartesian Multipole Moments
 -----------------------------------------------------------------
    Charge (ESU x 10^10)
                -0.0000
    Dipole Moment (Debye)
         X       1.9802      Y       0.4275      Z       4.2883
       Tot       4.7427
    Quadrupole Moments (Debye-Ang)
        XX     -84.8371     XY       5.7126     YY     -80.8882
        XZ       1.0856     YZ      -3.0632     ZZ     -85.6455

 Total job time:  64.73s(wall), 2210.09s(cpu)
        *  Thank you very much for using Q-Chem.  Have a nice day.  *
