 Q-Chem 5.4, Q-Chem, Inc., Pleasanton, CA (2021)
 Q-Chem 5.4.0 for Intel X86 EM64T Linux

User input:
--------------------------------------------------------------
$molecule
0 1
C	0.466510	-3.887800	-0.554267
C	-0.424173	-3.701456	0.507121
C	-0.697244	-2.345170	0.831575
H	-0.877789	-4.545233	1.048337
C	0.000000	-1.450135	0.000000
S	0.982150	-2.321334	-1.169911
C	-1.627024	-1.934439	1.939374
H	-2.054010	-2.819799	2.448894
H	-2.475299	-1.326210	1.561545
H	-1.108051	-1.325374	2.708773
C	0.000000	0.000000	0.000000
C	0.143630	0.832309	1.113020
C	0.380550	2.202961	0.820578
H	0.077556	0.449877	2.142881
C	0.422995	2.447456	-0.563588
S	0.164909	0.956502	-1.464748
C	0.561888	3.252016	1.882380
H	0.485513	2.810624	2.894974
H	-0.205711	4.050482	1.808137
H	1.553045	3.746365	1.808230
H	0.586105	3.391501	-1.097114
H	-0.005807	-4.420219	-1.387431
H	1.369415	-4.419395	-0.233510
H	-0.827337	-1.450628	-0.694200
$end

$rem
JOBTYPE		SP
EXCHANGE	HF
CORRELATION	pRIMP2
BASIS		cc-pvtz
METHOD		rimp2
AUX_BASIS	rimp2-cc-pvtz
SOLVENT_METHOD	PCM
PURECART	11111
SYMMETRY	false
MEM_TOTAL	110000
SCF_CONVERGENCE = 6
THRESH=10
GUI = 2
$end

$solvent
dielectric 4.90
$end
--------------------------------------------------------------

             Standard Nuclear Orientation (Angstroms)
    I     Atom           X                Y                Z
 ----------------------------------------------------------------
    1      C       0.4665100000    -3.8878000000    -0.5542670000
    2      C      -0.4241730000    -3.7014560000     0.5071210000
    3      C      -0.6972440000    -2.3451700000     0.8315750000
    4      H      -0.8777890000    -4.5452330000     1.0483370000
    5      C       0.0000000000    -1.4501350000     0.0000000000
    6      S       0.9821500000    -2.3213340000    -1.1699110000
    7      C      -1.6270240000    -1.9344390000     1.9393740000
    8      H      -2.0540100000    -2.8197990000     2.4488940000
    9      H      -2.4752990000    -1.3262100000     1.5615450000
   10      H      -1.1080510000    -1.3253740000     2.7087730000
   11      C       0.0000000000     0.0000000000     0.0000000000
   12      C       0.1436300000     0.8323090000     1.1130200000
   13      C       0.3805500000     2.2029610000     0.8205780000
   14      H       0.0775560000     0.4498770000     2.1428810000
   15      C       0.4229950000     2.4474560000    -0.5635880000
   16      S       0.1649090000     0.9565020000    -1.4647480000
   17      C       0.5618880000     3.2520160000     1.8823800000
   18      H       0.4855130000     2.8106240000     2.8949740000
   19      H      -0.2057110000     4.0504820000     1.8081370000
   20      H       1.5530450000     3.7463650000     1.8082300000
   21      H       0.5861050000     3.3915010000    -1.0971140000
   22      H      -0.0058070000    -4.4202190000    -1.3874310000
   23      H       1.3694150000    -4.4193950000    -0.2335100000
   24      H      -0.8273370000    -1.4506280000    -0.6942000000
 ----------------------------------------------------------------

   10   -1180.7578749871      5.09e-07  Convergence criterion met
 Total energy in the final basis set =    -1180.7578749871
        RIMP2         total energy =     -1182.7625125523 a.u.

                    Orbital Energies (a.u.)
 --------------------------------------------------------------

 Alpha MOs
 -- Occupied --
-91.9848 -91.9445 -11.2846 -11.2646 -11.2605 -11.2584 -11.2505 -11.2430
-11.2340 -11.2328 -11.2286 -11.2214  -8.9845  -8.9491  -6.6654  -6.6649
 -6.6643  -6.6305  -6.6294  -6.6281  -1.1993  -1.1533  -1.0582  -1.0294
 -1.0012  -0.9629  -0.9139  -0.9004  -0.8157  -0.7602  -0.7386  -0.7033
 -0.6543  -0.6400  -0.6108  -0.5912  -0.5813  -0.5685  -0.5660  -0.5535
 -0.5447  -0.5324  -0.5171  -0.5040  -0.4900  -0.4819  -0.4651  -0.4485
 -0.3569  -0.3426  -0.3226  -0.2695

          Ground-State Mulliken Net Atomic Charges

     Atom                 Charge (a.u.)
  ----------------------------------------
      1 C                    -0.074732
      2 C                    -0.326016
      3 C                    -0.030741
      4 H                     0.178364
      5 C                     0.115028
      6 S                    -0.175461
      7 C                    -0.279864
      8 H                     0.116216
      9 H                     0.108432
     10 H                     0.103202
     11 C                    -0.104483
     12 C                    -0.226963
     13 C                     0.014276
     14 H                     0.192020
     15 C                    -0.246640
     16 S                     0.001251
     17 C                    -0.273986
     18 H                     0.101378
     19 H                     0.108068
     20 H                     0.108943
     21 H                     0.198102
     22 H                     0.110719
     23 H                     0.114434
     24 H                     0.168453
  ----------------------------------------
  Sum of atomic charges =     0.000000

                    Cartesian Multipole Moments
 -----------------------------------------------------------------
    Charge (ESU x 10^10)
                -0.0000
    Dipole Moment (Debye)
         X      -1.9027      Y       0.1518      Z       2.7410
       Tot       3.3401
    Quadrupole Moments (Debye-Ang)
        XX     -91.7251     XY       5.1832     YY     -73.4091
        XZ       0.0862     YZ      -0.7299     ZZ     -85.6254

 Total job time:  53.34s(wall), 1880.00s(cpu)
        *  Thank you very much for using Q-Chem.  Have a nice day.  *
