 Q-Chem 5.4, Q-Chem, Inc., Pleasanton, CA (2021)
 Q-Chem 5.4.0 for Intel X86 EM64T Linux

User input:
--------------------------------------------------------------
$molecule
0 1
C	0.627947	-3.887800	-0.361285
C	-0.572038	-3.701456	0.331462
C	-0.939610	-2.345170	0.542953
H	-1.183405	-4.545233	0.684893
C	0.000000	-1.450135	0.000000
S	1.323052	-2.321334	-0.763441
C	-2.192207	-1.934439	1.265941
H	-2.767709	-2.819799	1.598695
H	-2.860100	-1.326210	0.620770
H	-1.967682	-1.325374	2.166438
C	0.000000	0.000000	0.000000
C	0.354153	0.766774	1.113020
C	0.937751	2.029404	0.820578
H	0.191350	0.414475	2.142881
C	1.042030	2.254581	-0.563588
S	0.406851	0.881228	-1.464748
C	1.384426	2.995779	1.882380
H	1.196413	2.589194	2.894974
H	0.849641	3.965707	1.808137
H	2.469756	3.216753	1.808230
H	1.443919	3.124243	-1.097114
H	0.469073	-4.420219	-1.305744
H	1.366694	-4.419395	0.248940
H	-0.540012	-1.450628	-0.935300
$end

$rem
JOBTYPE		SP
EXCHANGE	HF
CORRELATION	pRIMP2
BASIS		cc-pvtz
METHOD		rimp2
AUX_BASIS	rimp2-cc-pvtz
SOLVENT_METHOD	PCM
PURECART	11111
SYMMETRY	false
MEM_TOTAL	110000
SCF_CONVERGENCE = 6
THRESH=10
GUI = 2
$end

$solvent
dielectric 4.90
$end
--------------------------------------------------------------

             Standard Nuclear Orientation (Angstroms)
    I     Atom           X                Y                Z
 ----------------------------------------------------------------
    1      C       0.6279470000    -3.8878000000    -0.3612850000
    2      C      -0.5720380000    -3.7014560000     0.3314620000
    3      C      -0.9396100000    -2.3451700000     0.5429530000
    4      H      -1.1834050000    -4.5452330000     0.6848930000
    5      C       0.0000000000    -1.4501350000     0.0000000000
    6      S       1.3230520000    -2.3213340000    -0.7634410000
    7      C      -2.1922070000    -1.9344390000     1.2659410000
    8      H      -2.7677090000    -2.8197990000     1.5986950000
    9      H      -2.8601000000    -1.3262100000     0.6207700000
   10      H      -1.9676820000    -1.3253740000     2.1664380000
   11      C       0.0000000000     0.0000000000     0.0000000000
   12      C       0.3541530000     0.7667740000     1.1130200000
   13      C       0.9377510000     2.0294040000     0.8205780000
   14      H       0.1913500000     0.4144750000     2.1428810000
   15      C       1.0420300000     2.2545810000    -0.5635880000
   16      S       0.4068510000     0.8812280000    -1.4647480000
   17      C       1.3844260000     2.9957790000     1.8823800000
   18      H       1.1964130000     2.5891940000     2.8949740000
   19      H       0.8496410000     3.9657070000     1.8081370000
   20      H       2.4697560000     3.2167530000     1.8082300000
   21      H       1.4439190000     3.1242430000    -1.0971140000
   22      H       0.4690730000    -4.4202190000    -1.3057440000
   23      H       1.3666940000    -4.4193950000     0.2489400000
   24      H      -0.5400120000    -1.4506280000    -0.9353000000
 ----------------------------------------------------------------

   10   -1180.7485753096      5.31e-07  Convergence criterion met
 Total energy in the final basis set =    -1180.7485753096
        RIMP2         total energy =     -1182.7554872002 a.u.

                    Orbital Energies (a.u.)
 --------------------------------------------------------------

 Alpha MOs
 -- Occupied --
-91.9853 -91.9412 -11.2754 -11.2681 -11.2619 -11.2543 -11.2509 -11.2405
-11.2398 -11.2315 -11.2289 -11.2179  -8.9850  -8.9458  -6.6659  -6.6654
 -6.6648  -6.6271  -6.6261  -6.6248  -1.1975  -1.1537  -1.0568  -1.0273
 -1.0007  -0.9634  -0.9118  -0.9008  -0.8132  -0.7578  -0.7430  -0.7028
 -0.6528  -0.6339  -0.6112  -0.5881  -0.5798  -0.5700  -0.5668  -0.5532
 -0.5426  -0.5305  -0.5114  -0.5059  -0.4914  -0.4781  -0.4638  -0.4488
 -0.3561  -0.3399  -0.3177  -0.2741

          Ground-State Mulliken Net Atomic Charges

     Atom                 Charge (a.u.)
  ----------------------------------------
      1 C                    -0.074917
      2 C                    -0.327585
      3 C                    -0.032012
      4 H                     0.176138
      5 C                     0.075196
      6 S                    -0.171728
      7 C                    -0.271723
      8 H                     0.113422
      9 H                     0.104458
     10 H                     0.103346
     11 C                    -0.107050
     12 C                    -0.203338
     13 C                     0.013417
     14 H                     0.188996
     15 C                    -0.225996
     16 S                     0.007804
     17 C                    -0.271759
     18 H                     0.102227
     19 H                     0.107478
     20 H                     0.108155
     21 H                     0.198880
     22 H                     0.108867
     23 H                     0.112372
     24 H                     0.165352
  ----------------------------------------
  Sum of atomic charges =     0.000000

                    Cartesian Multipole Moments
 -----------------------------------------------------------------
    Charge (ESU x 10^10)
                -0.0000
    Dipole Moment (Debye)
         X      -1.5984      Y       0.7260      Z       2.0232
       Tot       2.6787
    Quadrupole Moments (Debye-Ang)
        XX     -90.0555     XY       8.1428     YY     -75.7339
        XZ       0.1905     YZ       0.2780     ZZ     -85.5555

 Total job time:  61.30s(wall), 1859.67s(cpu)
        *  Thank you very much for using Q-Chem.  Have a nice day.  *
