 Q-Chem 5.4, Q-Chem, Inc., Pleasanton, CA (2021)
 Q-Chem 5.4.0 for Intel X86 EM64T Linux

User input:
--------------------------------------------------------------
$molecule
0 1
C	0.001092	-3.887800	-0.724460
C	0.001036	-3.701456	0.661131
C	0.000406	-2.345170	1.085203
H	0.001433	-4.545233	1.367305
C	0.000000	-1.450135	0.000000
S	0.000367	-2.321334	-1.527517
C	0.000233	-1.934439	2.531478
H	0.000656	-2.819799	3.196254
H	-0.892447	-1.326210	2.787305
H	0.892350	-1.325374	2.787282
C	0.000000	0.000000	0.000000
C	0.354153	0.766774	1.113020
C	0.937751	2.029404	0.820578
H	0.191350	0.414475	2.142881
C	1.042030	2.254581	-0.563588
S	0.406851	0.881228	-1.464748
C	1.384426	2.995779	1.882380
H	1.196413	2.589194	2.894974
H	0.849641	3.965707	1.808137
H	2.469756	3.216753	1.808230
H	1.443919	3.124243	-1.097114
H	-0.896272	-4.420219	-1.059101
H	0.898936	-4.419395	-1.059122
H	-1.080000	-1.450628	0.000014
$end

$rem
JOBTYPE		SP
EXCHANGE	HF
CORRELATION	pRIMP2
BASIS		cc-pvtz
METHOD		rimp2
AUX_BASIS	rimp2-cc-pvtz
SOLVENT_METHOD	PCM
PURECART	11111
SYMMETRY	false
MEM_TOTAL	110000
SCF_CONVERGENCE = 6
THRESH=10
GUI = 2
$end

$solvent
dielectric 4.90
$end
--------------------------------------------------------------

             Standard Nuclear Orientation (Angstroms)
    I     Atom           X                Y                Z
 ----------------------------------------------------------------
    1      C       0.0010920000    -3.8878000000    -0.7244600000
    2      C       0.0010360000    -3.7014560000     0.6611310000
    3      C       0.0004060000    -2.3451700000     1.0852030000
    4      H       0.0014330000    -4.5452330000     1.3673050000
    5      C       0.0000000000    -1.4501350000     0.0000000000
    6      S       0.0003670000    -2.3213340000    -1.5275170000
    7      C       0.0002330000    -1.9344390000     2.5314780000
    8      H       0.0006560000    -2.8197990000     3.1962540000
    9      H      -0.8924470000    -1.3262100000     2.7873050000
   10      H       0.8923500000    -1.3253740000     2.7872820000
   11      C       0.0000000000     0.0000000000     0.0000000000
   12      C       0.3541530000     0.7667740000     1.1130200000
   13      C       0.9377510000     2.0294040000     0.8205780000
   14      H       0.1913500000     0.4144750000     2.1428810000
   15      C       1.0420300000     2.2545810000    -0.5635880000
   16      S       0.4068510000     0.8812280000    -1.4647480000
   17      C       1.3844260000     2.9957790000     1.8823800000
   18      H       1.1964130000     2.5891940000     2.8949740000
   19      H       0.8496410000     3.9657070000     1.8081370000
   20      H       2.4697560000     3.2167530000     1.8082300000
   21      H       1.4439190000     3.1242430000    -1.0971140000
   22      H      -0.8962720000    -4.4202190000    -1.0591010000
   23      H       0.8989360000    -4.4193950000    -1.0591220000
   24      H      -1.0800000000    -1.4506280000     0.0000140000
 ----------------------------------------------------------------

   10   -1180.7387873413      5.43e-07  Convergence criterion met
 Total energy in the final basis set =    -1180.7387873413
        RIMP2         total energy =     -1182.7496191097 a.u.

                    Orbital Energies (a.u.)
 --------------------------------------------------------------

 Alpha MOs
 -- Occupied --
-91.9829 -91.9458 -11.2842 -11.2657 -11.2587 -11.2582 -11.2499 -11.2439
-11.2338 -11.2314 -11.2284 -11.2215  -8.9827  -8.9504  -6.6636  -6.6630
 -6.6624  -6.6317  -6.6307  -6.6294  -1.2010  -1.1525  -1.0585  -1.0319
 -1.0005  -0.9622  -0.9162  -0.8999  -0.8165  -0.7614  -0.7289  -0.7082
 -0.6543  -0.6469  -0.6103  -0.5947  -0.5868  -0.5686  -0.5618  -0.5485
 -0.5459  -0.5349  -0.5243  -0.5016  -0.4843  -0.4768  -0.4682  -0.4428
 -0.3609  -0.3427  -0.3239  -0.2614

          Ground-State Mulliken Net Atomic Charges

     Atom                 Charge (a.u.)
  ----------------------------------------
      1 C                    -0.074718
      2 C                    -0.318050
      3 C                    -0.049679
      4 H                     0.179513
      5 C                     0.112453
      6 S                    -0.180397
      7 C                    -0.300529
      8 H                     0.122696
      9 H                     0.105330
     10 H                     0.108234
     11 C                    -0.039946
     12 C                    -0.287434
     13 C                     0.047267
     14 H                     0.190746
     15 C                    -0.272699
     16 S                     0.010722
     17 C                    -0.270802
     18 H                     0.100475
     19 H                     0.108548
     20 H                     0.108054
     21 H                     0.197237
     22 H                     0.111319
     23 H                     0.113408
     24 H                     0.178251
  ----------------------------------------
  Sum of atomic charges =     0.000000

                    Cartesian Multipole Moments
 -----------------------------------------------------------------
    Charge (ESU x 10^10)
                -0.0000
    Dipole Moment (Debye)
         X      -0.2116      Y      -0.2213      Z       3.8451
       Tot       3.8572
    Quadrupole Moments (Debye-Ang)
        XX     -89.9930     XY       5.3262     YY     -75.1221
        XZ       0.7728     YZ      -2.4922     ZZ     -85.5806

 Total job time:  54.07s(wall), 1938.43s(cpu)
        *  Thank you very much for using Q-Chem.  Have a nice day.  *
