 Q-Chem 5.4, Q-Chem, Inc., Pleasanton, CA (2021)
 Q-Chem 5.4.0 for Intel X86 EM64T Linux

User input:
--------------------------------------------------------------
$molecule
0 1
C	-0.680396	-3.887800	-0.248806
C	0.621614	-3.701456	0.225147
C	1.019896	-2.345170	0.370780
H	1.285337	-4.545233	0.466300
C	0.000000	-1.450135	0.000000
S	-1.435271	-2.321334	-0.522786
C	2.378891	-1.934439	0.865597
H	3.003720	-2.819799	1.092567
H	2.313975	-1.326210	1.791940
H	2.924390	-1.325374	0.114772
C	0.000000	0.000000	0.000000
C	0.285976	0.794723	1.113020
C	0.757308	2.103412	0.820578
H	0.154498	0.429575	2.142881
C	0.841565	2.336821	-0.563588
S	0.328498	0.913334	-1.464748
C	1.118059	3.105040	1.882380
H	0.966197	2.683616	2.894974
H	0.500773	4.024668	1.808137
H	2.180000	3.419766	1.808230
H	1.166129	3.238200	-1.097114
H	-1.301772	-4.420219	0.479986
H	-0.687795	-4.419395	-1.206964
H	-0.369368	-1.450628	1.014873
$end

$rem
JOBTYPE		SP
EXCHANGE	HF
CORRELATION	pRIMP2
BASIS		cc-pvtz
METHOD		rimp2
AUX_BASIS	rimp2-cc-pvtz
SOLVENT_METHOD	PCM
PURECART	11111
SYMMETRY	false
MEM_TOTAL	110000
SCF_CONVERGENCE = 6
THRESH=10
GUI = 2
$end

$solvent
dielectric 4.90
$end
--------------------------------------------------------------

             Standard Nuclear Orientation (Angstroms)
    I     Atom           X                Y                Z
 ----------------------------------------------------------------
    1      C      -0.6803960000    -3.8878000000    -0.2488060000
    2      C       0.6216140000    -3.7014560000     0.2251470000
    3      C       1.0198960000    -2.3451700000     0.3707800000
    4      H       1.2853370000    -4.5452330000     0.4663000000
    5      C       0.0000000000    -1.4501350000     0.0000000000
    6      S      -1.4352710000    -2.3213340000    -0.5227860000
    7      C       2.3788910000    -1.9344390000     0.8655970000
    8      H       3.0037200000    -2.8197990000     1.0925670000
    9      H       2.3139750000    -1.3262100000     1.7919400000
   10      H       2.9243900000    -1.3253740000     0.1147720000
   11      C       0.0000000000     0.0000000000     0.0000000000
   12      C       0.2859760000     0.7947230000     1.1130200000
   13      C       0.7573080000     2.1034120000     0.8205780000
   14      H       0.1544980000     0.4295750000     2.1428810000
   15      C       0.8415650000     2.3368210000    -0.5635880000
   16      S       0.3284980000     0.9133340000    -1.4647480000
   17      C       1.1180590000     3.1050400000     1.8823800000
   18      H       0.9661970000     2.6836160000     2.8949740000
   19      H       0.5007730000     4.0246680000     1.8081370000
   20      H       2.1800000000     3.4197660000     1.8082300000
   21      H       1.1661290000     3.2382000000    -1.0971140000
   22      H      -1.3017720000    -4.4202190000     0.4799860000
   23      H      -0.6877950000    -4.4193950000    -1.2069640000
   24      H      -0.3693680000    -1.4506280000     1.0148730000
 ----------------------------------------------------------------

   10   -1180.7581327578      5.31e-07  Convergence criterion met
 Total energy in the final basis set =    -1180.7581327578
        RIMP2         total energy =     -1182.7648553643 a.u.

                    Orbital Energies (a.u.)
 --------------------------------------------------------------

 Alpha MOs
 -- Occupied --
-91.9804 -91.9403 -11.2789 -11.2676 -11.2626 -11.2560 -11.2516 -11.2451
-11.2407 -11.2310 -11.2301 -11.2194  -8.9804  -8.9450  -6.6613  -6.6607
 -6.6602  -6.6264  -6.6254  -6.6241  -1.1977  -1.1541  -1.0572  -1.0255
 -1.0051  -0.9613  -0.9115  -0.9016  -0.8140  -0.7596  -0.7353  -0.7046
 -0.6589  -0.6410  -0.6112  -0.5901  -0.5816  -0.5718  -0.5638  -0.5519
 -0.5411  -0.5289  -0.5171  -0.5060  -0.4900  -0.4776  -0.4604  -0.4476
 -0.3549  -0.3417  -0.3155  -0.2798

          Ground-State Mulliken Net Atomic Charges

     Atom                 Charge (a.u.)
  ----------------------------------------
      1 C                    -0.075171
      2 C                    -0.326736
      3 C                    -0.021800
      4 H                     0.177319
      5 C                     0.068905
      6 S                    -0.179765
      7 C                    -0.269026
      8 H                     0.115473
      9 H                     0.099327
     10 H                     0.112124
     11 C                    -0.059182
     12 C                    -0.264536
     13 C                     0.031295
     14 H                     0.186440
     15 C                    -0.236517
     16 S                     0.004224
     17 C                    -0.270635
     18 H                     0.102095
     19 H                     0.108789
     20 H                     0.108053
     21 H                     0.198182
     22 H                     0.110139
     23 H                     0.110659
     24 H                     0.170342
  ----------------------------------------
  Sum of atomic charges =     0.000000

                    Cartesian Multipole Moments
 -----------------------------------------------------------------
    Charge (ESU x 10^10)
                -0.0000
    Dipole Moment (Debye)
         X       2.7122      Y       0.6479      Z       3.1558
       Tot       4.2113
    Quadrupole Moments (Debye-Ang)
        XX     -90.3517     XY       0.4520     YY     -74.9259
        XZ       0.2069     YZ      -1.4750     ZZ     -86.2481

 Total job time:  56.20s(wall), 1927.61s(cpu)
        *  Thank you very much for using Q-Chem.  Have a nice day.  *
