 Q-Chem 5.4, Q-Chem, Inc., Pleasanton, CA (2021)
 Q-Chem 5.4.0 for Intel X86 EM64T Linux

User input:
--------------------------------------------------------------
$molecule
0 1
C	-0.246754	-3.887800	-0.681143
C	0.227093	-3.701456	0.620906
C	0.371543	-2.345170	1.019618
H	0.468992	-4.545233	1.284357
C	0.000000	-1.450135	0.000000
S	-0.522097	-2.321334	-1.435522
C	0.866035	-1.934439	2.378731
H	1.093799	-2.819799	3.003272
H	0.114688	-1.326210	2.924444
H	1.791841	-1.325374	2.313987
C	0.000000	0.000000	0.000000
C	0.285976	0.794723	1.113020
C	0.757308	2.103412	0.820578
H	0.154498	0.429575	2.142881
C	0.841565	2.336821	-0.563588
S	0.328498	0.913334	-1.464748
C	1.118059	3.105040	1.882380
H	0.966197	2.683616	2.894974
H	0.500773	4.024668	1.808137
H	2.180000	3.419766	1.808230
H	1.166129	3.238200	-1.097114
H	-1.204454	-4.420219	-0.688686
H	0.482482	-4.419395	-1.302703
H	-1.014863	-1.450628	0.369395
$end

$rem
JOBTYPE		SP
EXCHANGE	HF
CORRELATION	pRIMP2
BASIS		cc-pvtz
METHOD		rimp2
AUX_BASIS	rimp2-cc-pvtz
SOLVENT_METHOD	PCM
PURECART	11111
SYMMETRY	false
MEM_TOTAL	110000
SCF_CONVERGENCE = 6
THRESH=10
GUI = 2
$end

$solvent
dielectric 4.90
$end
--------------------------------------------------------------

             Standard Nuclear Orientation (Angstroms)
    I     Atom           X                Y                Z
 ----------------------------------------------------------------
    1      C      -0.2467540000    -3.8878000000    -0.6811430000
    2      C       0.2270930000    -3.7014560000     0.6209060000
    3      C       0.3715430000    -2.3451700000     1.0196180000
    4      H       0.4689920000    -4.5452330000     1.2843570000
    5      C       0.0000000000    -1.4501350000     0.0000000000
    6      S      -0.5220970000    -2.3213340000    -1.4355220000
    7      C       0.8660350000    -1.9344390000     2.3787310000
    8      H       1.0937990000    -2.8197990000     3.0032720000
    9      H       0.1146880000    -1.3262100000     2.9244440000
   10      H       1.7918410000    -1.3253740000     2.3139870000
   11      C       0.0000000000     0.0000000000     0.0000000000
   12      C       0.2859760000     0.7947230000     1.1130200000
   13      C       0.7573080000     2.1034120000     0.8205780000
   14      H       0.1544980000     0.4295750000     2.1428810000
   15      C       0.8415650000     2.3368210000    -0.5635880000
   16      S       0.3284980000     0.9133340000    -1.4647480000
   17      C       1.1180590000     3.1050400000     1.8823800000
   18      H       0.9661970000     2.6836160000     2.8949740000
   19      H       0.5007730000     4.0246680000     1.8081370000
   20      H       2.1800000000     3.4197660000     1.8082300000
   21      H       1.1661290000     3.2382000000    -1.0971140000
   22      H      -1.2044540000    -4.4202190000    -0.6886860000
   23      H       0.4824820000    -4.4193950000    -1.3027030000
   24      H      -1.0148630000    -1.4506280000     0.3693950000
 ----------------------------------------------------------------

   10   -1180.7465901233      5.19e-07  Convergence criterion met
 Total energy in the final basis set =    -1180.7465901233
        RIMP2         total energy =     -1182.7559788617 a.u.

                    Orbital Energies (a.u.)
 --------------------------------------------------------------

 Alpha MOs
 -- Occupied --
-91.9825 -91.9454 -11.2853 -11.2657 -11.2594 -11.2579 -11.2504 -11.2440
-11.2333 -11.2326 -11.2287 -11.2219  -8.9822  -8.9499  -6.6631  -6.6626
 -6.6620  -6.6314  -6.6303  -6.6291  -1.2007  -1.1526  -1.0586  -1.0308
 -1.0016  -0.9617  -0.9156  -0.9002  -0.8164  -0.7616  -0.7271  -0.7092
 -0.6559  -0.6472  -0.6110  -0.5936  -0.5882  -0.5696  -0.5590  -0.5519
 -0.5424  -0.5345  -0.5234  -0.5031  -0.4835  -0.4789  -0.4664  -0.4447
 -0.3594  -0.3426  -0.3236  -0.2646

          Ground-State Mulliken Net Atomic Charges

     Atom                 Charge (a.u.)
  ----------------------------------------
      1 C                    -0.073741
      2 C                    -0.317867
      3 C                    -0.068265
      4 H                     0.179810
      5 C                     0.128834
      6 S                    -0.180117
      7 C                    -0.296902
      8 H                     0.121656
      9 H                     0.098165
     10 H                     0.117909
     11 C                    -0.036984
     12 C                    -0.310681
     13 C                     0.054851
     14 H                     0.191487
     15 C                    -0.273616
     16 S                     0.015743
     17 C                    -0.271946
     18 H                     0.100915
     19 H                     0.108675
     20 H                     0.108455
     21 H                     0.195529
     22 H                     0.111652
     23 H                     0.112669
     24 H                     0.183768
  ----------------------------------------
  Sum of atomic charges =     0.000000

                    Cartesian Multipole Moments
 -----------------------------------------------------------------
    Charge (ESU x 10^10)
                -0.0000
    Dipole Moment (Debye)
         X       0.5497      Y      -0.1892      Z       4.0331
       Tot       4.0748
    Quadrupole Moments (Debye-Ang)
        XX     -90.3595     XY       3.4292     YY     -74.4830
        XZ       0.7977     YZ      -2.7104     ZZ     -85.9480

 Total job time:  58.12s(wall), 1961.13s(cpu)
        *  Thank you very much for using Q-Chem.  Have a nice day.  *
