 Q-Chem 5.4, Q-Chem, Inc., Pleasanton, CA (2021)
 Q-Chem 5.4.0 for Intel X86 EM64T Linux

User input:
--------------------------------------------------------------
$molecule
0 1
C	-0.724460	-3.887800	-0.001092
C	0.661131	-3.701456	-0.001036
C	1.085203	-2.345170	-0.000406
H	1.367305	-4.545233	-0.001433
C	0.000000	-1.450135	0.000000
S	-1.527517	-2.321334	-0.000367
C	2.531478	-1.934439	-0.000233
H	3.196254	-2.819799	-0.000656
H	2.787305	-1.326210	0.892447
H	2.787282	-1.325374	-0.892350
C	0.000000	0.000000	0.000000
C	0.419634	0.732990	1.113020
C	1.111057	1.939951	0.820578
H	0.226746	0.396221	2.142881
C	1.234565	2.155183	-0.563588
S	0.482106	0.842416	-1.464748
C	1.640257	2.863718	1.882380
H	1.417524	2.475067	2.894974
H	1.192042	3.876565	1.808137
H	2.740717	2.989259	1.808230
H	1.710720	2.986508	-1.097114
H	-1.059101	-4.420219	0.896272
H	-1.059122	-4.419395	-0.898936
H	0.000014	-1.450628	1.080000
$end

$rem
JOBTYPE		SP
EXCHANGE	HF
CORRELATION	pRIMP2
BASIS		cc-pvtz
METHOD		rimp2
AUX_BASIS	rimp2-cc-pvtz
SOLVENT_METHOD	PCM
PURECART	11111
SYMMETRY	false
MEM_TOTAL	110000
SCF_CONVERGENCE = 6
THRESH=10
GUI = 2
$end

$solvent
dielectric 4.90
$end
--------------------------------------------------------------

             Standard Nuclear Orientation (Angstroms)
    I     Atom           X                Y                Z
 ----------------------------------------------------------------
    1      C      -0.7244600000    -3.8878000000    -0.0010920000
    2      C       0.6611310000    -3.7014560000    -0.0010360000
    3      C       1.0852030000    -2.3451700000    -0.0004060000
    4      H       1.3673050000    -4.5452330000    -0.0014330000
    5      C       0.0000000000    -1.4501350000     0.0000000000
    6      S      -1.5275170000    -2.3213340000    -0.0003670000
    7      C       2.5314780000    -1.9344390000    -0.0002330000
    8      H       3.1962540000    -2.8197990000    -0.0006560000
    9      H       2.7873050000    -1.3262100000     0.8924470000
   10      H       2.7872820000    -1.3253740000    -0.8923500000
   11      C       0.0000000000     0.0000000000     0.0000000000
   12      C       0.4196340000     0.7329900000     1.1130200000
   13      C       1.1110570000     1.9399510000     0.8205780000
   14      H       0.2267460000     0.3962210000     2.1428810000
   15      C       1.2345650000     2.1551830000    -0.5635880000
   16      S       0.4821060000     0.8424160000    -1.4647480000
   17      C       1.6402570000     2.8637180000     1.8823800000
   18      H       1.4175240000     2.4750670000     2.8949740000
   19      H       1.1920420000     3.8765650000     1.8081370000
   20      H       2.7407170000     2.9892590000     1.8082300000
   21      H       1.7107200000     2.9865080000    -1.0971140000
   22      H      -1.0591010000    -4.4202190000     0.8962720000
   23      H      -1.0591220000    -4.4193950000    -0.8989360000
   24      H       0.0000140000    -1.4506280000     1.0800000000
 ----------------------------------------------------------------

   10   -1180.7474268587      5.91e-07  Convergence criterion met
 Total energy in the final basis set =    -1180.7474268587
        RIMP2         total energy =     -1182.7568695608 a.u.

                    Orbital Energies (a.u.)
 --------------------------------------------------------------

 Alpha MOs
 -- Occupied --
-91.9806 -91.9372 -11.2747 -11.2717 -11.2616 -11.2538 -11.2522 -11.2486
-11.2391 -11.2305 -11.2300 -11.2183  -8.9807  -8.9420  -6.6616  -6.6610
 -6.6605  -6.6234  -6.6224  -6.6211  -1.1981  -1.1543  -1.0571  -1.0236
 -1.0068  -0.9607  -0.9107  -0.9021  -0.8116  -0.7604  -0.7381  -0.7026
 -0.6589  -0.6392  -0.6111  -0.5898  -0.5798  -0.5728  -0.5660  -0.5505
 -0.5411  -0.5275  -0.5185  -0.5040  -0.4932  -0.4723  -0.4597  -0.4463
 -0.3535  -0.3428  -0.3145  -0.2791

          Ground-State Mulliken Net Atomic Charges

     Atom                 Charge (a.u.)
  ----------------------------------------
      1 C                    -0.075020
      2 C                    -0.327718
      3 C                    -0.020321
      4 H                     0.176653
      5 C                     0.063706
      6 S                    -0.190651
      7 C                    -0.273637
      8 H                     0.116515
      9 H                     0.102343
     10 H                     0.110336
     11 C                    -0.056676
     12 C                    -0.258409
     13 C                     0.038871
     14 H                     0.182581
     15 C                    -0.227846
     16 S                     0.005131
     17 C                    -0.269350
     18 H                     0.102561
     19 H                     0.108731
     20 H                     0.107445
     21 H                     0.198575
     22 H                     0.108553
     23 H                     0.109608
     24 H                     0.168021
  ----------------------------------------
  Sum of atomic charges =     0.000000

                    Cartesian Multipole Moments
 -----------------------------------------------------------------
    Charge (ESU x 10^10)
                -0.0000
    Dipole Moment (Debye)
         X       3.5895      Y       0.8694      Z       2.3843
       Tot       4.3960
    Quadrupole Moments (Debye-Ang)
        XX     -89.2255     XY       0.8855     YY     -76.8180
        XZ       0.2348     YZ      -0.3380     ZZ     -85.8781

 Total job time:  55.50s(wall), 1923.58s(cpu)
        *  Thank you very much for using Q-Chem.  Have a nice day.  *
