 Q-Chem 5.4, Q-Chem, Inc., Pleasanton, CA (2021)
 Q-Chem 5.4.0 for Intel X86 EM64T Linux

User input:
--------------------------------------------------------------
$molecule
0 1
C	0.627947	-3.887800	-0.361285
C	-0.572038	-3.701456	0.331462
C	-0.939610	-2.345170	0.542953
H	-1.183405	-4.545233	0.684893
C	0.000000	-1.450135	0.000000
S	1.323052	-2.321334	-0.763441
C	-2.192207	-1.934439	1.265941
H	-2.767709	-2.819799	1.598695
H	-2.860100	-1.326210	0.620770
H	-1.967682	-1.325374	2.166438
C	0.000000	0.000000	0.000000
C	0.285976	0.794723	1.113020
C	0.757308	2.103412	0.820578
H	0.154498	0.429575	2.142881
C	0.841565	2.336821	-0.563588
S	0.328498	0.913334	-1.464748
C	1.118059	3.105040	1.882380
H	0.966197	2.683616	2.894974
H	0.500773	4.024668	1.808137
H	2.180000	3.419766	1.808230
H	1.166129	3.238200	-1.097114
H	0.469073	-4.420219	-1.305744
H	1.366694	-4.419395	0.248940
H	-0.540012	-1.450628	-0.935300
$end

$rem
JOBTYPE		SP
EXCHANGE	HF
CORRELATION	pRIMP2
BASIS		cc-pvtz
METHOD		rimp2
AUX_BASIS	rimp2-cc-pvtz
SOLVENT_METHOD	PCM
PURECART	11111
SYMMETRY	false
MEM_TOTAL	110000
SCF_CONVERGENCE = 6
THRESH=10
GUI = 2
$end

$solvent
dielectric 4.90
$end
--------------------------------------------------------------

             Standard Nuclear Orientation (Angstroms)
    I     Atom           X                Y                Z
 ----------------------------------------------------------------
    1      C       0.6279470000    -3.8878000000    -0.3612850000
    2      C      -0.5720380000    -3.7014560000     0.3314620000
    3      C      -0.9396100000    -2.3451700000     0.5429530000
    4      H      -1.1834050000    -4.5452330000     0.6848930000
    5      C       0.0000000000    -1.4501350000     0.0000000000
    6      S       1.3230520000    -2.3213340000    -0.7634410000
    7      C      -2.1922070000    -1.9344390000     1.2659410000
    8      H      -2.7677090000    -2.8197990000     1.5986950000
    9      H      -2.8601000000    -1.3262100000     0.6207700000
   10      H      -1.9676820000    -1.3253740000     2.1664380000
   11      C       0.0000000000     0.0000000000     0.0000000000
   12      C       0.2859760000     0.7947230000     1.1130200000
   13      C       0.7573080000     2.1034120000     0.8205780000
   14      H       0.1544980000     0.4295750000     2.1428810000
   15      C       0.8415650000     2.3368210000    -0.5635880000
   16      S       0.3284980000     0.9133340000    -1.4647480000
   17      C       1.1180590000     3.1050400000     1.8823800000
   18      H       0.9661970000     2.6836160000     2.8949740000
   19      H       0.5007730000     4.0246680000     1.8081370000
   20      H       2.1800000000     3.4197660000     1.8082300000
   21      H       1.1661290000     3.2382000000    -1.0971140000
   22      H       0.4690730000    -4.4202190000    -1.3057440000
   23      H       1.3666940000    -4.4193950000     0.2489400000
   24      H      -0.5400120000    -1.4506280000    -0.9353000000
 ----------------------------------------------------------------

   10   -1180.7531694468      5.21e-07  Convergence criterion met
 Total energy in the final basis set =    -1180.7531694468
        RIMP2         total energy =     -1182.7588827679 a.u.

                    Orbital Energies (a.u.)
 --------------------------------------------------------------

 Alpha MOs
 -- Occupied --
-91.9856 -91.9418 -11.2776 -11.2665 -11.2624 -11.2551 -11.2508 -11.2410
-11.2385 -11.2317 -11.2288 -11.2186  -8.9852  -8.9464  -6.6662  -6.6657
 -6.6650  -6.6278  -6.6267  -6.6254  -1.1975  -1.1537  -1.0571  -1.0274
 -1.0011  -0.9633  -0.9122  -0.9007  -0.8136  -0.7584  -0.7426  -0.7028
 -0.6532  -0.6346  -0.6111  -0.5883  -0.5796  -0.5698  -0.5670  -0.5535
 -0.5428  -0.5305  -0.5121  -0.5057  -0.4916  -0.4798  -0.4636  -0.4493
 -0.3562  -0.3404  -0.3177  -0.2748

          Ground-State Mulliken Net Atomic Charges

     Atom                 Charge (a.u.)
  ----------------------------------------
      1 C                    -0.074730
      2 C                    -0.327784
      3 C                    -0.029260
      4 H                     0.176649
      5 C                     0.085457
      6 S                    -0.172728
      7 C                    -0.270772
      8 H                     0.113443
      9 H                     0.104490
     10 H                     0.103363
     11 C                    -0.108955
     12 C                    -0.210842
     13 C                     0.014249
     14 H                     0.189176
     15 C                    -0.231414
     16 S                     0.008537
     17 C                    -0.272369
     18 H                     0.102216
     19 H                     0.107529
     20 H                     0.108384
     21 H                     0.198613
     22 H                     0.109535
     23 H                     0.112913
     24 H                     0.164297
  ----------------------------------------
  Sum of atomic charges =     0.000000

                    Cartesian Multipole Moments
 -----------------------------------------------------------------
    Charge (ESU x 10^10)
                -0.0000
    Dipole Moment (Debye)
         X      -1.8031      Y       0.6541      Z       2.0115
       Tot       2.7794
    Quadrupole Moments (Debye-Ang)
        XX     -90.7409     XY       7.4097     YY     -74.9133
        XZ       0.1208     YZ       0.3367     ZZ     -85.6052

 Total job time:  54.54s(wall), 1908.40s(cpu)
        *  Thank you very much for using Q-Chem.  Have a nice day.  *
