 Q-Chem 5.4, Q-Chem, Inc., Pleasanton, CA (2021)
 Q-Chem 5.4.0 for Intel X86 EM64T Linux

User input:
--------------------------------------------------------------
$molecule
0 1
C	-0.555670	-3.887800	0.464838
C	0.505790	-3.701456	-0.425760
C	0.831053	-2.345170	-0.697866
H	1.046496	-4.545233	-0.879984
C	0.000000	-1.450135	0.000000
S	-1.170382	-2.321334	0.981588
C	1.939074	-1.934439	-1.627381
H	2.448051	-2.819799	-2.055015
H	2.708853	-1.326210	-1.107991
H	1.561590	-1.325374	-2.475210
C	0.000000	0.000000	0.000000
C	0.143630	0.832309	1.113020
C	0.380550	2.202961	0.820578
H	0.077556	0.449877	2.142881
C	0.422995	2.447456	-0.563588
S	0.164909	0.956502	-1.464748
C	0.561888	3.252016	1.882380
H	0.485513	2.810624	2.894974
H	-0.205711	4.050482	1.808137
H	1.553045	3.746365	1.808230
H	0.586105	3.391501	-1.097114
H	-0.235206	-4.420219	1.367361
H	-1.389159	-4.419395	-0.007834
H	0.694221	-1.450628	0.827319
$end

$rem
JOBTYPE		SP
EXCHANGE	HF
CORRELATION	pRIMP2
BASIS		cc-pvtz
METHOD		rimp2
AUX_BASIS	rimp2-cc-pvtz
SOLVENT_METHOD	PCM
PURECART	11111
SYMMETRY	false
MEM_TOTAL	110000
SCF_CONVERGENCE = 6
THRESH=10
GUI = 2
$end

$solvent
dielectric 4.90
$end
--------------------------------------------------------------

             Standard Nuclear Orientation (Angstroms)
    I     Atom           X                Y                Z
 ----------------------------------------------------------------
    1      C      -0.5556700000    -3.8878000000     0.4648380000
    2      C       0.5057900000    -3.7014560000    -0.4257600000
    3      C       0.8310530000    -2.3451700000    -0.6978660000
    4      H       1.0464960000    -4.5452330000    -0.8799840000
    5      C       0.0000000000    -1.4501350000     0.0000000000
    6      S      -1.1703820000    -2.3213340000     0.9815880000
    7      C       1.9390740000    -1.9344390000    -1.6273810000
    8      H       2.4480510000    -2.8197990000    -2.0550150000
    9      H       2.7088530000    -1.3262100000    -1.1079910000
   10      H       1.5615900000    -1.3253740000    -2.4752100000
   11      C       0.0000000000     0.0000000000     0.0000000000
   12      C       0.1436300000     0.8323090000     1.1130200000
   13      C       0.3805500000     2.2029610000     0.8205780000
   14      H       0.0775560000     0.4498770000     2.1428810000
   15      C       0.4229950000     2.4474560000    -0.5635880000
   16      S       0.1649090000     0.9565020000    -1.4647480000
   17      C       0.5618880000     3.2520160000     1.8823800000
   18      H       0.4855130000     2.8106240000     2.8949740000
   19      H      -0.2057110000     4.0504820000     1.8081370000
   20      H       1.5530450000     3.7463650000     1.8082300000
   21      H       0.5861050000     3.3915010000    -1.0971140000
   22      H      -0.2352060000    -4.4202190000     1.3673610000
   23      H      -1.3891590000    -4.4193950000    -0.0078340000
   24      H       0.6942210000    -1.4506280000     0.8273190000
 ----------------------------------------------------------------

   10   -1180.7592951175      4.95e-07  Convergence criterion met
 Total energy in the final basis set =    -1180.7592951175
        RIMP2         total energy =     -1182.7651574636 a.u.

                    Orbital Energies (a.u.)
 --------------------------------------------------------------

 Alpha MOs
 -- Occupied --
-91.9825 -91.9430 -11.2856 -11.2638 -11.2599 -11.2576 -11.2509 -11.2423
-11.2367 -11.2311 -11.2288 -11.2206  -8.9823  -8.9476  -6.6632  -6.6627
 -6.6621  -6.6290  -6.6280  -6.6267  -1.1991  -1.1531  -1.0580  -1.0255
 -1.0075  -0.9575  -0.9132  -0.9015  -0.8135  -0.7669  -0.7275  -0.7005
 -0.6618  -0.6427  -0.6106  -0.5867  -0.5800  -0.5733  -0.5678  -0.5520
 -0.5417  -0.5315  -0.5142  -0.5062  -0.4932  -0.4811  -0.4581  -0.4495
 -0.3561  -0.3431  -0.3194  -0.2708

          Ground-State Mulliken Net Atomic Charges

     Atom                 Charge (a.u.)
  ----------------------------------------
      1 C                    -0.075289
      2 C                    -0.325586
      3 C                    -0.023971
      4 H                     0.178207
      5 C                     0.072932
      6 S                    -0.177147
      7 C                    -0.281295
      8 H                     0.115321
      9 H                     0.109554
     10 H                     0.109343
     11 C                    -0.049539
     12 C                    -0.262580
     13 C                     0.026815
     14 H                     0.182799
     15 C                    -0.253778
     16 S                     0.007874
     17 C                    -0.271212
     18 H                     0.102596
     19 H                     0.108575
     20 H                     0.107735
     21 H                     0.196624
     22 H                     0.110398
     23 H                     0.113095
     24 H                     0.178532
  ----------------------------------------
  Sum of atomic charges =     0.000000

                    Cartesian Multipole Moments
 -----------------------------------------------------------------
    Charge (ESU x 10^10)
                -0.0000
    Dipole Moment (Debye)
         X       2.6891      Y       0.1863      Z       0.4976
       Tot       2.7411
    Quadrupole Moments (Debye-Ang)
        XX     -91.7035     XY      -2.0672     YY     -74.1994
        XZ       0.0462     YZ       2.5225     ZZ     -85.5617

 Total job time:  54.23s(wall), 1871.62s(cpu)
        *  Thank you very much for using Q-Chem.  Have a nice day.  *
