 Q-Chem 5.4, Q-Chem, Inc., Pleasanton, CA (2021)
 Q-Chem 5.4.0 for Intel X86 EM64T Linux

User input:
--------------------------------------------------------------
$molecule
0 1
C	0.680396	-3.887800	0.248806
C	-0.621614	-3.701456	-0.225147
C	-1.019896	-2.345170	-0.370780
H	-1.285337	-4.545233	-0.466300
C	0.000000	-1.450135	0.000000
S	1.435271	-2.321334	0.522786
C	-2.378891	-1.934439	-0.865597
H	-3.003720	-2.819799	-1.092567
H	-2.313975	-1.326210	-1.791940
H	-2.924390	-1.325374	-0.114772
C	0.000000	0.000000	0.000000
C	0.729909	0.424971	1.113020
C	1.932179	1.124518	0.820578
H	0.394478	0.229765	2.142881
C	2.146756	1.249161	-0.563588
S	0.838724	0.488500	-1.464748
C	2.852364	1.659924	1.882380
H	2.465145	1.434710	2.894974
H	2.970621	2.761183	1.808137
H	3.868160	1.218416	1.808230
H	2.974781	1.731032	-1.097114
H	1.301772	-4.420219	-0.479986
H	0.687795	-4.419395	1.206964
H	0.369368	-1.450628	-1.014873
$end

$rem
JOBTYPE		SP
EXCHANGE	HF
CORRELATION	pRIMP2
BASIS		cc-pvtz
METHOD		rimp2
AUX_BASIS	rimp2-cc-pvtz
SOLVENT_METHOD	PCM
PURECART	11111
SYMMETRY	false
MEM_TOTAL	110000
SCF_CONVERGENCE = 6
THRESH=10
GUI = 2
$end

$solvent
dielectric 4.90
$end
--------------------------------------------------------------

             Standard Nuclear Orientation (Angstroms)
    I     Atom           X                Y                Z
 ----------------------------------------------------------------
    1      C       0.6803960000    -3.8878000000     0.2488060000
    2      C      -0.6216140000    -3.7014560000    -0.2251470000
    3      C      -1.0198960000    -2.3451700000    -0.3707800000
    4      H      -1.2853370000    -4.5452330000    -0.4663000000
    5      C       0.0000000000    -1.4501350000     0.0000000000
    6      S       1.4352710000    -2.3213340000     0.5227860000
    7      C      -2.3788910000    -1.9344390000    -0.8655970000
    8      H      -3.0037200000    -2.8197990000    -1.0925670000
    9      H      -2.3139750000    -1.3262100000    -1.7919400000
   10      H      -2.9243900000    -1.3253740000    -0.1147720000
   11      C       0.0000000000     0.0000000000     0.0000000000
   12      C       0.7299090000     0.4249710000     1.1130200000
   13      C       1.9321790000     1.1245180000     0.8205780000
   14      H       0.3944780000     0.2297650000     2.1428810000
   15      C       2.1467560000     1.2491610000    -0.5635880000
   16      S       0.8387240000     0.4885000000    -1.4647480000
   17      C       2.8523640000     1.6599240000     1.8823800000
   18      H       2.4651450000     1.4347100000     2.8949740000
   19      H       2.9706210000     2.7611830000     1.8081370000
   20      H       3.8681600000     1.2184160000     1.8082300000
   21      H       2.9747810000     1.7310320000    -1.0971140000
   22      H       1.3017720000    -4.4202190000    -0.4799860000
   23      H       0.6877950000    -4.4193950000     1.2069640000
   24      H       0.3693680000    -1.4506280000    -1.0148730000
 ----------------------------------------------------------------

   10   -1180.6807715187      8.14e-07  Convergence criterion met
 Total energy in the final basis set =    -1180.6807715187
        RIMP2         total energy =     -1182.7015781306 a.u.

                    Orbital Energies (a.u.)
 --------------------------------------------------------------

 Alpha MOs
 -- Occupied --
-91.9787 -91.9355 -11.2894 -11.2626 -11.2529 -11.2523 -11.2512 -11.2449
-11.2358 -11.2303 -11.2281 -11.2085  -8.9803  -8.9404  -6.6611  -6.6601
 -6.6599  -6.6218  -6.6208  -6.6195  -1.2069  -1.1528  -1.0591  -1.0229
 -1.0036  -0.9621  -0.9125  -0.8996  -0.8054  -0.7674  -0.7413  -0.7037
 -0.6487  -0.6284  -0.6167  -0.5873  -0.5796  -0.5757  -0.5659  -0.5500
 -0.5405  -0.5335  -0.5094  -0.5047  -0.4872  -0.4669  -0.4578  -0.4400
 -0.3568  -0.3372  -0.3195  -0.2650

          Ground-State Mulliken Net Atomic Charges

     Atom                 Charge (a.u.)
  ----------------------------------------
      1 C                    -0.084335
      2 C                    -0.340933
      3 C                    -0.060549
      4 H                     0.172678
      5 C                     0.080396
      6 S                    -0.198691
      7 C                    -0.275628
      8 H                     0.112949
      9 H                     0.099801
     10 H                     0.106251
     11 C                    -0.158024
     12 C                    -0.127817
     13 C                    -0.012730
     14 H                     0.190576
     15 C                    -0.160703
     16 S                     0.011776
     17 C                    -0.267822
     18 H                     0.103785
     19 H                     0.110090
     20 H                     0.106771
     21 H                     0.202679
     22 H                     0.107948
     23 H                     0.107527
     24 H                     0.174005
  ----------------------------------------
  Sum of atomic charges =     0.000000

                    Cartesian Multipole Moments
 -----------------------------------------------------------------
    Charge (ESU x 10^10)
                -0.0000
    Dipole Moment (Debye)
         X       0.7656      Y       1.0891      Z       0.3371
       Tot       1.3733
    Quadrupole Moments (Debye-Ang)
        XX     -82.2972     XY       8.4752     YY     -84.7996
        XZ       0.3641     YZ       3.1088     ZZ     -85.1877

 Total job time:  58.37s(wall), 2091.63s(cpu)
        *  Thank you very much for using Q-Chem.  Have a nice day.  *
