 Q-Chem 5.4, Q-Chem, Inc., Pleasanton, CA (2021)
 Q-Chem 5.4.0 for Intel X86 EM64T Linux

User input:
--------------------------------------------------------------
$molecule
0 1
C	0.464838	-3.887800	0.555670
C	-0.425760	-3.701456	-0.505790
C	-0.697866	-2.345170	-0.831053
H	-0.879984	-4.545233	-1.046496
C	0.000000	-1.450135	0.000000
S	0.981588	-2.321334	1.170382
C	-1.627381	-1.934439	-1.939074
H	-2.055015	-2.819799	-2.448051
H	-1.107991	-1.326210	-2.708853
H	-2.475210	-1.325374	-1.561590
C	0.000000	0.000000	0.000000
C	-0.003081	0.844605	1.113020
C	-0.007772	2.235575	0.820578
H	-0.001743	0.456510	2.142881
C	-0.008427	2.483726	-0.563588
S	-0.003691	0.970607	-1.464748
C	-0.011355	3.300181	1.882380
H	-0.009922	2.852233	2.894974
H	-0.905944	3.953225	1.808137
H	0.878901	3.959133	1.808230
H	-0.011727	3.441752	-1.097114
H	1.367361	-4.420219	0.235206
H	-0.007834	-4.419395	1.389159
H	0.827319	-1.450628	-0.694221
$end

$rem
JOBTYPE		SP
EXCHANGE	HF
CORRELATION	pRIMP2
BASIS		cc-pvtz
METHOD		rimp2
AUX_BASIS	rimp2-cc-pvtz
SOLVENT_METHOD	PCM
PURECART	11111
SYMMETRY	false
MEM_TOTAL	110000
SCF_CONVERGENCE = 6
THRESH=10
GUI = 2
$end

$solvent
dielectric 4.90
$end
--------------------------------------------------------------

             Standard Nuclear Orientation (Angstroms)
    I     Atom           X                Y                Z
 ----------------------------------------------------------------
    1      C       0.4648380000    -3.8878000000     0.5556700000
    2      C      -0.4257600000    -3.7014560000    -0.5057900000
    3      C      -0.6978660000    -2.3451700000    -0.8310530000
    4      H      -0.8799840000    -4.5452330000    -1.0464960000
    5      C       0.0000000000    -1.4501350000     0.0000000000
    6      S       0.9815880000    -2.3213340000     1.1703820000
    7      C      -1.6273810000    -1.9344390000    -1.9390740000
    8      H      -2.0550150000    -2.8197990000    -2.4480510000
    9      H      -1.1079910000    -1.3262100000    -2.7088530000
   10      H      -2.4752100000    -1.3253740000    -1.5615900000
   11      C       0.0000000000     0.0000000000     0.0000000000
   12      C      -0.0030810000     0.8446050000     1.1130200000
   13      C      -0.0077720000     2.2355750000     0.8205780000
   14      H      -0.0017430000     0.4565100000     2.1428810000
   15      C      -0.0084270000     2.4837260000    -0.5635880000
   16      S      -0.0036910000     0.9706070000    -1.4647480000
   17      C      -0.0113550000     3.3001810000     1.8823800000
   18      H      -0.0099220000     2.8522330000     2.8949740000
   19      H      -0.9059440000     3.9532250000     1.8081370000
   20      H       0.8789010000     3.9591330000     1.8082300000
   21      H      -0.0117270000     3.4417520000    -1.0971140000
   22      H       1.3673610000    -4.4202190000     0.2352060000
   23      H      -0.0078340000    -4.4193950000     1.3891590000
   24      H       0.8273190000    -1.4506280000    -0.6942210000
 ----------------------------------------------------------------

   10   -1180.7612229164      4.90e-07  Convergence criterion met
 Total energy in the final basis set =    -1180.7612229164
        RIMP2         total energy =     -1182.7654022520 a.u.

                    Orbital Energies (a.u.)
 --------------------------------------------------------------

 Alpha MOs
 -- Occupied --
-91.9838 -91.9455 -11.2861 -11.2641 -11.2596 -11.2594 -11.2502 -11.2432
-11.2334 -11.2320 -11.2280 -11.2216  -8.9837  -8.9499  -6.6646  -6.6641
 -6.6634  -6.6312  -6.6302  -6.6290  -1.1998  -1.1531  -1.0590  -1.0263
 -1.0057  -0.9591  -0.9151  -0.9012  -0.8135  -0.7694  -0.7259  -0.7044
 -0.6555  -0.6415  -0.6110  -0.5922  -0.5776  -0.5733  -0.5691  -0.5530
 -0.5418  -0.5323  -0.5138  -0.5069  -0.4898  -0.4855  -0.4604  -0.4477
 -0.3573  -0.3425  -0.3227  -0.2709

          Ground-State Mulliken Net Atomic Charges

     Atom                 Charge (a.u.)
  ----------------------------------------
      1 C                    -0.075222
      2 C                    -0.321632
      3 C                    -0.056078
      4 H                     0.178667
      5 C                     0.146632
      6 S                    -0.176900
      7 C                    -0.284913
      8 H                     0.116456
      9 H                     0.103441
     10 H                     0.115689
     11 C                    -0.091561
     12 C                    -0.259617
     13 C                     0.027315
     14 H                     0.185275
     15 C                    -0.256058
     16 S                     0.005309
     17 C                    -0.272782
     18 H                     0.103099
     19 H                     0.108002
     20 H                     0.108360
     21 H                     0.197548
     22 H                     0.112706
     23 H                     0.111899
     24 H                     0.174364
  ----------------------------------------
  Sum of atomic charges =     0.000000

                    Cartesian Multipole Moments
 -----------------------------------------------------------------
    Charge (ESU x 10^10)
                -0.0000
    Dipole Moment (Debye)
         X      -0.9546      Y       0.0662      Z      -0.9361
       Tot       1.3386
    Quadrupole Moments (Debye-Ang)
        XX     -91.3995     XY       1.1397     YY     -73.2104
        XZ       0.2943     YZ       4.9288     ZZ     -86.1248

 Total job time:  62.11s(wall), 2197.44s(cpu)
        *  Thank you very much for using Q-Chem.  Have a nice day.  *
