 Q-Chem 5.4, Q-Chem, Inc., Pleasanton, CA (2021)
 Q-Chem 5.4.0 for Intel X86 EM64T Linux

User input:
--------------------------------------------------------------
$molecule
0 1
C	0.713644	-3.887800	-0.124726
C	-0.650907	-3.701456	0.115824
C	-1.068646	-2.345170	0.188844
H	-1.346284	-4.545233	0.238841
C	0.000000	-1.450135	0.000000
S	1.504375	-2.321334	-0.264890
C	-2.492978	-1.934439	0.439816
H	-3.147582	-2.819799	0.555669
H	-2.899931	-1.326210	-0.394879
H	-2.589982	-1.325374	1.362799
C	0.000000	0.000000	0.000000
C	0.419634	0.732990	1.113020
C	1.111057	1.939951	0.820578
H	0.226746	0.396221	2.142881
C	1.234565	2.155183	-0.563588
S	0.482106	0.842416	-1.464748
C	1.640257	2.863718	1.882380
H	1.417524	2.475067	2.894974
H	1.192042	3.876565	1.808137
H	2.740717	2.989259	1.808230
H	1.710720	2.986508	-1.097114
H	0.887375	-4.420219	-1.066566
H	1.199130	-4.419395	0.701364
H	-0.187554	-1.450628	-1.063590
$end

$rem
JOBTYPE		SP
EXCHANGE	HF
CORRELATION	pRIMP2
BASIS		cc-pvtz
METHOD		rimp2
AUX_BASIS	rimp2-cc-pvtz
SOLVENT_METHOD	PCM
PURECART	11111
SYMMETRY	false
MEM_TOTAL	110000
SCF_CONVERGENCE = 6
THRESH=10
GUI = 2
$end

$solvent
dielectric 4.90
$end
--------------------------------------------------------------

             Standard Nuclear Orientation (Angstroms)
    I     Atom           X                Y                Z
 ----------------------------------------------------------------
    1      C       0.7136440000    -3.8878000000    -0.1247260000
    2      C      -0.6509070000    -3.7014560000     0.1158240000
    3      C      -1.0686460000    -2.3451700000     0.1888440000
    4      H      -1.3462840000    -4.5452330000     0.2388410000
    5      C       0.0000000000    -1.4501350000     0.0000000000
    6      S       1.5043750000    -2.3213340000    -0.2648900000
    7      C      -2.4929780000    -1.9344390000     0.4398160000
    8      H      -3.1475820000    -2.8197990000     0.5556690000
    9      H      -2.8999310000    -1.3262100000    -0.3948790000
   10      H      -2.5899820000    -1.3253740000     1.3627990000
   11      C       0.0000000000     0.0000000000     0.0000000000
   12      C       0.4196340000     0.7329900000     1.1130200000
   13      C       1.1110570000     1.9399510000     0.8205780000
   14      H       0.2267460000     0.3962210000     2.1428810000
   15      C       1.2345650000     2.1551830000    -0.5635880000
   16      S       0.4821060000     0.8424160000    -1.4647480000
   17      C       1.6402570000     2.8637180000     1.8823800000
   18      H       1.4175240000     2.4750670000     2.8949740000
   19      H       1.1920420000     3.8765650000     1.8081370000
   20      H       2.7407170000     2.9892590000     1.8082300000
   21      H       1.7107200000     2.9865080000    -1.0971140000
   22      H       0.8873750000    -4.4202190000    -1.0665660000
   23      H       1.1991300000    -4.4193950000     0.7013640000
   24      H      -0.1875540000    -1.4506280000    -1.0635900000
 ----------------------------------------------------------------

   10   -1180.7446789125      5.51e-07  Convergence criterion met
 Total energy in the final basis set =    -1180.7446789125
        RIMP2         total energy =     -1182.7525413504 a.u.

                    Orbital Energies (a.u.)
 --------------------------------------------------------------

 Alpha MOs
 -- Occupied --
-91.9852 -91.9398 -11.2714 -11.2711 -11.2600 -11.2533 -11.2511 -11.2425
-11.2398 -11.2307 -11.2290 -11.2162  -8.9851  -8.9445  -6.6659  -6.6654
 -6.6648  -6.6258  -6.6248  -6.6235  -1.1973  -1.1538  -1.0567  -1.0259
 -1.0011  -0.9631  -0.9115  -0.9006  -0.8113  -0.7595  -0.7429  -0.7028
 -0.6521  -0.6316  -0.6117  -0.5868  -0.5784  -0.5724  -0.5668  -0.5525
 -0.5416  -0.5300  -0.5084  -0.5063  -0.4911  -0.4769  -0.4635  -0.4484
 -0.3574  -0.3374  -0.3131  -0.2799

          Ground-State Mulliken Net Atomic Charges

     Atom                 Charge (a.u.)
  ----------------------------------------
      1 C                    -0.072460
      2 C                    -0.327404
      3 C                    -0.038689
      4 H                     0.175459
      5 C                     0.069884
      6 S                    -0.173704
      7 C                    -0.270206
      8 H                     0.112554
      9 H                     0.103339
     10 H                     0.103909
     11 C                    -0.099726
     12 C                    -0.205291
     13 C                     0.023474
     14 H                     0.183019
     15 C                    -0.227107
     16 S                     0.013109
     17 C                    -0.270122
     18 H                     0.102841
     19 H                     0.107326
     20 H                     0.107849
     21 H                     0.199830
     22 H                     0.108034
     23 H                     0.110956
     24 H                     0.163127
  ----------------------------------------
  Sum of atomic charges =     0.000000

                    Cartesian Multipole Moments
 -----------------------------------------------------------------
    Charge (ESU x 10^10)
                -0.0000
    Dipole Moment (Debye)
         X      -1.3737      Y       0.9167      Z       1.2348
       Tot       2.0621
    Quadrupole Moments (Debye-Ang)
        XX     -89.0802     XY       8.7938     YY     -76.8086
        XZ       0.1952     YZ       1.5553     ZZ     -85.6374

 Total job time:  59.63s(wall), 1857.16s(cpu)
        *  Thank you very much for using Q-Chem.  Have a nice day.  *
