 Q-Chem 5.4, Q-Chem, Inc., Pleasanton, CA (2021)
 Q-Chem 5.4.0 for Intel X86 EM64T Linux

User input:
--------------------------------------------------------------
$molecule
0 1
C	0.626855	-3.887800	0.363176
C	-0.573074	-3.701456	-0.329669
C	-0.940016	-2.345170	-0.542250
H	-1.184837	-4.545233	-0.682412
C	0.000000	-1.450135	0.000000
S	1.322686	-2.321334	0.764076
C	-2.192440	-1.934439	-1.265537
H	-2.768365	-2.819799	-1.597559
H	-1.967653	-1.326210	-2.166534
H	-2.860032	-1.325374	-0.620843
C	0.000000	0.000000	0.000000
C	0.419634	0.732990	1.113020
C	1.111057	1.939951	0.820578
H	0.226746	0.396221	2.142881
C	1.234565	2.155183	-0.563588
S	0.482106	0.842416	-1.464748
C	1.640257	2.863718	1.882380
H	1.417524	2.475067	2.894974
H	1.192042	3.876565	1.808137
H	2.740717	2.989259	1.808230
H	1.710720	2.986508	-1.097114
H	1.365344	-4.420219	-0.246643
H	0.467758	-4.419395	1.308062
H	0.539988	-1.450628	-0.935314
$end

$rem
JOBTYPE		SP
EXCHANGE	HF
CORRELATION	pRIMP2
BASIS		cc-pvtz
METHOD		rimp2
AUX_BASIS	rimp2-cc-pvtz
SOLVENT_METHOD	PCM
PURECART	11111
SYMMETRY	false
MEM_TOTAL	110000
SCF_CONVERGENCE = 6
THRESH=10
GUI = 2
$end

$solvent
dielectric 4.90
$end
--------------------------------------------------------------

             Standard Nuclear Orientation (Angstroms)
    I     Atom           X                Y                Z
 ----------------------------------------------------------------
    1      C       0.6268550000    -3.8878000000     0.3631760000
    2      C      -0.5730740000    -3.7014560000    -0.3296690000
    3      C      -0.9400160000    -2.3451700000    -0.5422500000
    4      H      -1.1848370000    -4.5452330000    -0.6824120000
    5      C       0.0000000000    -1.4501350000     0.0000000000
    6      S       1.3226860000    -2.3213340000     0.7640760000
    7      C      -2.1924400000    -1.9344390000    -1.2655370000
    8      H      -2.7683650000    -2.8197990000    -1.5975590000
    9      H      -1.9676530000    -1.3262100000    -2.1665340000
   10      H      -2.8600320000    -1.3253740000    -0.6208430000
   11      C       0.0000000000     0.0000000000     0.0000000000
   12      C       0.4196340000     0.7329900000     1.1130200000
   13      C       1.1110570000     1.9399510000     0.8205780000
   14      H       0.2267460000     0.3962210000     2.1428810000
   15      C       1.2345650000     2.1551830000    -0.5635880000
   16      S       0.4821060000     0.8424160000    -1.4647480000
   17      C       1.6402570000     2.8637180000     1.8823800000
   18      H       1.4175240000     2.4750670000     2.8949740000
   19      H       1.1920420000     3.8765650000     1.8081370000
   20      H       2.7407170000     2.9892590000     1.8082300000
   21      H       1.7107200000     2.9865080000    -1.0971140000
   22      H       1.3653440000    -4.4202190000    -0.2466430000
   23      H       0.4677580000    -4.4193950000     1.3080620000
   24      H       0.5399880000    -1.4506280000    -0.9353140000
 ----------------------------------------------------------------

   10   -1180.7444547994      5.34e-07  Convergence criterion met
 Total energy in the final basis set =    -1180.7444547994
        RIMP2         total energy =     -1182.7519439842 a.u.

                    Orbital Energies (a.u.)
 --------------------------------------------------------------

 Alpha MOs
 -- Occupied --
-91.9826 -91.9421 -11.2763 -11.2681 -11.2594 -11.2540 -11.2511 -11.2416
-11.2402 -11.2312 -11.2288 -11.2170  -8.9829  -8.9466  -6.6638  -6.6632
 -6.6626  -6.6279  -6.6269  -6.6256  -1.1991  -1.1536  -1.0579  -1.0254
 -1.0034  -0.9607  -0.9135  -0.9004  -0.8107  -0.7665  -0.7334  -0.7030
 -0.6531  -0.6353  -0.6117  -0.5889  -0.5767  -0.5745  -0.5683  -0.5522
 -0.5414  -0.5320  -0.5118  -0.5069  -0.4872  -0.4791  -0.4627  -0.4469
 -0.3552  -0.3424  -0.3192  -0.2728

          Ground-State Mulliken Net Atomic Charges

     Atom                 Charge (a.u.)
  ----------------------------------------
      1 C                    -0.074990
      2 C                    -0.327512
      3 C                    -0.042491
      4 H                     0.175228
      5 C                     0.085527
      6 S                    -0.178164
      7 C                    -0.272300
      8 H                     0.113969
      9 H                     0.099848
     10 H                     0.108970
     11 C                    -0.050972
     12 C                    -0.289747
     13 C                     0.055467
     14 H                     0.186582
     15 C                    -0.239201
     16 S                     0.008566
     17 C                    -0.269476
     18 H                     0.103168
     19 H                     0.107995
     20 H                     0.108242
     21 H                     0.198754
     22 H                     0.109761
     23 H                     0.108860
     24 H                     0.173915
  ----------------------------------------
  Sum of atomic charges =     0.000000

                    Cartesian Multipole Moments
 -----------------------------------------------------------------
    Charge (ESU x 10^10)
                -0.0000
    Dipole Moment (Debye)
         X      -0.6729      Y       0.6371      Z      -0.2427
       Tot       0.9579
    Quadrupole Moments (Debye-Ang)
        XX     -88.7064     XY       7.2008     YY     -76.8123
        XZ       0.4837     YZ       4.0523     ZZ     -86.0181

 Total job time:  57.27s(wall), 1895.83s(cpu)
        *  Thank you very much for using Q-Chem.  Have a nice day.  *
