 Q-Chem 5.4, Q-Chem, Inc., Pleasanton, CA (2021)
 Q-Chem 5.4.0 for Intel X86 EM64T Linux

User input:
--------------------------------------------------------------
$molecule
0 1
C	0.246754	-3.887800	0.681143
C	-0.227093	-3.701456	-0.620906
C	-0.371543	-2.345170	-1.019618
H	-0.468992	-4.545233	-1.284357
C	0.000000	-1.450135	0.000000
S	0.522097	-2.321334	1.435522
C	-0.866035	-1.934439	-2.378731
H	-1.093799	-2.819799	-3.003272
H	-0.114688	-1.326210	-2.924444
H	-1.791841	-1.325374	-2.313987
C	0.000000	0.000000	0.000000
C	-0.003081	0.844605	1.113020
C	-0.007772	2.235575	0.820578
H	-0.001743	0.456510	2.142881
C	-0.008427	2.483726	-0.563588
S	-0.003691	0.970607	-1.464748
C	-0.011355	3.300181	1.882380
H	-0.009922	2.852233	2.894974
H	-0.905944	3.953225	1.808137
H	0.878901	3.959133	1.808230
H	-0.011727	3.441752	-1.097114
H	1.204454	-4.420219	0.688686
H	-0.482482	-4.419395	1.302703
H	1.014863	-1.450628	-0.369395
$end

$rem
JOBTYPE		SP
EXCHANGE	HF
CORRELATION	pRIMP2
BASIS		cc-pvtz
METHOD		rimp2
AUX_BASIS	rimp2-cc-pvtz
SOLVENT_METHOD	PCM
PURECART	11111
SYMMETRY	false
MEM_TOTAL	110000
SCF_CONVERGENCE = 6
THRESH=10
GUI = 2
$end

$solvent
dielectric 4.90
$end
--------------------------------------------------------------

             Standard Nuclear Orientation (Angstroms)
    I     Atom           X                Y                Z
 ----------------------------------------------------------------
    1      C       0.2467540000    -3.8878000000     0.6811430000
    2      C      -0.2270930000    -3.7014560000    -0.6209060000
    3      C      -0.3715430000    -2.3451700000    -1.0196180000
    4      H      -0.4689920000    -4.5452330000    -1.2843570000
    5      C       0.0000000000    -1.4501350000     0.0000000000
    6      S       0.5220970000    -2.3213340000     1.4355220000
    7      C      -0.8660350000    -1.9344390000    -2.3787310000
    8      H      -1.0937990000    -2.8197990000    -3.0032720000
    9      H      -0.1146880000    -1.3262100000    -2.9244440000
   10      H      -1.7918410000    -1.3253740000    -2.3139870000
   11      C       0.0000000000     0.0000000000     0.0000000000
   12      C      -0.0030810000     0.8446050000     1.1130200000
   13      C      -0.0077720000     2.2355750000     0.8205780000
   14      H      -0.0017430000     0.4565100000     2.1428810000
   15      C      -0.0084270000     2.4837260000    -0.5635880000
   16      S      -0.0036910000     0.9706070000    -1.4647480000
   17      C      -0.0113550000     3.3001810000     1.8823800000
   18      H      -0.0099220000     2.8522330000     2.8949740000
   19      H      -0.9059440000     3.9532250000     1.8081370000
   20      H       0.8789010000     3.9591330000     1.8082300000
   21      H      -0.0117270000     3.4417520000    -1.0971140000
   22      H       1.2044540000    -4.4202190000     0.6886860000
   23      H      -0.4824820000    -4.4193950000     1.3027030000
   24      H       1.0148630000    -1.4506280000    -0.3693950000
 ----------------------------------------------------------------

   10   -1180.7606684904      4.98e-07  Convergence criterion met
 Total energy in the final basis set =    -1180.7606684904
        RIMP2         total energy =     -1182.7653608943 a.u.

                    Orbital Energies (a.u.)
 --------------------------------------------------------------

 Alpha MOs
 -- Occupied --
-91.9822 -91.9471 -11.2896 -11.2654 -11.2622 -11.2552 -11.2498 -11.2445
-11.2327 -11.2307 -11.2276 -11.2230  -8.9822  -8.9515  -6.6632  -6.6626
 -6.6619  -6.6329  -6.6319  -6.6306  -1.2014  -1.1526  -1.0599  -1.0277
 -1.0064  -0.9574  -0.9163  -0.9016  -0.8143  -0.7712  -0.7198  -0.7050
 -0.6573  -0.6466  -0.6112  -0.5931  -0.5804  -0.5719  -0.5686  -0.5532
 -0.5419  -0.5333  -0.5153  -0.5085  -0.4889  -0.4869  -0.4588  -0.4464
 -0.3589  -0.3420  -0.3260  -0.2671

          Ground-State Mulliken Net Atomic Charges

     Atom                 Charge (a.u.)
  ----------------------------------------
      1 C                    -0.073029
      2 C                    -0.317977
      3 C                    -0.062771
      4 H                     0.179745
      5 C                     0.163297
      6 S                    -0.181529
      7 C                    -0.302350
      8 H                     0.119700
      9 H                     0.105289
     10 H                     0.120196
     11 C                    -0.057380
     12 C                    -0.293365
     13 C                     0.036851
     14 H                     0.180088
     15 C                    -0.271201
     16 S                     0.002956
     17 C                    -0.272762
     18 H                     0.102936
     19 H                     0.108124
     20 H                     0.108509
     21 H                     0.197125
     22 H                     0.112880
     23 H                     0.112422
     24 H                     0.182247
  ----------------------------------------
  Sum of atomic charges =     0.000000

                    Cartesian Multipole Moments
 -----------------------------------------------------------------
    Charge (ESU x 10^10)
                -0.0000
    Dipole Moment (Debye)
         X      -0.0522      Y      -0.3441      Z      -1.1951
       Tot       1.2447
    Quadrupole Moments (Debye-Ang)
        XX     -91.5779     XY      -0.2176     YY     -72.9900
        XZ       0.4586     YZ       5.1904     ZZ     -85.8084

 Total job time:  56.35s(wall), 1910.71s(cpu)
        *  Thank you very much for using Q-Chem.  Have a nice day.  *
