 Q-Chem 5.4, Q-Chem, Inc., Pleasanton, CA (2021)
 Q-Chem 5.4.0 for Intel X86 EM64T Linux

User input:
--------------------------------------------------------------
$molecule
0 1
C	0.713644	-3.887800	-0.124726
C	-0.650907	-3.701456	0.115824
C	-1.068646	-2.345170	0.188844
H	-1.346284	-4.545233	0.238841
C	0.000000	-1.450135	0.000000
S	1.504375	-2.321334	-0.264890
C	-2.492978	-1.934439	0.439816
H	-3.147582	-2.819799	0.555669
H	-2.899931	-1.326210	-0.394879
H	-2.589982	-1.325374	1.362799
C	0.000000	0.000000	0.000000
C	0.729909	0.424971	1.113020
C	1.932179	1.124518	0.820578
H	0.394478	0.229765	2.142881
C	2.146756	1.249161	-0.563588
S	0.838724	0.488500	-1.464748
C	2.852364	1.659924	1.882380
H	2.465145	1.434710	2.894974
H	2.970621	2.761183	1.808137
H	3.868160	1.218416	1.808230
H	2.974781	1.731032	-1.097114
H	0.887375	-4.420219	-1.066566
H	1.199130	-4.419395	0.701364
H	-0.187554	-1.450628	-1.063590
$end

$rem
JOBTYPE		SP
EXCHANGE	HF
CORRELATION	pRIMP2
BASIS		cc-pvtz
METHOD		rimp2
AUX_BASIS	rimp2-cc-pvtz
SOLVENT_METHOD	PCM
PURECART	11111
SYMMETRY	false
MEM_TOTAL	110000
SCF_CONVERGENCE = 6
THRESH=10
GUI = 2
$end

$solvent
dielectric 4.90
$end
--------------------------------------------------------------

             Standard Nuclear Orientation (Angstroms)
    I     Atom           X                Y                Z
 ----------------------------------------------------------------
    1      C       0.7136440000    -3.8878000000    -0.1247260000
    2      C      -0.6509070000    -3.7014560000     0.1158240000
    3      C      -1.0686460000    -2.3451700000     0.1888440000
    4      H      -1.3462840000    -4.5452330000     0.2388410000
    5      C       0.0000000000    -1.4501350000     0.0000000000
    6      S       1.5043750000    -2.3213340000    -0.2648900000
    7      C      -2.4929780000    -1.9344390000     0.4398160000
    8      H      -3.1475820000    -2.8197990000     0.5556690000
    9      H      -2.8999310000    -1.3262100000    -0.3948790000
   10      H      -2.5899820000    -1.3253740000     1.3627990000
   11      C       0.0000000000     0.0000000000     0.0000000000
   12      C       0.7299090000     0.4249710000     1.1130200000
   13      C       1.9321790000     1.1245180000     0.8205780000
   14      H       0.3944780000     0.2297650000     2.1428810000
   15      C       2.1467560000     1.2491610000    -0.5635880000
   16      S       0.8387240000     0.4885000000    -1.4647480000
   17      C       2.8523640000     1.6599240000     1.8823800000
   18      H       2.4651450000     1.4347100000     2.8949740000
   19      H       2.9706210000     2.7611830000     1.8081370000
   20      H       3.8681600000     1.2184160000     1.8082300000
   21      H       2.9747810000     1.7310320000    -1.0971140000
   22      H       0.8873750000    -4.4202190000    -1.0665660000
   23      H       1.1991300000    -4.4193950000     0.7013640000
   24      H      -0.1875540000    -1.4506280000    -1.0635900000
 ----------------------------------------------------------------

   10   -1180.6880300583      8.20e-07  Convergence criterion met
 Total energy in the final basis set =    -1180.6880300583
        RIMP2         total energy =     -1182.7079352809 a.u.

                    Orbital Energies (a.u.)
 --------------------------------------------------------------

 Alpha MOs
 -- Occupied --
-91.9804 -91.9315 -11.2905 -11.2601 -11.2545 -11.2517 -11.2491 -11.2468
-11.2359 -11.2300 -11.2281 -11.2103  -8.9814  -8.9368  -6.6622  -6.6614
 -6.6611  -6.6182  -6.6172  -6.6159  -1.2042  -1.1531  -1.0577  -1.0241
 -1.0000  -0.9645  -0.9091  -0.9008  -0.8071  -0.7594  -0.7481  -0.7034
 -0.6485  -0.6262  -0.6163  -0.5874  -0.5783  -0.5752  -0.5645  -0.5500
 -0.5403  -0.5326  -0.5049  -0.5036  -0.4894  -0.4680  -0.4566  -0.4405
 -0.3615  -0.3254  -0.3158  -0.2745

          Ground-State Mulliken Net Atomic Charges

     Atom                 Charge (a.u.)
  ----------------------------------------
      1 C                    -0.085383
      2 C                    -0.330861
      3 C                    -0.071089
      4 H                     0.173435
      5 C                     0.062237
      6 S                    -0.189917
      7 C                    -0.272165
      8 H                     0.111434
      9 H                     0.102248
     10 H                     0.102880
     11 C                    -0.173489
     12 C                    -0.083538
     13 C                    -0.023088
     14 H                     0.187856
     15 C                    -0.161643
     16 S                     0.021964
     17 C                    -0.269425
     18 H                     0.102946
     19 H                     0.108132
     20 H                     0.106560
     21 H                     0.202546
     22 H                     0.106345
     23 H                     0.110018
     24 H                     0.161997
  ----------------------------------------
  Sum of atomic charges =     0.000000

                    Cartesian Multipole Moments
 -----------------------------------------------------------------
    Charge (ESU x 10^10)
                -0.0000
    Dipole Moment (Debye)
         X       0.3745      Y       1.0945      Z       1.3974
       Tot       1.8141
    Quadrupole Moments (Debye-Ang)
        XX     -82.5708     XY       9.6220     YY     -84.4141
        XZ       0.2082     YZ       1.2185     ZZ     -84.8766

 Total job time:  55.37s(wall), 1958.18s(cpu)
        *  Thank you very much for using Q-Chem.  Have a nice day.  *
