 Q-Chem 5.4, Q-Chem, Inc., Pleasanton, CA (2021)
 Q-Chem 5.4.0 for Intel X86 EM64T Linux

User input:
--------------------------------------------------------------
$molecule
0 1
C	-0.681143	-3.887800	0.246754
C	0.620906	-3.701456	-0.227093
C	1.019618	-2.345170	-0.371543
H	1.284357	-4.545233	-0.468992
C	-0.000000	-1.450135	-0.000000
S	-1.435522	-2.321334	0.522097
C	2.378731	-1.934439	-0.866035
H	3.003272	-2.819799	-1.093799
H	2.924444	-1.326210	-0.114688
H	2.313987	-1.325374	-1.791841
C	0.000000	0.000000	0.000000
C	0.070542	0.841660	1.113020
C	0.187101	2.227746	0.820578
H	0.038051	0.454925	2.142881
C	0.208076	2.475009	-0.563588
S	0.080917	0.967235	-1.464748
C	0.276318	3.288613	1.882380
H	0.238704	2.842244	2.894974
H	-0.557951	4.017140	1.808137
H	1.220618	3.867466	1.808230
H	0.288286	3.429678	-1.097114
H	-0.688686	-4.420219	1.204454
H	-1.302703	-4.419395	-0.482482
H	0.369395	-1.450628	1.014863
$end

$rem
JOBTYPE		SP
EXCHANGE	HF
CORRELATION	pRIMP2
BASIS		cc-pvtz
METHOD		rimp2
AUX_BASIS	rimp2-cc-pvtz
SOLVENT_METHOD	PCM
PURECART	11111
SYMMETRY	false
MEM_TOTAL	110000
SCF_CONVERGENCE = 6
THRESH=10
GUI = 2
$end

$solvent
dielectric 4.90
$end
--------------------------------------------------------------

             Standard Nuclear Orientation (Angstroms)
    I     Atom           X                Y                Z
 ----------------------------------------------------------------
    1      C      -0.6811430000    -3.8878000000     0.2467540000
    2      C       0.6209060000    -3.7014560000    -0.2270930000
    3      C       1.0196180000    -2.3451700000    -0.3715430000
    4      H       1.2843570000    -4.5452330000    -0.4689920000
    5      C       0.0000000000    -1.4501350000     0.0000000000
    6      S      -1.4355220000    -2.3213340000     0.5220970000
    7      C       2.3787310000    -1.9344390000    -0.8660350000
    8      H       3.0032720000    -2.8197990000    -1.0937990000
    9      H       2.9244440000    -1.3262100000    -0.1146880000
   10      H       2.3139870000    -1.3253740000    -1.7918410000
   11      C       0.0000000000     0.0000000000     0.0000000000
   12      C       0.0705420000     0.8416600000     1.1130200000
   13      C       0.1871010000     2.2277460000     0.8205780000
   14      H       0.0380510000     0.4549250000     2.1428810000
   15      C       0.2080760000     2.4750090000    -0.5635880000
   16      S       0.0809170000     0.9672350000    -1.4647480000
   17      C       0.2763180000     3.2886130000     1.8823800000
   18      H       0.2387040000     2.8422440000     2.8949740000
   19      H      -0.5579510000     4.0171400000     1.8081370000
   20      H       1.2206180000     3.8674660000     1.8082300000
   21      H       0.2882860000     3.4296780000    -1.0971140000
   22      H      -0.6886860000    -4.4202190000     1.2044540000
   23      H      -1.3027030000    -4.4193950000    -0.4824820000
   24      H       0.3693950000    -1.4506280000     1.0148630000
 ----------------------------------------------------------------

   10   -1180.7641838807      4.98e-07  Convergence criterion met
 Total energy in the final basis set =    -1180.7641838807
        RIMP2         total energy =     -1182.7685953935 a.u.

                    Orbital Energies (a.u.)
 --------------------------------------------------------------

 Alpha MOs
 -- Occupied --
-91.9815 -91.9417 -11.2828 -11.2638 -11.2628 -11.2564 -11.2510 -11.2417
-11.2413 -11.2311 -11.2293 -11.2198  -8.9814  -8.9463  -6.6623  -6.6618
 -6.6612  -6.6277  -6.6267  -6.6254  -1.1976  -1.1537  -1.0573  -1.0250
 -1.0070  -0.9589  -0.9124  -0.9014  -0.8140  -0.7637  -0.7326  -0.7010
 -0.6610  -0.6411  -0.6106  -0.5881  -0.5795  -0.5723  -0.5670  -0.5505
 -0.5413  -0.5304  -0.5139  -0.5050  -0.4939  -0.4818  -0.4591  -0.4494
 -0.3557  -0.3423  -0.3152  -0.2781

          Ground-State Mulliken Net Atomic Charges

     Atom                 Charge (a.u.)
  ----------------------------------------
      1 C                    -0.077702
      2 C                    -0.328044
      3 C                    -0.018276
      4 H                     0.177716
      5 C                     0.083463
      6 S                    -0.178214
      7 C                    -0.268582
      8 H                     0.113857
      9 H                     0.104085
     10 H                     0.106530
     11 C                    -0.078530
     12 C                    -0.244329
     13 C                     0.022557
     14 H                     0.182077
     15 C                    -0.240779
     16 S                     0.007207
     17 C                    -0.271505
     18 H                     0.102424
     19 H                     0.108744
     20 H                     0.107931
     21 H                     0.197064
     22 H                     0.110820
     23 H                     0.112852
     24 H                     0.168632
  ----------------------------------------
  Sum of atomic charges =     0.000000

                    Cartesian Multipole Moments
 -----------------------------------------------------------------
    Charge (ESU x 10^10)
                -0.0000
    Dipole Moment (Debye)
         X       2.7110      Y       0.5070      Z       1.4294
       Tot       3.1064
    Quadrupole Moments (Debye-Ang)
        XX     -91.8807     XY      -3.1852     YY     -73.8467
        XZ      -0.1915     YZ       1.2220     ZZ     -85.8003

 Total job time:  54.30s(wall), 1910.34s(cpu)
        *  Thank you very much for using Q-Chem.  Have a nice day.  *
