 Q-Chem 5.4, Q-Chem, Inc., Pleasanton, CA (2021)
 Q-Chem 5.4.0 for Intel X86 EM64T Linux

User input:
--------------------------------------------------------------
$molecule
0 1
C	0.361285	-3.887800	0.627947
C	-0.331462	-3.701456	-0.572038
C	-0.542953	-2.345170	-0.939610
H	-0.684893	-4.545233	-1.183405
C	0.000000	-1.450135	0.000000
S	0.763441	-2.321334	1.323052
C	-1.265941	-1.934439	-2.192207
H	-1.598695	-2.819799	-2.767709
H	-0.620770	-1.326210	-2.860100
H	-2.166438	-1.325374	-1.967682
C	0.000000	0.000000	0.000000
C	0.419634	0.732990	1.113020
C	1.111057	1.939951	0.820578
H	0.226746	0.396221	2.142881
C	1.234565	2.155183	-0.563588
S	0.482106	0.842416	-1.464748
C	1.640257	2.863718	1.882380
H	1.417524	2.475067	2.894974
H	1.192042	3.876565	1.808137
H	2.740717	2.989259	1.808230
H	1.710720	2.986508	-1.097114
H	1.305744	-4.420219	0.469073
H	-0.248940	-4.419395	1.366694
H	0.935300	-1.450628	-0.540012
$end

$rem
JOBTYPE		SP
EXCHANGE	HF
CORRELATION	pRIMP2
BASIS		cc-pvtz
METHOD		rimp2
AUX_BASIS	rimp2-cc-pvtz
SOLVENT_METHOD	PCM
PURECART	11111
SYMMETRY	false
MEM_TOTAL	110000
SCF_CONVERGENCE = 6
THRESH=10
GUI = 2
$end

$solvent
dielectric 4.90
$end
--------------------------------------------------------------

             Standard Nuclear Orientation (Angstroms)
    I     Atom           X                Y                Z
 ----------------------------------------------------------------
    1      C       0.3612850000    -3.8878000000     0.6279470000
    2      C      -0.3314620000    -3.7014560000    -0.5720380000
    3      C      -0.5429530000    -2.3451700000    -0.9396100000
    4      H      -0.6848930000    -4.5452330000    -1.1834050000
    5      C       0.0000000000    -1.4501350000     0.0000000000
    6      S       0.7634410000    -2.3213340000     1.3230520000
    7      C      -1.2659410000    -1.9344390000    -2.1922070000
    8      H      -1.5986950000    -2.8197990000    -2.7677090000
    9      H      -0.6207700000    -1.3262100000    -2.8601000000
   10      H      -2.1664380000    -1.3253740000    -1.9676820000
   11      C       0.0000000000     0.0000000000     0.0000000000
   12      C       0.4196340000     0.7329900000     1.1130200000
   13      C       1.1110570000     1.9399510000     0.8205780000
   14      H       0.2267460000     0.3962210000     2.1428810000
   15      C       1.2345650000     2.1551830000    -0.5635880000
   16      S       0.4821060000     0.8424160000    -1.4647480000
   17      C       1.6402570000     2.8637180000     1.8823800000
   18      H       1.4175240000     2.4750670000     2.8949740000
   19      H       1.1920420000     3.8765650000     1.8081370000
   20      H       2.7407170000     2.9892590000     1.8082300000
   21      H       1.7107200000     2.9865080000    -1.0971140000
   22      H       1.3057440000    -4.4202190000     0.4690730000
   23      H      -0.2489400000    -4.4193950000     1.3666940000
   24      H       0.9353000000    -1.4506280000    -0.5400120000
 ----------------------------------------------------------------

   10   -1180.7469111031      5.00e-07  Convergence criterion met
 Total energy in the final basis set =    -1180.7469111031
        RIMP2         total energy =     -1182.7548830278 a.u.

                    Orbital Energies (a.u.)
 --------------------------------------------------------------

 Alpha MOs
 -- Occupied --
-91.9799 -91.9449 -11.2836 -11.2622 -11.2614 -11.2592 -11.2509 -11.2423
-11.2368 -11.2325 -11.2283 -11.2213  -8.9805  -8.9493  -6.6614  -6.6608
 -6.6601  -6.6307  -6.6297  -6.6284  -1.2021  -1.1534  -1.0596  -1.0271
 -1.0053  -0.9581  -0.9154  -0.9015  -0.8119  -0.7708  -0.7236  -0.7034
 -0.6562  -0.6441  -0.6119  -0.5915  -0.5787  -0.5744  -0.5692  -0.5527
 -0.5421  -0.5341  -0.5143  -0.5092  -0.4881  -0.4800  -0.4603  -0.4452
 -0.3575  -0.3431  -0.3260  -0.2665

          Ground-State Mulliken Net Atomic Charges

     Atom                 Charge (a.u.)
  ----------------------------------------
      1 C                    -0.076478
      2 C                    -0.315285
      3 C                    -0.057269
      4 H                     0.177345
      5 C                     0.108569
      6 S                    -0.183195
      7 C                    -0.292596
      8 H                     0.117394
      9 H                     0.106922
     10 H                     0.114969
     11 C                    -0.000349
     12 C                    -0.336459
     13 C                     0.060487
     14 H                     0.182361
     15 C                    -0.262387
     16 S                     0.002769
     17 C                    -0.269603
     18 H                     0.103267
     19 H                     0.108537
     20 H                     0.108867
     21 H                     0.196523
     22 H                     0.111508
     23 H                     0.110455
     24 H                     0.183648
  ----------------------------------------
  Sum of atomic charges =     0.000000

                    Cartesian Multipole Moments
 -----------------------------------------------------------------
    Charge (ESU x 10^10)
                -0.0000
    Dipole Moment (Debye)
         X       0.3492      Y      -0.0591      Z      -0.9194
       Tot       0.9853
    Quadrupole Moments (Debye-Ang)
        XX     -88.7928     XY       5.1220     YY     -75.7729
        XZ       0.9549     YZ       5.0755     ZZ     -86.0227

 Total job time:  55.30s(wall), 2007.68s(cpu)
        *  Thank you very much for using Q-Chem.  Have a nice day.  *
