 Q-Chem 5.4, Q-Chem, Inc., Pleasanton, CA (2021)
 Q-Chem 5.4.0 for Intel X86 EM64T Linux

User input:
--------------------------------------------------------------
$molecule
0 1
C	-0.713264	-3.887800	-0.126876
C	0.651267	-3.701456	0.113784
C	1.068787	-2.345170	0.188043
H	1.346782	-4.545233	0.236019
C	0.000000	-1.450135	0.000000
S	-1.504247	-2.321334	-0.265612
C	2.493059	-1.934439	0.439357
H	3.147809	-2.819799	0.554378
H	2.589987	-1.326210	1.362899
H	2.899892	-1.325374	-0.394786
C	0.000000	0.000000	0.000000
C	0.143630	0.832309	1.113020
C	0.380550	2.202961	0.820578
H	0.077556	0.449877	2.142881
C	0.422995	2.447456	-0.563588
S	0.164909	0.956502	-1.464748
C	0.561888	3.252016	1.882380
H	0.485513	2.810624	2.894974
H	-0.205711	4.050482	1.808137
H	1.553045	3.746365	1.808230
H	0.586105	3.391501	-1.097114
H	-1.198647	-4.420219	0.698744
H	-0.886933	-4.419395	-1.069193
H	-0.187526	-1.450628	1.063595
$end

$rem
JOBTYPE		SP
EXCHANGE	HF
CORRELATION	pRIMP2
BASIS		cc-pvtz
METHOD		rimp2
AUX_BASIS	rimp2-cc-pvtz
SOLVENT_METHOD	PCM
PURECART	11111
SYMMETRY	false
MEM_TOTAL	110000
SCF_CONVERGENCE = 6
THRESH=10
GUI = 2
$end

$solvent
dielectric 4.90
$end
--------------------------------------------------------------

             Standard Nuclear Orientation (Angstroms)
    I     Atom           X                Y                Z
 ----------------------------------------------------------------
    1      C      -0.7132640000    -3.8878000000    -0.1268760000
    2      C       0.6512670000    -3.7014560000     0.1137840000
    3      C       1.0687870000    -2.3451700000     0.1880430000
    4      H       1.3467820000    -4.5452330000     0.2360190000
    5      C       0.0000000000    -1.4501350000     0.0000000000
    6      S      -1.5042470000    -2.3213340000    -0.2656120000
    7      C       2.4930590000    -1.9344390000     0.4393570000
    8      H       3.1478090000    -2.8197990000     0.5543780000
    9      H       2.5899870000    -1.3262100000     1.3628990000
   10      H       2.8998920000    -1.3253740000    -0.3947860000
   11      C       0.0000000000     0.0000000000     0.0000000000
   12      C       0.1436300000     0.8323090000     1.1130200000
   13      C       0.3805500000     2.2029610000     0.8205780000
   14      H       0.0775560000     0.4498770000     2.1428810000
   15      C       0.4229950000     2.4474560000    -0.5635880000
   16      S       0.1649090000     0.9565020000    -1.4647480000
   17      C       0.5618880000     3.2520160000     1.8823800000
   18      H       0.4855130000     2.8106240000     2.8949740000
   19      H      -0.2057110000     4.0504820000     1.8081370000
   20      H       1.5530450000     3.7463650000     1.8082300000
   21      H       0.5861050000     3.3915010000    -1.0971140000
   22      H      -1.1986470000    -4.4202190000     0.6987440000
   23      H      -0.8869330000    -4.4193950000    -1.0691930000
   24      H      -0.1875260000    -1.4506280000     1.0635950000
 ----------------------------------------------------------------

   10   -1180.7641214652      5.05e-07  Convergence criterion met
 Total energy in the final basis set =    -1180.7641214652
        RIMP2         total energy =     -1182.7687182042 a.u.

                    Orbital Energies (a.u.)
 --------------------------------------------------------------

 Alpha MOs
 -- Occupied --
-91.9807 -91.9411 -11.2811 -11.2660 -11.2626 -11.2562 -11.2512 -11.2440
-11.2410 -11.2312 -11.2298 -11.2194  -8.9807  -8.9457  -6.6616  -6.6611
 -6.6605  -6.6271  -6.6261  -6.6248  -1.1973  -1.1540  -1.0571  -1.0254
 -1.0057  -0.9605  -0.9117  -0.9015  -0.8145  -0.7601  -0.7354  -0.7033
 -0.6601  -0.6409  -0.6109  -0.5896  -0.5804  -0.5715  -0.5651  -0.5507
 -0.5412  -0.5290  -0.5150  -0.5054  -0.4924  -0.4807  -0.4601  -0.4484
 -0.3556  -0.3414  -0.3136  -0.2820

          Ground-State Mulliken Net Atomic Charges

     Atom                 Charge (a.u.)
  ----------------------------------------
      1 C                    -0.077698
      2 C                    -0.329604
      3 C                    -0.013994
      4 H                     0.177084
      5 C                     0.075089
      6 S                    -0.177478
      7 C                    -0.267514
      8 H                     0.114460
      9 H                     0.100637
     10 H                     0.109074
     11 C                    -0.074230
     12 C                    -0.244929
     13 C                     0.021352
     14 H                     0.182029
     15 C                    -0.236447
     16 S                     0.005128
     17 C                    -0.271603
     18 H                     0.102074
     19 H                     0.108793
     20 H                     0.108098
     21 H                     0.197636
     22 H                     0.111267
     23 H                     0.111902
     24 H                     0.168875
  ----------------------------------------
  Sum of atomic charges =     0.000000

                    Cartesian Multipole Moments
 -----------------------------------------------------------------
    Charge (ESU x 10^10)
                -0.0000
    Dipole Moment (Debye)
         X       2.5919      Y       0.6300      Z       2.7381
       Tot       3.8226
    Quadrupole Moments (Debye-Ang)
        XX     -91.3637     XY      -1.6343     YY     -73.9815
        XZ      -0.0710     YZ      -0.8193     ZZ     -86.1705

 Total job time:  55.50s(wall), 1914.86s(cpu)
        *  Thank you very much for using Q-Chem.  Have a nice day.  *
