 Q-Chem 5.4, Q-Chem, Inc., Pleasanton, CA (2021)
 Q-Chem 5.4.0 for Intel X86 EM64T Linux

User input:
--------------------------------------------------------------
$molecule
0 1
C	-0.627947	-3.887800	0.361285
C	0.572038	-3.701456	-0.331462
C	0.939610	-2.345170	-0.542953
H	1.183405	-4.545233	-0.684893
C	-0.000000	-1.450135	-0.000000
S	-1.323052	-2.321334	0.763441
C	2.192207	-1.934439	-1.265941
H	2.767709	-2.819799	-1.598695
H	2.860100	-1.326210	-0.620770
H	1.967682	-1.325374	-2.166438
C	0.000000	0.000000	0.000000
C	0.540541	0.648986	1.113020
C	1.431046	1.717546	0.820578
H	0.292104	0.350827	2.142881
C	1.590053	1.908061	-0.563588
S	0.621066	0.745901	-1.464748
C	2.112618	2.535384	1.882380
H	1.825779	2.191315	2.894974
H	1.847090	3.610676	1.808137
H	3.218159	2.467925	1.808230
H	2.203332	2.644073	-1.097114
H	-0.469073	-4.420219	1.305744
H	-1.366694	-4.419395	-0.248940
H	0.540012	-1.450628	0.935300
$end

$rem
JOBTYPE		SP
EXCHANGE	HF
CORRELATION	pRIMP2
BASIS		cc-pvtz
METHOD		rimp2
AUX_BASIS	rimp2-cc-pvtz
SOLVENT_METHOD	PCM
PURECART	11111
SYMMETRY	false
MEM_TOTAL	110000
SCF_CONVERGENCE = 6
THRESH=10
GUI = 2
$end

$solvent
dielectric 4.90
$end
--------------------------------------------------------------

             Standard Nuclear Orientation (Angstroms)
    I     Atom           X                Y                Z
 ----------------------------------------------------------------
    1      C      -0.6279470000    -3.8878000000     0.3612850000
    2      C       0.5720380000    -3.7014560000    -0.3314620000
    3      C       0.9396100000    -2.3451700000    -0.5429530000
    4      H       1.1834050000    -4.5452330000    -0.6848930000
    5      C       0.0000000000    -1.4501350000     0.0000000000
    6      S      -1.3230520000    -2.3213340000     0.7634410000
    7      C       2.1922070000    -1.9344390000    -1.2659410000
    8      H       2.7677090000    -2.8197990000    -1.5986950000
    9      H       2.8601000000    -1.3262100000    -0.6207700000
   10      H       1.9676820000    -1.3253740000    -2.1664380000
   11      C       0.0000000000     0.0000000000     0.0000000000
   12      C       0.5405410000     0.6489860000     1.1130200000
   13      C       1.4310460000     1.7175460000     0.8205780000
   14      H       0.2921040000     0.3508270000     2.1428810000
   15      C       1.5900530000     1.9080610000    -0.5635880000
   16      S       0.6210660000     0.7459010000    -1.4647480000
   17      C       2.1126180000     2.5353840000     1.8823800000
   18      H       1.8257790000     2.1913150000     2.8949740000
   19      H       1.8470900000     3.6106760000     1.8081370000
   20      H       3.2181590000     2.4679250000     1.8082300000
   21      H       2.2033320000     2.6440730000    -1.0971140000
   22      H      -0.4690730000    -4.4202190000     1.3057440000
   23      H      -1.3666940000    -4.4193950000    -0.2489400000
   24      H       0.5400120000    -1.4506280000     0.9353000000
 ----------------------------------------------------------------

   10   -1180.7198764202      8.01e-07  Convergence criterion met
 Total energy in the final basis set =    -1180.7198764202
        RIMP2         total energy =     -1182.7370585359 a.u.

                    Orbital Energies (a.u.)
 --------------------------------------------------------------

 Alpha MOs
 -- Occupied --
-91.9819 -91.9365 -11.2726 -11.2715 -11.2615 -11.2522 -11.2518 -11.2458
-11.2388 -11.2303 -11.2271 -11.2166  -8.9821  -8.9414  -6.6629  -6.6623
 -6.6619  -6.6228  -6.6218  -6.6205  -1.2008  -1.1533  -1.0578  -1.0225
 -1.0088  -0.9582  -0.9097  -0.9033  -0.8082  -0.7651  -0.7349  -0.6999
 -0.6603  -0.6388  -0.6102  -0.5866  -0.5810  -0.5744  -0.5669  -0.5524
 -0.5421  -0.5277  -0.5184  -0.5064  -0.4936  -0.4648  -0.4572  -0.4447
 -0.3524  -0.3438  -0.3180  -0.2668

          Ground-State Mulliken Net Atomic Charges

     Atom                 Charge (a.u.)
  ----------------------------------------
      1 C                    -0.070782
      2 C                    -0.334198
      3 C                    -0.033205
      4 H                     0.177087
      5 C                     0.068847
      6 S                    -0.201106
      7 C                    -0.284208
      8 H                     0.114416
      9 H                     0.108973
     10 H                     0.115186
     11 C                    -0.076666
     12 C                    -0.215712
     13 C                     0.013830
     14 H                     0.183143
     15 C                    -0.227063
     16 S                     0.016508
     17 C                    -0.268571
     18 H                     0.102826
     19 H                     0.108156
     20 H                     0.106121
     21 H                     0.198149
     22 H                     0.107709
     23 H                     0.109199
     24 H                     0.181359
  ----------------------------------------
  Sum of atomic charges =     0.000000

                    Cartesian Multipole Moments
 -----------------------------------------------------------------
    Charge (ESU x 10^10)
                -0.0000
    Dipole Moment (Debye)
         X       4.0461      Y       0.7228      Z       0.8476
       Tot       4.1967
    Quadrupole Moments (Debye-Ang)
        XX     -87.7610     XY       1.4635     YY     -79.6743
        XZ       0.4673     YZ       1.6726     ZZ     -85.1372

 Total job time:  60.54s(wall), 1964.44s(cpu)
        *  Thank you very much for using Q-Chem.  Have a nice day.  *
