 Q-Chem 5.4, Q-Chem, Inc., Pleasanton, CA (2021)
 Q-Chem 5.4.0 for Intel X86 EM64T Linux

User input:
--------------------------------------------------------------
$molecule
0 1
C	-0.246754	-3.887800	-0.681143
C	0.227093	-3.701456	0.620906
C	0.371543	-2.345170	1.019618
H	0.468992	-4.545233	1.284357
C	0.000000	-1.450135	0.000000
S	-0.522097	-2.321334	-1.435522
C	0.866035	-1.934439	2.378731
H	1.093799	-2.819799	3.003272
H	0.114688	-1.326210	2.924444
H	1.791841	-1.325374	2.313987
C	0.000000	0.000000	0.000000
C	0.143630	0.832309	1.113020
C	0.380550	2.202961	0.820578
H	0.077556	0.449877	2.142881
C	0.422995	2.447456	-0.563588
S	0.164909	0.956502	-1.464748
C	0.561888	3.252016	1.882380
H	0.485513	2.810624	2.894974
H	-0.205711	4.050482	1.808137
H	1.553045	3.746365	1.808230
H	0.586105	3.391501	-1.097114
H	-1.204454	-4.420219	-0.688686
H	0.482482	-4.419395	-1.302703
H	-1.014863	-1.450628	0.369395
$end

$rem
JOBTYPE		SP
EXCHANGE	HF
CORRELATION	pRIMP2
BASIS		cc-pvtz
METHOD		rimp2
AUX_BASIS	rimp2-cc-pvtz
SOLVENT_METHOD	PCM
PURECART	11111
SYMMETRY	false
MEM_TOTAL	110000
SCF_CONVERGENCE = 6
THRESH=10
GUI = 2
$end

$solvent
dielectric 4.90
$end
--------------------------------------------------------------

             Standard Nuclear Orientation (Angstroms)
    I     Atom           X                Y                Z
 ----------------------------------------------------------------
    1      C      -0.2467540000    -3.8878000000    -0.6811430000
    2      C       0.2270930000    -3.7014560000     0.6209060000
    3      C       0.3715430000    -2.3451700000     1.0196180000
    4      H       0.4689920000    -4.5452330000     1.2843570000
    5      C       0.0000000000    -1.4501350000     0.0000000000
    6      S      -0.5220970000    -2.3213340000    -1.4355220000
    7      C       0.8660350000    -1.9344390000     2.3787310000
    8      H       1.0937990000    -2.8197990000     3.0032720000
    9      H       0.1146880000    -1.3262100000     2.9244440000
   10      H       1.7918410000    -1.3253740000     2.3139870000
   11      C       0.0000000000     0.0000000000     0.0000000000
   12      C       0.1436300000     0.8323090000     1.1130200000
   13      C       0.3805500000     2.2029610000     0.8205780000
   14      H       0.0775560000     0.4498770000     2.1428810000
   15      C       0.4229950000     2.4474560000    -0.5635880000
   16      S       0.1649090000     0.9565020000    -1.4647480000
   17      C       0.5618880000     3.2520160000     1.8823800000
   18      H       0.4855130000     2.8106240000     2.8949740000
   19      H      -0.2057110000     4.0504820000     1.8081370000
   20      H       1.5530450000     3.7463650000     1.8082300000
   21      H       0.5861050000     3.3915010000    -1.0971140000
   22      H      -1.2044540000    -4.4202190000    -0.6886860000
   23      H       0.4824820000    -4.4193950000    -1.3027030000
   24      H      -1.0148630000    -1.4506280000     0.3693950000
 ----------------------------------------------------------------

   10   -1180.7546267354      5.01e-07  Convergence criterion met
 Total energy in the final basis set =    -1180.7546267354
        RIMP2         total energy =     -1182.7614563324 a.u.

                    Orbital Energies (a.u.)
 --------------------------------------------------------------

 Alpha MOs
 -- Occupied --
-91.9836 -91.9461 -11.2887 -11.2661 -11.2610 -11.2552 -11.2503 -11.2446
-11.2336 -11.2301 -11.2285 -11.2230  -8.9832  -8.9507  -6.6642  -6.6636
 -6.6630  -6.6321  -6.6311  -6.6298  -1.2011  -1.1525  -1.0590  -1.0310
 -1.0020  -0.9613  -0.9159  -0.9000  -0.8173  -0.7621  -0.7265  -0.7082
 -0.6576  -0.6479  -0.6111  -0.5936  -0.5875  -0.5694  -0.5591  -0.5525
 -0.5428  -0.5345  -0.5230  -0.5020  -0.4850  -0.4824  -0.4671  -0.4451
 -0.3599  -0.3431  -0.3238  -0.2654

          Ground-State Mulliken Net Atomic Charges

     Atom                 Charge (a.u.)
  ----------------------------------------
      1 C                    -0.073480
      2 C                    -0.314443
      3 C                    -0.070257
      4 H                     0.179743
      5 C                     0.142024
      6 S                    -0.179702
      7 C                    -0.296317
      8 H                     0.121685
      9 H                     0.098531
     10 H                     0.118438
     11 C                    -0.054481
     12 C                    -0.289018
     13 C                     0.042723
     14 H                     0.190225
     15 C                    -0.278396
     16 S                     0.012825
     17 C                    -0.273035
     18 H                     0.100704
     19 H                     0.108536
     20 H                     0.108621
     21 H                     0.195756
     22 H                     0.112197
     23 H                     0.112856
     24 H                     0.184267
  ----------------------------------------
  Sum of atomic charges =     0.000000

                    Cartesian Multipole Moments
 -----------------------------------------------------------------
    Charge (ESU x 10^10)
                -0.0000
    Dipole Moment (Debye)
         X       0.2571      Y      -0.3412      Z       3.9776
       Tot       4.0005
    Quadrupole Moments (Debye-Ang)
        XX     -91.2475     XY       1.8891     YY     -73.3914
        XZ       0.5753     YZ      -2.6648     ZZ     -85.9572

 Total job time:  54.76s(wall), 1934.80s(cpu)
        *  Thank you very much for using Q-Chem.  Have a nice day.  *
