 Q-Chem 5.4, Q-Chem, Inc., Pleasanton, CA (2021)
 Q-Chem 5.4.0 for Intel X86 EM64T Linux

User input:
--------------------------------------------------------------
$molecule
0 1
C	-0.713264	-3.887800	-0.126876
C	0.651267	-3.701456	0.113784
C	1.068787	-2.345170	0.188043
H	1.346782	-4.545233	0.236019
C	0.000000	-1.450135	0.000000
S	-1.504247	-2.321334	-0.265612
C	2.493059	-1.934439	0.439357
H	3.147809	-2.819799	0.554378
H	2.589987	-1.326210	1.362899
H	2.899892	-1.325374	-0.394786
C	0.000000	0.000000	0.000000
C	-0.003081	0.844605	1.113020
C	-0.007772	2.235575	0.820578
H	-0.001743	0.456510	2.142881
C	-0.008427	2.483726	-0.563588
S	-0.003691	0.970607	-1.464748
C	-0.011355	3.300181	1.882380
H	-0.009922	2.852233	2.894974
H	-0.905944	3.953225	1.808137
H	0.878901	3.959133	1.808230
H	-0.011727	3.441752	-1.097114
H	-1.198647	-4.420219	0.698744
H	-0.886933	-4.419395	-1.069193
H	-0.187526	-1.450628	1.063595
$end

$rem
JOBTYPE		SP
EXCHANGE	HF
CORRELATION	pRIMP2
BASIS		cc-pvtz
METHOD		rimp2
AUX_BASIS	rimp2-cc-pvtz
SOLVENT_METHOD	PCM
PURECART	11111
SYMMETRY	false
MEM_TOTAL	110000
SCF_CONVERGENCE = 6
THRESH=10
GUI = 2
$end

$solvent
dielectric 4.90
$end
--------------------------------------------------------------

             Standard Nuclear Orientation (Angstroms)
    I     Atom           X                Y                Z
 ----------------------------------------------------------------
    1      C      -0.7132640000    -3.8878000000    -0.1268760000
    2      C       0.6512670000    -3.7014560000     0.1137840000
    3      C       1.0687870000    -2.3451700000     0.1880430000
    4      H       1.3467820000    -4.5452330000     0.2360190000
    5      C       0.0000000000    -1.4501350000     0.0000000000
    6      S      -1.5042470000    -2.3213340000    -0.2656120000
    7      C       2.4930590000    -1.9344390000     0.4393570000
    8      H       3.1478090000    -2.8197990000     0.5543780000
    9      H       2.5899870000    -1.3262100000     1.3628990000
   10      H       2.8998920000    -1.3253740000    -0.3947860000
   11      C       0.0000000000     0.0000000000     0.0000000000
   12      C      -0.0030810000     0.8446050000     1.1130200000
   13      C      -0.0077720000     2.2355750000     0.8205780000
   14      H      -0.0017430000     0.4565100000     2.1428810000
   15      C      -0.0084270000     2.4837260000    -0.5635880000
   16      S      -0.0036910000     0.9706070000    -1.4647480000
   17      C      -0.0113550000     3.3001810000     1.8823800000
   18      H      -0.0099220000     2.8522330000     2.8949740000
   19      H      -0.9059440000     3.9532250000     1.8081370000
   20      H       0.8789010000     3.9591330000     1.8082300000
   21      H      -0.0117270000     3.4417520000    -1.0971140000
   22      H      -1.1986470000    -4.4202190000     0.6987440000
   23      H      -0.8869330000    -4.4193950000    -1.0691930000
   24      H      -0.1875260000    -1.4506280000     1.0635950000
 ----------------------------------------------------------------

   10   -1180.7659722542      4.99e-07  Convergence criterion met
 Total energy in the final basis set =    -1180.7659722542
        RIMP2         total energy =     -1182.7697946933 a.u.

                    Orbital Energies (a.u.)
 --------------------------------------------------------------

 Alpha MOs
 -- Occupied --
-91.9808 -91.9420 -11.2820 -11.2650 -11.2624 -11.2564 -11.2509 -11.2431
-11.2413 -11.2314 -11.2295 -11.2193  -8.9807  -8.9466  -6.6616  -6.6611
 -6.6606  -6.6280  -6.6270  -6.6257  -1.1973  -1.1538  -1.0570  -1.0258
 -1.0055  -0.9603  -0.9119  -0.9013  -0.8150  -0.7600  -0.7350  -0.7029
 -0.6605  -0.6411  -0.6107  -0.5894  -0.5806  -0.5711  -0.5652  -0.5505
 -0.5412  -0.5294  -0.5133  -0.5056  -0.4929  -0.4823  -0.4601  -0.4489
 -0.3562  -0.3409  -0.3134  -0.2821

          Ground-State Mulliken Net Atomic Charges

     Atom                 Charge (a.u.)
  ----------------------------------------
      1 C                    -0.077137
      2 C                    -0.330105
      3 C                    -0.020969
      4 H                     0.177167
      5 C                     0.084734
      6 S                    -0.175590
      7 C                    -0.266771
      8 H                     0.113840
      9 H                     0.100209
     10 H                     0.108009
     11 C                    -0.081780
     12 C                    -0.237881
     13 C                     0.017715
     14 H                     0.181262
     15 C                    -0.236340
     16 S                     0.006349
     17 C                    -0.271927
     18 H                     0.102074
     19 H                     0.108865
     20 H                     0.108005
     21 H                     0.197304
     22 H                     0.111596
     23 H                     0.112277
     24 H                     0.169095
  ----------------------------------------
  Sum of atomic charges =     0.000000

                    Cartesian Multipole Moments
 -----------------------------------------------------------------
    Charge (ESU x 10^10)
                -0.0000
    Dipole Moment (Debye)
         X       2.2462      Y       0.5805      Z       2.7159
       Tot       3.5719
    Quadrupole Moments (Debye-Ang)
        XX     -91.6270     XY      -3.4227     YY     -73.6655
        XZ      -0.2825     YZ      -0.7848     ZZ     -86.1724

 Total job time:  61.70s(wall), 1851.44s(cpu)
        *  Thank you very much for using Q-Chem.  Have a nice day.  *
