 Q-Chem 5.4, Q-Chem, Inc., Pleasanton, CA (2021)
 Q-Chem 5.4.0 for Intel X86 EM64T Linux

User input:
--------------------------------------------------------------
$molecule
0 1
C	0.001092	-3.887800	-0.724460
C	0.001036	-3.701456	0.661131
C	0.000406	-2.345170	1.085203
H	0.001433	-4.545233	1.367305
C	0.000000	-1.450135	0.000000
S	0.000367	-2.321334	-1.527517
C	0.000233	-1.934439	2.531478
H	0.000656	-2.819799	3.196254
H	-0.892447	-1.326210	2.787305
H	0.892350	-1.325374	2.787282
C	0.000000	0.000000	0.000000
C	0.419634	0.732990	1.113020
C	1.111057	1.939951	0.820578
H	0.226746	0.396221	2.142881
C	1.234565	2.155183	-0.563588
S	0.482106	0.842416	-1.464748
C	1.640257	2.863718	1.882380
H	1.417524	2.475067	2.894974
H	1.192042	3.876565	1.808137
H	2.740717	2.989259	1.808230
H	1.710720	2.986508	-1.097114
H	-0.896272	-4.420219	-1.059101
H	0.898936	-4.419395	-1.059122
H	-1.080000	-1.450628	0.000014
$end

$rem
JOBTYPE		SP
EXCHANGE	HF
CORRELATION	pRIMP2
BASIS		cc-pvtz
METHOD		rimp2
AUX_BASIS	rimp2-cc-pvtz
SOLVENT_METHOD	PCM
PURECART	11111
SYMMETRY	false
MEM_TOTAL	110000
SCF_CONVERGENCE = 6
THRESH=10
GUI = 2
$end

$solvent
dielectric 4.90
$end
--------------------------------------------------------------

             Standard Nuclear Orientation (Angstroms)
    I     Atom           X                Y                Z
 ----------------------------------------------------------------
    1      C       0.0010920000    -3.8878000000    -0.7244600000
    2      C       0.0010360000    -3.7014560000     0.6611310000
    3      C       0.0004060000    -2.3451700000     1.0852030000
    4      H       0.0014330000    -4.5452330000     1.3673050000
    5      C       0.0000000000    -1.4501350000     0.0000000000
    6      S       0.0003670000    -2.3213340000    -1.5275170000
    7      C       0.0002330000    -1.9344390000     2.5314780000
    8      H       0.0006560000    -2.8197990000     3.1962540000
    9      H      -0.8924470000    -1.3262100000     2.7873050000
   10      H       0.8923500000    -1.3253740000     2.7872820000
   11      C       0.0000000000     0.0000000000     0.0000000000
   12      C       0.4196340000     0.7329900000     1.1130200000
   13      C       1.1110570000     1.9399510000     0.8205780000
   14      H       0.2267460000     0.3962210000     2.1428810000
   15      C       1.2345650000     2.1551830000    -0.5635880000
   16      S       0.4821060000     0.8424160000    -1.4647480000
   17      C       1.6402570000     2.8637180000     1.8823800000
   18      H       1.4175240000     2.4750670000     2.8949740000
   19      H       1.1920420000     3.8765650000     1.8081370000
   20      H       2.7407170000     2.9892590000     1.8082300000
   21      H       1.7107200000     2.9865080000    -1.0971140000
   22      H      -0.8962720000    -4.4202190000    -1.0591010000
   23      H       0.8989360000    -4.4193950000    -1.0591220000
   24      H      -1.0800000000    -1.4506280000     0.0000140000
 ----------------------------------------------------------------

   10   -1180.7314168998      5.96e-07  Convergence criterion met
 Total energy in the final basis set =    -1180.7314168998
        RIMP2         total energy =     -1182.7443599909 a.u.

                    Orbital Energies (a.u.)
 --------------------------------------------------------------

 Alpha MOs
 -- Occupied --
-91.9822 -91.9451 -11.2813 -11.2652 -11.2603 -11.2572 -11.2500 -11.2433
-11.2335 -11.2332 -11.2285 -11.2204  -8.9821  -8.9497  -6.6631  -6.6624
 -6.6619  -6.6311  -6.6301  -6.6288  -1.2007  -1.1525  -1.0581  -1.0318
 -1.0001  -0.9625  -0.9158  -0.9000  -0.8158  -0.7608  -0.7293  -0.7087
 -0.6534  -0.6462  -0.6102  -0.5947  -0.5871  -0.5686  -0.5620  -0.5479
 -0.5460  -0.5347  -0.5241  -0.5020  -0.4835  -0.4748  -0.4674  -0.4420
 -0.3607  -0.3422  -0.3237  -0.2603

          Ground-State Mulliken Net Atomic Charges

     Atom                 Charge (a.u.)
  ----------------------------------------
      1 C                    -0.075282
      2 C                    -0.320847
      3 C                    -0.046072
      4 H                     0.179055
      5 C                     0.103883
      6 S                    -0.181346
      7 C                    -0.299001
      8 H                     0.122222
      9 H                     0.105295
     10 H                     0.107588
     11 C                    -0.043433
     12 C                    -0.281699
     13 C                     0.045675
     14 H                     0.191718
     15 C                    -0.265820
     16 S                     0.012321
     17 C                    -0.270455
     18 H                     0.100514
     19 H                     0.108666
     20 H                     0.107763
     21 H                     0.197414
     22 H                     0.111093
     23 H                     0.113075
     24 H                     0.177673
  ----------------------------------------
  Sum of atomic charges =     0.000000

                    Cartesian Multipole Moments
 -----------------------------------------------------------------
    Charge (ESU x 10^10)
                -0.0000
    Dipole Moment (Debye)
         X      -0.0241      Y      -0.1082      Z       3.8679
       Tot       3.8695
    Quadrupole Moments (Debye-Ang)
        XX     -89.2211     XY       5.8798     YY     -76.0979
        XZ       0.8453     YZ      -2.5449     ZZ     -85.5514

 Total job time:  55.21s(wall), 1948.45s(cpu)
        *  Thank you very much for using Q-Chem.  Have a nice day.  *
