 Q-Chem 5.4, Q-Chem, Inc., Pleasanton, CA (2021)
 Q-Chem 5.4.0 for Intel X86 EM64T Linux

User input:
--------------------------------------------------------------
$molecule
0 1
C	-0.363176	-3.887800	0.626855
C	0.329669	-3.701456	-0.573074
C	0.542250	-2.345170	-0.940016
H	0.682412	-4.545233	-1.184837
C	0.000000	-1.450135	0.000000
S	-0.764076	-2.321334	1.322686
C	1.265537	-1.934439	-2.192440
H	1.597559	-2.819799	-2.768365
H	2.166534	-1.326210	-1.967653
H	0.620843	-1.325374	-2.860032
C	0.000000	0.000000	0.000000
C	0.419634	0.732990	1.113020
C	1.111057	1.939951	0.820578
H	0.226746	0.396221	2.142881
C	1.234565	2.155183	-0.563588
S	0.482106	0.842416	-1.464748
C	1.640257	2.863718	1.882380
H	1.417524	2.475067	2.894974
H	1.192042	3.876565	1.808137
H	2.740717	2.989259	1.808230
H	1.710720	2.986508	-1.097114
H	0.246643	-4.420219	1.365344
H	-1.308062	-4.419395	0.467758
H	0.935314	-1.450628	0.539988
$end

$rem
JOBTYPE		SP
EXCHANGE	HF
CORRELATION	pRIMP2
BASIS		cc-pvtz
METHOD		rimp2
AUX_BASIS	rimp2-cc-pvtz
SOLVENT_METHOD	PCM
PURECART	11111
SYMMETRY	false
MEM_TOTAL	110000
SCF_CONVERGENCE = 6
THRESH=10
GUI = 2
$end

$solvent
dielectric 4.90
$end
--------------------------------------------------------------

             Standard Nuclear Orientation (Angstroms)
    I     Atom           X                Y                Z
 ----------------------------------------------------------------
    1      C      -0.3631760000    -3.8878000000     0.6268550000
    2      C       0.3296690000    -3.7014560000    -0.5730740000
    3      C       0.5422500000    -2.3451700000    -0.9400160000
    4      H       0.6824120000    -4.5452330000    -1.1848370000
    5      C       0.0000000000    -1.4501350000     0.0000000000
    6      S      -0.7640760000    -2.3213340000     1.3226860000
    7      C       1.2655370000    -1.9344390000    -2.1924400000
    8      H       1.5975590000    -2.8197990000    -2.7683650000
    9      H       2.1665340000    -1.3262100000    -1.9676530000
   10      H       0.6208430000    -1.3253740000    -2.8600320000
   11      C       0.0000000000     0.0000000000     0.0000000000
   12      C       0.4196340000     0.7329900000     1.1130200000
   13      C       1.1110570000     1.9399510000     0.8205780000
   14      H       0.2267460000     0.3962210000     2.1428810000
   15      C       1.2345650000     2.1551830000    -0.5635880000
   16      S       0.4821060000     0.8424160000    -1.4647480000
   17      C       1.6402570000     2.8637180000     1.8823800000
   18      H       1.4175240000     2.4750670000     2.8949740000
   19      H       1.1920420000     3.8765650000     1.8081370000
   20      H       2.7407170000     2.9892590000     1.8082300000
   21      H       1.7107200000     2.9865080000    -1.0971140000
   22      H       0.2466430000    -4.4202190000     1.3653440000
   23      H      -1.3080620000    -4.4193950000     0.4677580000
   24      H       0.9353140000    -1.4506280000     0.5399880000
 ----------------------------------------------------------------

   10   -1180.7350235124      5.78e-07  Convergence criterion met
 Total energy in the final basis set =    -1180.7350235124
        RIMP2         total energy =     -1182.7478633056 a.u.

                    Orbital Energies (a.u.)
 --------------------------------------------------------------

 Alpha MOs
 -- Occupied --
-91.9814 -91.9430 -11.2837 -11.2637 -11.2595 -11.2583 -11.2505 -11.2425
-11.2334 -11.2297 -11.2284 -11.2198  -8.9817  -8.9477  -6.6625  -6.6619
 -6.6614  -6.6291  -6.6281  -6.6268  -1.2018  -1.1523  -1.0589  -1.0261
 -1.0073  -0.9557  -0.9132  -0.9027  -0.8102  -0.7698  -0.7227  -0.7009
 -0.6625  -0.6441  -0.6108  -0.5850  -0.5819  -0.5740  -0.5685  -0.5535
 -0.5419  -0.5310  -0.5153  -0.5120  -0.4926  -0.4734  -0.4543  -0.4462
 -0.3561  -0.3409  -0.3233  -0.2636

          Ground-State Mulliken Net Atomic Charges

     Atom                 Charge (a.u.)
  ----------------------------------------
      1 C                    -0.071920
      2 C                    -0.323313
      3 C                    -0.035865
      4 H                     0.179009
      5 C                     0.057369
      6 S                    -0.185472
      7 C                    -0.289543
      8 H                     0.113136
      9 H                     0.114146
     10 H                     0.108798
     11 C                    -0.023598
     12 C                    -0.268064
     13 C                     0.028949
     14 H                     0.181657
     15 C                    -0.260039
     16 S                     0.014602
     17 C                    -0.269897
     18 H                     0.102902
     19 H                     0.108393
     20 H                     0.106586
     21 H                     0.197421
     22 H                     0.110004
     23 H                     0.112660
     24 H                     0.192078
  ----------------------------------------
  Sum of atomic charges =     0.000000

                    Cartesian Multipole Moments
 -----------------------------------------------------------------
    Charge (ESU x 10^10)
                -0.0000
    Dipole Moment (Debye)
         X       2.8285      Y      -0.0557      Z      -0.4298
       Tot       2.8616
    Quadrupole Moments (Debye-Ang)
        XX     -89.3796     XY       1.3246     YY     -77.0010
        XZ       0.5676     YZ       3.3358     ZZ     -85.2799

 Total job time:  57.14s(wall), 1957.47s(cpu)
        *  Thank you very much for using Q-Chem.  Have a nice day.  *
