 Q-Chem 5.4, Q-Chem, Inc., Pleasanton, CA (2021)
 Q-Chem 5.4.0 for Intel X86 EM64T Linux

User input:
--------------------------------------------------------------
$molecule
0 1
C	-0.464838	-3.887800	-0.555670
C	0.425760	-3.701456	0.505790
C	0.697866	-2.345170	0.831053
H	0.879984	-4.545233	1.046496
C	0.000000	-1.450135	0.000000
S	-0.981588	-2.321334	-1.170382
C	1.627381	-1.934439	1.939074
H	2.055015	-2.819799	2.448051
H	1.107991	-1.326210	2.708853
H	2.475210	-1.325374	1.561590
C	0.000000	0.000000	0.000000
C	0.143630	0.832309	1.113020
C	0.380550	2.202961	0.820578
H	0.077556	0.449877	2.142881
C	0.422995	2.447456	-0.563588
S	0.164909	0.956502	-1.464748
C	0.561888	3.252016	1.882380
H	0.485513	2.810624	2.894974
H	-0.205711	4.050482	1.808137
H	1.553045	3.746365	1.808230
H	0.586105	3.391501	-1.097114
H	-1.367361	-4.420219	-0.235206
H	0.007834	-4.419395	-1.389159
H	-0.827319	-1.450628	0.694221
$end

$rem
JOBTYPE		SP
EXCHANGE	HF
CORRELATION	pRIMP2
BASIS		cc-pvtz
METHOD		rimp2
AUX_BASIS	rimp2-cc-pvtz
SOLVENT_METHOD	PCM
PURECART	11111
SYMMETRY	false
MEM_TOTAL	110000
SCF_CONVERGENCE = 6
THRESH=10
GUI = 2
$end

$solvent
dielectric 4.90
$end
--------------------------------------------------------------

             Standard Nuclear Orientation (Angstroms)
    I     Atom           X                Y                Z
 ----------------------------------------------------------------
    1      C      -0.4648380000    -3.8878000000    -0.5556700000
    2      C       0.4257600000    -3.7014560000     0.5057900000
    3      C       0.6978660000    -2.3451700000     0.8310530000
    4      H       0.8799840000    -4.5452330000     1.0464960000
    5      C       0.0000000000    -1.4501350000     0.0000000000
    6      S      -0.9815880000    -2.3213340000    -1.1703820000
    7      C       1.6273810000    -1.9344390000     1.9390740000
    8      H       2.0550150000    -2.8197990000     2.4480510000
    9      H       1.1079910000    -1.3262100000     2.7088530000
   10      H       2.4752100000    -1.3253740000     1.5615900000
   11      C       0.0000000000     0.0000000000     0.0000000000
   12      C       0.1436300000     0.8323090000     1.1130200000
   13      C       0.3805500000     2.2029610000     0.8205780000
   14      H       0.0775560000     0.4498770000     2.1428810000
   15      C       0.4229950000     2.4474560000    -0.5635880000
   16      S       0.1649090000     0.9565020000    -1.4647480000
   17      C       0.5618880000     3.2520160000     1.8823800000
   18      H       0.4855130000     2.8106240000     2.8949740000
   19      H      -0.2057110000     4.0504820000     1.8081370000
   20      H       1.5530450000     3.7463650000     1.8082300000
   21      H       0.5861050000     3.3915010000    -1.0971140000
   22      H      -1.3673610000    -4.4202190000    -0.2352060000
   23      H       0.0078340000    -4.4193950000    -1.3891590000
   24      H      -0.8273190000    -1.4506280000     0.6942210000
 ----------------------------------------------------------------

   10   -1180.7588243534      5.01e-07  Convergence criterion met
 Total energy in the final basis set =    -1180.7588243534
        RIMP2         total energy =     -1182.7650655400 a.u.

                    Orbital Energies (a.u.)
 --------------------------------------------------------------

 Alpha MOs
 -- Occupied --
-91.9825 -91.9445 -11.2859 -11.2647 -11.2591 -11.2591 -11.2510 -11.2431
-11.2358 -11.2323 -11.2291 -11.2214  -8.9822  -8.9491  -6.6631  -6.6625
 -6.6620  -6.6305  -6.6295  -6.6282  -1.1995  -1.1531  -1.0583  -1.0288
 -1.0031  -0.9613  -0.9137  -0.9007  -0.8165  -0.7609  -0.7289  -0.7070
 -0.6587  -0.6452  -0.6112  -0.5915  -0.5857  -0.5703  -0.5597  -0.5539
 -0.5417  -0.5323  -0.5189  -0.5049  -0.4852  -0.4831  -0.4641  -0.4470
 -0.3574  -0.3424  -0.3217  -0.2703

          Ground-State Mulliken Net Atomic Charges

     Atom                 Charge (a.u.)
  ----------------------------------------
      1 C                    -0.074148
      2 C                    -0.320597
      3 C                    -0.055921
      4 H                     0.178657
      5 C                     0.120464
      6 S                    -0.177471
      7 C                    -0.280427
      8 H                     0.118798
      9 H                     0.096732
     10 H                     0.115157
     11 C                    -0.064581
     12 C                    -0.274413
     13 C                     0.030267
     14 H                     0.189977
     15 C                    -0.259178
     16 S                     0.010927
     17 C                    -0.273029
     18 H                     0.101262
     19 H                     0.108852
     20 H                     0.108503
     21 H                     0.196400
     22 H                     0.112096
     23 H                     0.111559
     24 H                     0.180115
  ----------------------------------------
  Sum of atomic charges =     0.000000

                    Cartesian Multipole Moments
 -----------------------------------------------------------------
    Charge (ESU x 10^10)
                -0.0000
    Dipole Moment (Debye)
         X       1.1918      Y       0.0429      Z       3.8496
       Tot       4.0301
    Quadrupole Moments (Debye-Ang)
        XX     -91.0920     XY       0.6142     YY     -73.6911
        XZ       0.4038     YZ      -2.4618     ZZ     -86.2553

 Total job time:  74.38s(wall), 2549.52s(cpu)
        *  Thank you very much for using Q-Chem.  Have a nice day.  *
