 Q-Chem 5.4, Q-Chem, Inc., Pleasanton, CA (2021)
 Q-Chem 5.4.0 for Intel X86 EM64T Linux

User input:
--------------------------------------------------------------
$molecule
0 1
C	0.361285	-3.887800	0.627947
C	-0.331462	-3.701456	-0.572038
C	-0.542953	-2.345170	-0.939610
H	-0.684893	-4.545233	-1.183405
C	-0.000000	-1.450135	-0.000000
S	0.763441	-2.321334	1.323052
C	-1.265941	-1.934439	-2.192207
H	-1.598695	-2.819799	-2.767709
H	-0.620770	-1.326210	-2.860100
H	-2.166438	-1.325374	-1.967682
C	0.000000	0.000000	0.000000
C	0.540541	0.648986	1.113020
C	1.431046	1.717546	0.820578
H	0.292104	0.350827	2.142881
C	1.590053	1.908061	-0.563588
S	0.621066	0.745901	-1.464748
C	2.112618	2.535384	1.882380
H	1.825779	2.191315	2.894974
H	1.847090	3.610676	1.808137
H	3.218159	2.467925	1.808230
H	2.203332	2.644073	-1.097114
H	1.305744	-4.420219	0.469073
H	-0.248940	-4.419395	1.366694
H	0.935300	-1.450628	-0.540012
$end

$rem
JOBTYPE		SP
EXCHANGE	HF
CORRELATION	pRIMP2
BASIS		cc-pvtz
METHOD		rimp2
AUX_BASIS	rimp2-cc-pvtz
SOLVENT_METHOD	PCM
PURECART	11111
SYMMETRY	false
MEM_TOTAL	110000
SCF_CONVERGENCE = 6
THRESH=10
GUI = 2
$end

$solvent
dielectric 4.90
$end
--------------------------------------------------------------

             Standard Nuclear Orientation (Angstroms)
    I     Atom           X                Y                Z
 ----------------------------------------------------------------
    1      C       0.3612850000    -3.8878000000     0.6279470000
    2      C      -0.3314620000    -3.7014560000    -0.5720380000
    3      C      -0.5429530000    -2.3451700000    -0.9396100000
    4      H      -0.6848930000    -4.5452330000    -1.1834050000
    5      C       0.0000000000    -1.4501350000     0.0000000000
    6      S       0.7634410000    -2.3213340000     1.3230520000
    7      C      -1.2659410000    -1.9344390000    -2.1922070000
    8      H      -1.5986950000    -2.8197990000    -2.7677090000
    9      H      -0.6207700000    -1.3262100000    -2.8601000000
   10      H      -2.1664380000    -1.3253740000    -1.9676820000
   11      C       0.0000000000     0.0000000000     0.0000000000
   12      C       0.5405410000     0.6489860000     1.1130200000
   13      C       1.4310460000     1.7175460000     0.8205780000
   14      H       0.2921040000     0.3508270000     2.1428810000
   15      C       1.5900530000     1.9080610000    -0.5635880000
   16      S       0.6210660000     0.7459010000    -1.4647480000
   17      C       2.1126180000     2.5353840000     1.8823800000
   18      H       1.8257790000     2.1913150000     2.8949740000
   19      H       1.8470900000     3.6106760000     1.8081370000
   20      H       3.2181590000     2.4679250000     1.8082300000
   21      H       2.2033320000     2.6440730000    -1.0971140000
   22      H       1.3057440000    -4.4202190000     0.4690730000
   23      H      -0.2489400000    -4.4193950000     1.3666940000
   24      H       0.9353000000    -1.4506280000    -0.5400120000
 ----------------------------------------------------------------

   10   -1180.7319320323      5.66e-07  Convergence criterion met
 Total energy in the final basis set =    -1180.7319320323
        RIMP2         total energy =     -1182.7438482386 a.u.

                    Orbital Energies (a.u.)
 --------------------------------------------------------------

 Alpha MOs
 -- Occupied --
-91.9780 -91.9437 -11.2788 -11.2671 -11.2595 -11.2572 -11.2517 -11.2411
-11.2410 -11.2319 -11.2288 -11.2199  -8.9790  -8.9481  -6.6599  -6.6592
 -6.6586  -6.6294  -6.6284  -6.6271  -1.2035  -1.1536  -1.0597  -1.0268
 -1.0051  -0.9581  -0.9150  -0.9017  -0.8103  -0.7712  -0.7246  -0.7032
 -0.6553  -0.6435  -0.6126  -0.5907  -0.5789  -0.5753  -0.5693  -0.5521
 -0.5420  -0.5346  -0.5148  -0.5097  -0.4878  -0.4741  -0.4604  -0.4432
 -0.3572  -0.3432  -0.3266  -0.2643

          Ground-State Mulliken Net Atomic Charges

     Atom                 Charge (a.u.)
  ----------------------------------------
      1 C                    -0.078952
      2 C                    -0.315525
      3 C                    -0.063504
      4 H                     0.176565
      5 C                     0.107030
      6 S                    -0.185780
      7 C                    -0.291475
      8 H                     0.116943
      9 H                     0.107239
     10 H                     0.113764
     11 C                    -0.017986
     12 C                    -0.306606
     13 C                     0.049680
     14 H                     0.185143
     15 C                    -0.246634
     16 S                    -0.001055
     17 C                    -0.268418
     18 H                     0.103398
     19 H                     0.108882
     20 H                     0.108643
     21 H                     0.197473
     22 H                     0.110622
     23 H                     0.109902
     24 H                     0.180652
  ----------------------------------------
  Sum of atomic charges =     0.000000

                    Cartesian Multipole Moments
 -----------------------------------------------------------------
    Charge (ESU x 10^10)
                -0.0000
    Dipole Moment (Debye)
         X       0.7446      Y       0.0651      Z      -0.8189
       Tot       1.1087
    Quadrupole Moments (Debye-Ang)
        XX     -86.8966     XY       5.9895     YY     -77.8117
        XZ       1.0686     YZ       4.9825     ZZ     -85.9873

 Total job time:  55.30s(wall), 1907.01s(cpu)
        *  Thank you very much for using Q-Chem.  Have a nice day.  *
