 Q-Chem 5.4, Q-Chem, Inc., Pleasanton, CA (2021)
 Q-Chem 5.4.0 for Intel X86 EM64T Linux

User input:
--------------------------------------------------------------
$molecule
0 1
C	0.464838	-3.887800	0.555670
C	-0.425760	-3.701456	-0.505790
C	-0.697866	-2.345170	-0.831053
H	-0.879984	-4.545233	-1.046496
C	0.000000	-1.450135	0.000000
S	0.981588	-2.321334	1.170382
C	-1.627381	-1.934439	-1.939074
H	-2.055015	-2.819799	-2.448051
H	-1.107991	-1.326210	-2.708853
H	-2.475210	-1.325374	-1.561590
C	0.000000	0.000000	0.000000
C	0.354153	0.766774	1.113020
C	0.937751	2.029404	0.820578
H	0.191350	0.414475	2.142881
C	1.042030	2.254581	-0.563588
S	0.406851	0.881228	-1.464748
C	1.384426	2.995779	1.882380
H	1.196413	2.589194	2.894974
H	0.849641	3.965707	1.808137
H	2.469756	3.216753	1.808230
H	1.443919	3.124243	-1.097114
H	1.367361	-4.420219	0.235206
H	-0.007834	-4.419395	1.389159
H	0.827319	-1.450628	-0.694221
$end

$rem
JOBTYPE		SP
EXCHANGE	HF
CORRELATION	pRIMP2
BASIS		cc-pvtz
METHOD		rimp2
AUX_BASIS	rimp2-cc-pvtz
SOLVENT_METHOD	PCM
PURECART	11111
SYMMETRY	false
MEM_TOTAL	110000
SCF_CONVERGENCE = 6
THRESH=10
GUI = 2
$end

$solvent
dielectric 4.90
$end
--------------------------------------------------------------

             Standard Nuclear Orientation (Angstroms)
    I     Atom           X                Y                Z
 ----------------------------------------------------------------
    1      C       0.4648380000    -3.8878000000     0.5556700000
    2      C      -0.4257600000    -3.7014560000    -0.5057900000
    3      C      -0.6978660000    -2.3451700000    -0.8310530000
    4      H      -0.8799840000    -4.5452330000    -1.0464960000
    5      C       0.0000000000    -1.4501350000     0.0000000000
    6      S       0.9815880000    -2.3213340000     1.1703820000
    7      C      -1.6273810000    -1.9344390000    -1.9390740000
    8      H      -2.0550150000    -2.8197990000    -2.4480510000
    9      H      -1.1079910000    -1.3262100000    -2.7088530000
   10      H      -2.4752100000    -1.3253740000    -1.5615900000
   11      C       0.0000000000     0.0000000000     0.0000000000
   12      C       0.3541530000     0.7667740000     1.1130200000
   13      C       0.9377510000     2.0294040000     0.8205780000
   14      H       0.1913500000     0.4144750000     2.1428810000
   15      C       1.0420300000     2.2545810000    -0.5635880000
   16      S       0.4068510000     0.8812280000    -1.4647480000
   17      C       1.3844260000     2.9957790000     1.8823800000
   18      H       1.1964130000     2.5891940000     2.8949740000
   19      H       0.8496410000     3.9657070000     1.8081370000
   20      H       2.4697560000     3.2167530000     1.8082300000
   21      H       1.4439190000     3.1242430000    -1.0971140000
   22      H       1.3673610000    -4.4202190000     0.2352060000
   23      H      -0.0078340000    -4.4193950000     1.3891590000
   24      H       0.8273190000    -1.4506280000    -0.6942210000
 ----------------------------------------------------------------

   10   -1180.7516907358      5.01e-07  Convergence criterion met
 Total energy in the final basis set =    -1180.7516907358
        RIMP2         total energy =     -1182.7578851956 a.u.

                    Orbital Energies (a.u.)
 --------------------------------------------------------------

 Alpha MOs
 -- Occupied --
-91.9814 -91.9445 -11.2832 -11.2626 -11.2615 -11.2581 -11.2508 -11.2419
-11.2370 -11.2325 -11.2284 -11.2206  -8.9818  -8.9489  -6.6627  -6.6621
 -6.6615  -6.6302  -6.6292  -6.6279  -1.2008  -1.1534  -1.0591  -1.0266
 -1.0049  -0.9590  -0.9151  -0.9010  -0.8122  -0.7695  -0.7265  -0.7033
 -0.6554  -0.6413  -0.6115  -0.5913  -0.5773  -0.5746  -0.5690  -0.5528
 -0.5419  -0.5335  -0.5136  -0.5078  -0.4877  -0.4823  -0.4612  -0.4465
 -0.3565  -0.3434  -0.3240  -0.2689

          Ground-State Mulliken Net Atomic Charges

     Atom                 Charge (a.u.)
  ----------------------------------------
      1 C                    -0.075634
      2 C                    -0.318373
      3 C                    -0.051482
      4 H                     0.177037
      5 C                     0.104980
      6 S                    -0.180015
      7 C                    -0.283506
      8 H                     0.116175
      9 H                     0.104232
     10 H                     0.112358
     11 C                    -0.018557
     12 C                    -0.327582
     13 C                     0.059371
     14 H                     0.184616
     15 C                    -0.257786
     16 S                     0.005640
     17 C                    -0.270472
     18 H                     0.103240
     19 H                     0.108294
     20 H                     0.108834
     21 H                     0.196764
     22 H                     0.111269
     23 H                     0.109969
     24 H                     0.180628
  ----------------------------------------
  Sum of atomic charges =     0.000000

                    Cartesian Multipole Moments
 -----------------------------------------------------------------
    Charge (ESU x 10^10)
                -0.0000
    Dipole Moment (Debye)
         X      -0.2075      Y       0.1223      Z      -0.7884
       Tot       0.8244
    Quadrupole Moments (Debye-Ang)
        XX     -89.4789     XY       5.2750     YY     -75.2253
        XZ       0.7481     YZ       4.9143     ZZ     -86.1233

 Total job time:  54.02s(wall), 1890.89s(cpu)
        *  Thank you very much for using Q-Chem.  Have a nice day.  *
