 Q-Chem 5.4, Q-Chem, Inc., Pleasanton, CA (2021)
 Q-Chem 5.4.0 for Intel X86 EM64T Linux

User input:
--------------------------------------------------------------
$molecule
0 1
C	-0.466510	-3.887800	0.554267
C	0.424173	-3.701456	-0.507121
C	0.697244	-2.345170	-0.831575
H	0.877789	-4.545233	-1.048337
C	-0.000000	-1.450135	-0.000000
S	-0.982150	-2.321334	1.169911
C	1.627024	-1.934439	-1.939374
H	2.054010	-2.819799	-2.448894
H	2.475299	-1.326210	-1.561545
H	1.108051	-1.325374	-2.708773
C	0.000000	0.000000	0.000000
C	0.540541	0.648986	1.113020
C	1.431046	1.717546	0.820578
H	0.292104	0.350827	2.142881
C	1.590053	1.908061	-0.563588
S	0.621066	0.745901	-1.464748
C	2.112618	2.535384	1.882380
H	1.825779	2.191315	2.894974
H	1.847090	3.610676	1.808137
H	3.218159	2.467925	1.808230
H	2.203332	2.644073	-1.097114
H	0.005807	-4.420219	1.387431
H	-1.369415	-4.419395	0.233510
H	0.827337	-1.450628	0.694200
$end

$rem
JOBTYPE		SP
EXCHANGE	HF
CORRELATION	pRIMP2
BASIS		cc-pvtz
METHOD		rimp2
AUX_BASIS	rimp2-cc-pvtz
SOLVENT_METHOD	PCM
PURECART	11111
SYMMETRY	false
MEM_TOTAL	110000
SCF_CONVERGENCE = 6
THRESH=10
GUI = 2
$end

$solvent
dielectric 4.90
$end
--------------------------------------------------------------

             Standard Nuclear Orientation (Angstroms)
    I     Atom           X                Y                Z
 ----------------------------------------------------------------
    1      C      -0.4665100000    -3.8878000000     0.5542670000
    2      C       0.4241730000    -3.7014560000    -0.5071210000
    3      C       0.6972440000    -2.3451700000    -0.8315750000
    4      H       0.8777890000    -4.5452330000    -1.0483370000
    5      C       0.0000000000    -1.4501350000     0.0000000000
    6      S      -0.9821500000    -2.3213340000     1.1699110000
    7      C       1.6270240000    -1.9344390000    -1.9393740000
    8      H       2.0540100000    -2.8197990000    -2.4488940000
    9      H       2.4752990000    -1.3262100000    -1.5615450000
   10      H       1.1080510000    -1.3253740000    -2.7087730000
   11      C       0.0000000000     0.0000000000     0.0000000000
   12      C       0.5405410000     0.6489860000     1.1130200000
   13      C       1.4310460000     1.7175460000     0.8205780000
   14      H       0.2921040000     0.3508270000     2.1428810000
   15      C       1.5900530000     1.9080610000    -0.5635880000
   16      S       0.6210660000     0.7459010000    -1.4647480000
   17      C       2.1126180000     2.5353840000     1.8823800000
   18      H       1.8257790000     2.1913150000     2.8949740000
   19      H       1.8470900000     3.6106760000     1.8081370000
   20      H       3.2181590000     2.4679250000     1.8082300000
   21      H       2.2033320000     2.6440730000    -1.0971140000
   22      H       0.0058070000    -4.4202190000     1.3874310000
   23      H      -1.3694150000    -4.4193950000     0.2335100000
   24      H       0.8273370000    -1.4506280000     0.6942000000
 ----------------------------------------------------------------

   10   -1180.7134238848      8.24e-07  Convergence criterion met
 Total energy in the final basis set =    -1180.7134238848
        RIMP2         total energy =     -1182.7324797207 a.u.

                    Orbital Energies (a.u.)
 --------------------------------------------------------------

 Alpha MOs
 -- Occupied --
-91.9814 -91.9395 -11.2763 -11.2665 -11.2624 -11.2544 -11.2512 -11.2405
-11.2388 -11.2292 -11.2277 -11.2174  -8.9819  -8.9443  -6.6626  -6.6620
 -6.6616  -6.6257  -6.6247  -6.6234  -1.2024  -1.1525  -1.0585  -1.0248
 -1.0079  -0.9561  -0.9110  -0.9038  -0.8075  -0.7686  -0.7278  -0.7000
 -0.6620  -0.6413  -0.6104  -0.5832  -0.5830  -0.5752  -0.5682  -0.5538
 -0.5421  -0.5292  -0.5164  -0.5123  -0.4929  -0.4658  -0.4525  -0.4450
 -0.3539  -0.3409  -0.3209  -0.2623

          Ground-State Mulliken Net Atomic Charges

     Atom                 Charge (a.u.)
  ----------------------------------------
      1 C                    -0.069458
      2 C                    -0.330546
      3 C                    -0.037500
      4 H                     0.178228
      5 C                     0.056763
      6 S                    -0.195507
      7 C                    -0.279115
      8 H                     0.110412
      9 H                     0.110884
     10 H                     0.110215
     11 C                    -0.059696
     12 C                    -0.229110
     13 C                     0.014432
     14 H                     0.185056
     15 C                    -0.243650
     16 S                     0.023796
     17 C                    -0.268606
     18 H                     0.102981
     19 H                     0.107961
     20 H                     0.105729
     21 H                     0.198221
     22 H                     0.108634
     23 H                     0.110982
     24 H                     0.188895
  ----------------------------------------
  Sum of atomic charges =     0.000000

                    Cartesian Multipole Moments
 -----------------------------------------------------------------
    Charge (ESU x 10^10)
                -0.0000
    Dipole Moment (Debye)
         X       3.5635      Y       0.3109      Z      -0.1301
       Tot       3.5794
    Quadrupole Moments (Debye-Ang)
        XX     -87.6990     XY       1.8487     YY     -79.5573
        XZ       0.6150     YZ       2.6919     ZZ     -85.0525

 Total job time:  59.02s(wall), 1944.09s(cpu)
        *  Thank you very much for using Q-Chem.  Have a nice day.  *
