 Q-Chem 5.4, Q-Chem, Inc., Pleasanton, CA (2021)
 Q-Chem 5.4.0 for Intel X86 EM64T Linux

User input:
--------------------------------------------------------------
$molecule
0 1
C	0.248806	-3.887800	-0.680396
C	-0.225147	-3.701456	0.621614
C	-0.370780	-2.345170	1.019896
H	-0.466300	-4.545233	1.285337
C	0.000000	-1.450135	0.000000
S	0.522786	-2.321334	-1.435271
C	-0.865597	-1.934439	2.378891
H	-1.092567	-2.819799	3.003720
H	-1.791940	-1.326210	2.313975
H	-0.114772	-1.325374	2.924390
C	0.000000	0.000000	0.000000
C	-0.003081	0.844605	1.113020
C	-0.007772	2.235575	0.820578
H	-0.001743	0.456510	2.142881
C	-0.008427	2.483726	-0.563588
S	-0.003691	0.970607	-1.464748
C	-0.011355	3.300181	1.882380
H	-0.009922	2.852233	2.894974
H	-0.905944	3.953225	1.808137
H	0.878901	3.959133	1.808230
H	-0.011727	3.441752	-1.097114
H	-0.479986	-4.420219	-1.301772
H	1.206964	-4.419395	-0.687795
H	-1.014873	-1.450628	-0.369368
$end

$rem
JOBTYPE		SP
EXCHANGE	HF
CORRELATION	pRIMP2
BASIS		cc-pvtz
METHOD		rimp2
AUX_BASIS	rimp2-cc-pvtz
SOLVENT_METHOD	PCM
PURECART	11111
SYMMETRY	false
MEM_TOTAL	110000
SCF_CONVERGENCE = 6
THRESH=10
GUI = 2
$end

$solvent
dielectric 4.90
$end
--------------------------------------------------------------

             Standard Nuclear Orientation (Angstroms)
    I     Atom           X                Y                Z
 ----------------------------------------------------------------
    1      C       0.2488060000    -3.8878000000    -0.6803960000
    2      C      -0.2251470000    -3.7014560000     0.6216140000
    3      C      -0.3707800000    -2.3451700000     1.0198960000
    4      H      -0.4663000000    -4.5452330000     1.2853370000
    5      C       0.0000000000    -1.4501350000     0.0000000000
    6      S       0.5227860000    -2.3213340000    -1.4352710000
    7      C      -0.8655970000    -1.9344390000     2.3788910000
    8      H      -1.0925670000    -2.8197990000     3.0037200000
    9      H      -1.7919400000    -1.3262100000     2.3139750000
   10      H      -0.1147720000    -1.3253740000     2.9243900000
   11      C       0.0000000000     0.0000000000     0.0000000000
   12      C      -0.0030810000     0.8446050000     1.1130200000
   13      C      -0.0077720000     2.2355750000     0.8205780000
   14      H      -0.0017430000     0.4565100000     2.1428810000
   15      C      -0.0084270000     2.4837260000    -0.5635880000
   16      S      -0.0036910000     0.9706070000    -1.4647480000
   17      C      -0.0113550000     3.3001810000     1.8823800000
   18      H      -0.0099220000     2.8522330000     2.8949740000
   19      H      -0.9059440000     3.9532250000     1.8081370000
   20      H       0.8789010000     3.9591330000     1.8082300000
   21      H      -0.0117270000     3.4417520000    -1.0971140000
   22      H      -0.4799860000    -4.4202190000    -1.3017720000
   23      H       1.2069640000    -4.4193950000    -0.6877950000
   24      H      -1.0148730000    -1.4506280000    -0.3693680000
 ----------------------------------------------------------------

   10   -1180.7585922679      5.07e-07  Convergence criterion met
 Total energy in the final basis set =    -1180.7585922679
        RIMP2         total energy =     -1182.7633381824 a.u.

                    Orbital Energies (a.u.)
 --------------------------------------------------------------

 Alpha MOs
 -- Occupied --
-91.9842 -91.9464 -11.2895 -11.2662 -11.2622 -11.2554 -11.2500 -11.2449
-11.2339 -11.2289 -11.2283 -11.2239  -8.9838  -8.9510  -6.6648  -6.6643
 -6.6636  -6.6324  -6.6314  -6.6301  -1.2015  -1.1527  -1.0594  -1.0315
 -1.0013  -0.9620  -0.9162  -0.8999  -0.8171  -0.7623  -0.7329  -0.7050
 -0.6557  -0.6460  -0.6109  -0.5941  -0.5833  -0.5687  -0.5639  -0.5512
 -0.5465  -0.5343  -0.5224  -0.5012  -0.4879  -0.4832  -0.4670  -0.4463
 -0.3597  -0.3432  -0.3250  -0.2662

          Ground-State Mulliken Net Atomic Charges

     Atom                 Charge (a.u.)
  ----------------------------------------
      1 C                    -0.071661
      2 C                    -0.318137
      3 C                    -0.034726
      4 H                     0.179829
      5 C                     0.120989
      6 S                    -0.177607
      7 C                    -0.299398
      8 H                     0.120993
      9 H                     0.114001
     10 H                     0.103777
     11 C                    -0.074989
     12 C                    -0.260014
     13 C                     0.029893
     14 H                     0.193619
     15 C                    -0.274916
     16 S                     0.000843
     17 C                    -0.273182
     18 H                     0.100750
     19 H                     0.108478
     20 H                     0.108857
     21 H                     0.197282
     22 H                     0.110926
     23 H                     0.114608
     24 H                     0.179785
  ----------------------------------------
  Sum of atomic charges =     0.000000

                    Cartesian Multipole Moments
 -----------------------------------------------------------------
    Charge (ESU x 10^10)
                -0.0000
    Dipole Moment (Debye)
         X      -1.6529      Y      -0.3650      Z       3.3713
       Tot       3.7724
    Quadrupole Moments (Debye-Ang)
        XX     -91.9543     XY       2.5598     YY     -72.6977
        XZ       0.0357     YZ      -1.6659     ZZ     -85.6321

 Total job time:  56.01s(wall), 1865.39s(cpu)
        *  Thank you very much for using Q-Chem.  Have a nice day.  *
