 Q-Chem 5.4, Q-Chem, Inc., Pleasanton, CA (2021)
 Q-Chem 5.4.0 for Intel X86 EM64T Linux

User input:
--------------------------------------------------------------
$molecule
0 1
C	-0.126876	-3.887800	0.713264
C	0.113784	-3.701456	-0.651267
C	0.188043	-2.345170	-1.068787
H	0.236019	-4.545233	-1.346782
C	0.000000	-1.450135	0.000000
S	-0.265612	-2.321334	1.504247
C	0.439357	-1.934439	-2.493059
H	0.554378	-2.819799	-3.147809
H	1.362899	-1.326210	-2.589987
H	-0.394786	-1.325374	-2.899892
C	0.000000	0.000000	0.000000
C	0.285976	0.794723	1.113020
C	0.757308	2.103412	0.820578
H	0.154498	0.429575	2.142881
C	0.841565	2.336821	-0.563588
S	0.328498	0.913334	-1.464748
C	1.118059	3.105040	1.882380
H	0.966197	2.683616	2.894974
H	0.500773	4.024668	1.808137
H	2.180000	3.419766	1.808230
H	1.166129	3.238200	-1.097114
H	0.698744	-4.420219	1.198647
H	-1.069193	-4.419395	0.886933
H	1.063595	-1.450628	0.187526
$end

$rem
JOBTYPE		SP
EXCHANGE	HF
CORRELATION	pRIMP2
BASIS		cc-pvtz
METHOD		rimp2
AUX_BASIS	rimp2-cc-pvtz
SOLVENT_METHOD	PCM
PURECART	11111
SYMMETRY	false
MEM_TOTAL	110000
SCF_CONVERGENCE = 6
THRESH=10
GUI = 2
$end

$solvent
dielectric 4.90
$end
--------------------------------------------------------------

             Standard Nuclear Orientation (Angstroms)
    I     Atom           X                Y                Z
 ----------------------------------------------------------------
    1      C      -0.1268760000    -3.8878000000     0.7132640000
    2      C       0.1137840000    -3.7014560000    -0.6512670000
    3      C       0.1880430000    -2.3451700000    -1.0687870000
    4      H       0.2360190000    -4.5452330000    -1.3467820000
    5      C       0.0000000000    -1.4501350000     0.0000000000
    6      S      -0.2656120000    -2.3213340000     1.5042470000
    7      C       0.4393570000    -1.9344390000    -2.4930590000
    8      H       0.5543780000    -2.8197990000    -3.1478090000
    9      H       1.3628990000    -1.3262100000    -2.5899870000
   10      H      -0.3947860000    -1.3253740000    -2.8998920000
   11      C       0.0000000000     0.0000000000     0.0000000000
   12      C       0.2859760000     0.7947230000     1.1130200000
   13      C       0.7573080000     2.1034120000     0.8205780000
   14      H       0.1544980000     0.4295750000     2.1428810000
   15      C       0.8415650000     2.3368210000    -0.5635880000
   16      S       0.3284980000     0.9133340000    -1.4647480000
   17      C       1.1180590000     3.1050400000     1.8823800000
   18      H       0.9661970000     2.6836160000     2.8949740000
   19      H       0.5007730000     4.0246680000     1.8081370000
   20      H       2.1800000000     3.4197660000     1.8082300000
   21      H       1.1661290000     3.2382000000    -1.0971140000
   22      H       0.6987440000    -4.4202190000     1.1986470000
   23      H      -1.0691930000    -4.4193950000     0.8869330000
   24      H       1.0635950000    -1.4506280000     0.1875260000
 ----------------------------------------------------------------

   10   -1180.7516132894      4.85e-07  Convergence criterion met
 Total energy in the final basis set =    -1180.7516132894
        RIMP2         total energy =     -1182.7594273535 a.u.

                    Orbital Energies (a.u.)
 --------------------------------------------------------------

 Alpha MOs
 -- Occupied --
-91.9813 -91.9465 -11.2895 -11.2648 -11.2626 -11.2545 -11.2502 -11.2444
-11.2318 -11.2298 -11.2277 -11.2223  -8.9814  -8.9510  -6.6623  -6.6618
 -6.6611  -6.6324  -6.6314  -6.6301  -1.2026  -1.1523  -1.0599  -1.0280
 -1.0069  -0.9556  -0.9158  -0.9022  -0.8129  -0.7716  -0.7174  -0.7032
 -0.6620  -0.6477  -0.6115  -0.5893  -0.5821  -0.5721  -0.5685  -0.5538
 -0.5419  -0.5331  -0.5163  -0.5104  -0.4914  -0.4811  -0.4566  -0.4456
 -0.3586  -0.3412  -0.3267  -0.2643

          Ground-State Mulliken Net Atomic Charges

     Atom                 Charge (a.u.)
  ----------------------------------------
      1 C                    -0.074115
      2 C                    -0.316209
      3 C                    -0.046800
      4 H                     0.179592
      5 C                     0.097935
      6 S                    -0.186179
      7 C                    -0.308120
      8 H                     0.119403
      9 H                     0.113400
     10 H                     0.113012
     11 C                     0.006037
     12 C                    -0.315210
     13 C                     0.046711
     14 H                     0.176498
     15 C                    -0.281696
     16 S                     0.010404
     17 C                    -0.270361
     18 H                     0.102811
     19 H                     0.108583
     20 H                     0.107863
     21 H                     0.196891
     22 H                     0.111420
     23 H                     0.113501
     24 H                     0.194630
  ----------------------------------------
  Sum of atomic charges =     0.000000

                    Cartesian Multipole Moments
 -----------------------------------------------------------------
    Charge (ESU x 10^10)
                -0.0000
    Dipole Moment (Debye)
         X       1.7776      Y      -0.4533      Z      -0.9263
       Tot       2.0551
    Quadrupole Moments (Debye-Ang)
        XX     -90.6637     XY       1.0420     YY     -74.6212
        XZ       0.5822     YZ       4.4194     ZZ     -85.4006

 Total job time:  55.21s(wall), 1913.09s(cpu)
        *  Thank you very much for using Q-Chem.  Have a nice day.  *
