 Q-Chem 5.4, Q-Chem, Inc., Pleasanton, CA (2021)
 Q-Chem 5.4.0 for Intel X86 EM64T Linux

User input:
--------------------------------------------------------------
$molecule
0 1
C	-0.363176	-3.887800	0.626855
C	0.329669	-3.701456	-0.573074
C	0.542250	-2.345170	-0.940016
H	0.682412	-4.545233	-1.184837
C	0.000000	-1.450135	0.000000
S	-0.764076	-2.321334	1.322686
C	1.265537	-1.934439	-2.192440
H	1.597559	-2.819799	-2.768365
H	2.166534	-1.326210	-1.967653
H	0.620843	-1.325374	-2.860032
C	0.000000	0.000000	0.000000
C	0.143630	0.832309	1.113020
C	0.380550	2.202961	0.820578
H	0.077556	0.449877	2.142881
C	0.422995	2.447456	-0.563588
S	0.164909	0.956502	-1.464748
C	0.561888	3.252016	1.882380
H	0.485513	2.810624	2.894974
H	-0.205711	4.050482	1.808137
H	1.553045	3.746365	1.808230
H	0.586105	3.391501	-1.097114
H	0.246643	-4.420219	1.365344
H	-1.308062	-4.419395	0.467758
H	0.935314	-1.450628	0.539988
$end

$rem
JOBTYPE		SP
EXCHANGE	HF
CORRELATION	pRIMP2
BASIS		cc-pvtz
METHOD		rimp2
AUX_BASIS	rimp2-cc-pvtz
SOLVENT_METHOD	PCM
PURECART	11111
SYMMETRY	false
MEM_TOTAL	110000
SCF_CONVERGENCE = 6
THRESH=10
GUI = 2
$end

$solvent
dielectric 4.90
$end
--------------------------------------------------------------

             Standard Nuclear Orientation (Angstroms)
    I     Atom           X                Y                Z
 ----------------------------------------------------------------
    1      C      -0.3631760000    -3.8878000000     0.6268550000
    2      C       0.3296690000    -3.7014560000    -0.5730740000
    3      C       0.5422500000    -2.3451700000    -0.9400160000
    4      H       0.6824120000    -4.5452330000    -1.1848370000
    5      C       0.0000000000    -1.4501350000     0.0000000000
    6      S      -0.7640760000    -2.3213340000     1.3226860000
    7      C       1.2655370000    -1.9344390000    -2.1924400000
    8      H       1.5975590000    -2.8197990000    -2.7683650000
    9      H       2.1665340000    -1.3262100000    -1.9676530000
   10      H       0.6208430000    -1.3253740000    -2.8600320000
   11      C       0.0000000000     0.0000000000     0.0000000000
   12      C       0.1436300000     0.8323090000     1.1130200000
   13      C       0.3805500000     2.2029610000     0.8205780000
   14      H       0.0775560000     0.4498770000     2.1428810000
   15      C       0.4229950000     2.4474560000    -0.5635880000
   16      S       0.1649090000     0.9565020000    -1.4647480000
   17      C       0.5618880000     3.2520160000     1.8823800000
   18      H       0.4855130000     2.8106240000     2.8949740000
   19      H      -0.2057110000     4.0504820000     1.8081370000
   20      H       1.5530450000     3.7463650000     1.8082300000
   21      H       0.5861050000     3.3915010000    -1.0971140000
   22      H       0.2466430000    -4.4202190000     1.3653440000
   23      H      -1.3080620000    -4.4193950000     0.4677580000
   24      H       0.9353140000    -1.4506280000     0.5399880000
 ----------------------------------------------------------------

   10   -1180.7576011045      4.87e-07  Convergence criterion met
 Total energy in the final basis set =    -1180.7576011045
        RIMP2         total energy =     -1182.7638058358 a.u.

                    Orbital Energies (a.u.)
 --------------------------------------------------------------

 Alpha MOs
 -- Occupied --
-91.9825 -91.9454 -11.2890 -11.2648 -11.2604 -11.2553 -11.2504 -11.2438
-11.2319 -11.2316 -11.2280 -11.2219  -8.9824  -8.9500  -6.6633  -6.6627
 -6.6621  -6.6314  -6.6304  -6.6291  -1.2008  -1.1524  -1.0591  -1.0269
 -1.0074  -0.9562  -0.9148  -0.9017  -0.8138  -0.7698  -0.7213  -0.7015
 -0.6624  -0.6455  -0.6110  -0.5873  -0.5812  -0.5734  -0.5682  -0.5536
 -0.5420  -0.5324  -0.5147  -0.5083  -0.4922  -0.4824  -0.4571  -0.4485
 -0.3577  -0.3422  -0.3235  -0.2664

          Ground-State Mulliken Net Atomic Charges

     Atom                 Charge (a.u.)
  ----------------------------------------
      1 C                    -0.074351
      2 C                    -0.322225
      3 C                    -0.030737
      4 H                     0.179080
      5 C                     0.082207
      6 S                    -0.177178
      7 C                    -0.297274
      8 H                     0.116884
      9 H                     0.114469
     10 H                     0.109772
     11 C                    -0.020108
     12 C                    -0.288628
     13 C                     0.032173
     14 H                     0.179944
     15 C                    -0.267898
     16 S                     0.008069
     17 C                    -0.271513
     18 H                     0.102703
     19 H                     0.108528
     20 H                     0.107719
     21 H                     0.196456
     22 H                     0.110741
     23 H                     0.114045
     24 H                     0.187124
  ----------------------------------------
  Sum of atomic charges =     0.000000

                    Cartesian Multipole Moments
 -----------------------------------------------------------------
    Charge (ESU x 10^10)
                -0.0000
    Dipole Moment (Debye)
         X       2.2321      Y      -0.2399      Z      -0.3178
       Tot       2.2674
    Quadrupole Moments (Debye-Ang)
        XX     -91.6303     XY      -1.4343     YY     -73.9499
        XZ       0.1868     YZ       3.6267     ZZ     -85.4385

 Total job time:  53.17s(wall), 1885.96s(cpu)
        *  Thank you very much for using Q-Chem.  Have a nice day.  *
