 Q-Chem 5.4, Q-Chem, Inc., Pleasanton, CA (2021)
 Q-Chem 5.4.0 for Intel X86 EM64T Linux

User input:
--------------------------------------------------------------
$molecule
0 1
C	-0.626855	-3.887800	-0.363176
C	0.573074	-3.701456	0.329669
C	0.940016	-2.345170	0.542250
H	1.184837	-4.545233	0.682412
C	0.000000	-1.450135	0.000000
S	-1.322686	-2.321334	-0.764076
C	2.192440	-1.934439	1.265537
H	2.768365	-2.819799	1.597559
H	1.967653	-1.326210	2.166534
H	2.860032	-1.325374	0.620843
C	0.000000	0.000000	0.000000
C	0.354153	0.766774	1.113020
C	0.937751	2.029404	0.820578
H	0.191350	0.414475	2.142881
C	1.042030	2.254581	-0.563588
S	0.406851	0.881228	-1.464748
C	1.384426	2.995779	1.882380
H	1.196413	2.589194	2.894974
H	0.849641	3.965707	1.808137
H	2.469756	3.216753	1.808230
H	1.443919	3.124243	-1.097114
H	-1.365344	-4.420219	0.246643
H	-0.467758	-4.419395	-1.308062
H	-0.539988	-1.450628	0.935314
$end

$rem
JOBTYPE		SP
EXCHANGE	HF
CORRELATION	pRIMP2
BASIS		cc-pvtz
METHOD		rimp2
AUX_BASIS	rimp2-cc-pvtz
SOLVENT_METHOD	PCM
PURECART	11111
SYMMETRY	false
MEM_TOTAL	110000
SCF_CONVERGENCE = 6
THRESH=10
GUI = 2
$end

$solvent
dielectric 4.90
$end
--------------------------------------------------------------

             Standard Nuclear Orientation (Angstroms)
    I     Atom           X                Y                Z
 ----------------------------------------------------------------
    1      C      -0.6268550000    -3.8878000000    -0.3631760000
    2      C       0.5730740000    -3.7014560000     0.3296690000
    3      C       0.9400160000    -2.3451700000     0.5422500000
    4      H       1.1848370000    -4.5452330000     0.6824120000
    5      C       0.0000000000    -1.4501350000     0.0000000000
    6      S      -1.3226860000    -2.3213340000    -0.7640760000
    7      C       2.1924400000    -1.9344390000     1.2655370000
    8      H       2.7683650000    -2.8197990000     1.5975590000
    9      H       1.9676530000    -1.3262100000     2.1665340000
   10      H       2.8600320000    -1.3253740000     0.6208430000
   11      C       0.0000000000     0.0000000000     0.0000000000
   12      C       0.3541530000     0.7667740000     1.1130200000
   13      C       0.9377510000     2.0294040000     0.8205780000
   14      H       0.1913500000     0.4144750000     2.1428810000
   15      C       1.0420300000     2.2545810000    -0.5635880000
   16      S       0.4068510000     0.8812280000    -1.4647480000
   17      C       1.3844260000     2.9957790000     1.8823800000
   18      H       1.1964130000     2.5891940000     2.8949740000
   19      H       0.8496410000     3.9657070000     1.8081370000
   20      H       2.4697560000     3.2167530000     1.8082300000
   21      H       1.4439190000     3.1242430000    -1.0971140000
   22      H      -1.3653440000    -4.4202190000     0.2466430000
   23      H      -0.4677580000    -4.4193950000    -1.3080620000
   24      H      -0.5399880000    -1.4506280000     0.9353140000
 ----------------------------------------------------------------

   10   -1180.7526549814      5.59e-07  Convergence criterion met
 Total energy in the final basis set =    -1180.7526549814
        RIMP2         total energy =     -1182.7612576384 a.u.

                    Orbital Energies (a.u.)
 --------------------------------------------------------------

 Alpha MOs
 -- Occupied --
-91.9800 -91.9405 -11.2776 -11.2680 -11.2627 -11.2560 -11.2518 -11.2450
-11.2407 -11.2309 -11.2301 -11.2193  -8.9801  -8.9452  -6.6610  -6.6604
 -6.6599  -6.6266  -6.6255  -6.6243  -1.1982  -1.1540  -1.0573  -1.0261
 -1.0042  -0.9617  -0.9117  -0.9016  -0.8138  -0.7594  -0.7343  -0.7059
 -0.6576  -0.6416  -0.6114  -0.5905  -0.5833  -0.5717  -0.5620  -0.5532
 -0.5409  -0.5295  -0.5183  -0.5068  -0.4874  -0.4755  -0.4608  -0.4470
 -0.3547  -0.3417  -0.3177  -0.2767

          Ground-State Mulliken Net Atomic Charges

     Atom                 Charge (a.u.)
  ----------------------------------------
      1 C                    -0.073761
      2 C                    -0.324036
      3 C                    -0.038038
      4 H                     0.177806
      5 C                     0.077172
      6 S                    -0.180698
      7 C                    -0.271363
      8 H                     0.116945
      9 H                     0.097948
     10 H                     0.113815
     11 C                    -0.055109
     12 C                    -0.275863
     13 C                     0.036792
     14 H                     0.190727
     15 C                    -0.236575
     16 S                     0.005571
     17 C                    -0.270653
     18 H                     0.101968
     19 H                     0.109060
     20 H                     0.108004
     21 H                     0.198286
     22 H                     0.109488
     23 H                     0.110114
     24 H                     0.172397
  ----------------------------------------
  Sum of atomic charges =     0.000000

                    Cartesian Multipole Moments
 -----------------------------------------------------------------
    Charge (ESU x 10^10)
                -0.0000
    Dipole Moment (Debye)
         X       2.5734      Y       0.5935      Z       3.5176
       Tot       4.3987
    Quadrupole Moments (Debye-Ang)
        XX     -89.5959     XY       1.7026     YY     -75.5944
        XZ       0.4131     YZ      -2.0096     ZZ     -86.3016

 Total job time:  54.45s(wall), 1903.11s(cpu)
        *  Thank you very much for using Q-Chem.  Have a nice day.  *
