 Q-Chem 5.4, Q-Chem, Inc., Pleasanton, CA (2021)
 Q-Chem 5.4.0 for Intel X86 EM64T Linux

User input:
--------------------------------------------------------------
$molecule
0 1
C	-0.361285	-3.887800	-0.627947
C	0.331462	-3.701456	0.572038
C	0.542953	-2.345170	0.939610
H	0.684893	-4.545233	1.183405
C	0.000000	-1.450135	0.000000
S	-0.763441	-2.321334	-1.323052
C	1.265941	-1.934439	2.192207
H	1.598695	-2.819799	2.767709
H	0.620770	-1.326210	2.860100
H	2.166438	-1.325374	1.967682
C	0.000000	0.000000	0.000000
C	-0.003081	0.844605	1.113020
C	-0.007772	2.235575	0.820578
H	-0.001743	0.456510	2.142881
C	-0.008427	2.483726	-0.563588
S	-0.003691	0.970607	-1.464748
C	-0.011355	3.300181	1.882380
H	-0.009922	2.852233	2.894974
H	-0.905944	3.953225	1.808137
H	0.878901	3.959133	1.808230
H	-0.011727	3.441752	-1.097114
H	-1.305744	-4.420219	-0.469073
H	0.248940	-4.419395	-1.366694
H	-0.935300	-1.450628	0.540012
$end

$rem
JOBTYPE		SP
EXCHANGE	HF
CORRELATION	pRIMP2
BASIS		cc-pvtz
METHOD		rimp2
AUX_BASIS	rimp2-cc-pvtz
SOLVENT_METHOD	PCM
PURECART	11111
SYMMETRY	false
MEM_TOTAL	110000
SCF_CONVERGENCE = 6
THRESH=10
GUI = 2
$end

$solvent
dielectric 4.90
$end
--------------------------------------------------------------

             Standard Nuclear Orientation (Angstroms)
    I     Atom           X                Y                Z
 ----------------------------------------------------------------
    1      C      -0.3612850000    -3.8878000000    -0.6279470000
    2      C       0.3314620000    -3.7014560000     0.5720380000
    3      C       0.5429530000    -2.3451700000     0.9396100000
    4      H       0.6848930000    -4.5452330000     1.1834050000
    5      C       0.0000000000    -1.4501350000     0.0000000000
    6      S      -0.7634410000    -2.3213340000    -1.3230520000
    7      C       1.2659410000    -1.9344390000     2.1922070000
    8      H       1.5986950000    -2.8197990000     2.7677090000
    9      H       0.6207700000    -1.3262100000     2.8601000000
   10      H       2.1664380000    -1.3253740000     1.9676820000
   11      C       0.0000000000     0.0000000000     0.0000000000
   12      C      -0.0030810000     0.8446050000     1.1130200000
   13      C      -0.0077720000     2.2355750000     0.8205780000
   14      H      -0.0017430000     0.4565100000     2.1428810000
   15      C      -0.0084270000     2.4837260000    -0.5635880000
   16      S      -0.0036910000     0.9706070000    -1.4647480000
   17      C      -0.0113550000     3.3001810000     1.8823800000
   18      H      -0.0099220000     2.8522330000     2.8949740000
   19      H      -0.9059440000     3.9532250000     1.8081370000
   20      H       0.8789010000     3.9591330000     1.8082300000
   21      H      -0.0117270000     3.4417520000    -1.0971140000
   22      H      -1.3057440000    -4.4202190000    -0.4690730000
   23      H       0.2489400000    -4.4193950000    -1.3666940000
   24      H      -0.9353000000    -1.4506280000     0.5400120000
 ----------------------------------------------------------------

   10   -1180.7593965404      4.96e-07  Convergence criterion met
 Total energy in the final basis set =    -1180.7593965404
        RIMP2         total energy =     -1182.7648898460 a.u.

                    Orbital Energies (a.u.)
 --------------------------------------------------------------

 Alpha MOs
 -- Occupied --
-91.9840 -91.9459 -11.2892 -11.2655 -11.2608 -11.2555 -11.2507 -11.2441
-11.2333 -11.2313 -11.2286 -11.2228  -8.9835  -8.9504  -6.6645  -6.6639
 -6.6633  -6.6318  -6.6308  -6.6295  -1.2007  -1.1527  -1.0589  -1.0302
 -1.0026  -0.9611  -0.9149  -0.9003  -0.8174  -0.7616  -0.7270  -0.7069
 -0.6595  -0.6471  -0.6112  -0.5924  -0.5864  -0.5697  -0.5594  -0.5536
 -0.5424  -0.5335  -0.5204  -0.5027  -0.4870  -0.4839  -0.4663  -0.4460
 -0.3589  -0.3432  -0.3232  -0.2673

          Ground-State Mulliken Net Atomic Charges

     Atom                 Charge (a.u.)
  ----------------------------------------
      1 C                    -0.074442
      2 C                    -0.316685
      3 C                    -0.061772
      4 H                     0.178960
      5 C                     0.126520
      6 S                    -0.179609
      7 C                    -0.288185
      8 H                     0.119322
      9 H                     0.098482
     10 H                     0.117199
     11 C                    -0.061094
     12 C                    -0.263827
     13 C                     0.026564
     14 H                     0.188666
     15 C                    -0.270651
     16 S                     0.009735
     17 C                    -0.273452
     18 H                     0.100914
     19 H                     0.108757
     20 H                     0.108453
     21 H                     0.196313
     22 H                     0.112728
     23 H                     0.112142
     24 H                     0.184964
  ----------------------------------------
  Sum of atomic charges =     0.000000

                    Cartesian Multipole Moments
 -----------------------------------------------------------------
    Charge (ESU x 10^10)
                -0.0000
    Dipole Moment (Debye)
         X       0.4709      Y      -0.2486      Z       3.9011
       Tot       3.9373
    Quadrupole Moments (Debye-Ang)
        XX     -91.4330     XY      -0.4800     YY     -73.1915
        XZ       0.2755     YZ      -2.6189     ZZ     -86.0992

 Total job time:  56.84s(wall), 1849.49s(cpu)
        *  Thank you very much for using Q-Chem.  Have a nice day.  *
