 Q-Chem 5.4, Q-Chem, Inc., Pleasanton, CA (2021)
 Q-Chem 5.4.0 for Intel X86 EM64T Linux

User input:
--------------------------------------------------------------
$molecule
0 1
C	0.626855	-3.887800	0.363176
C	-0.573074	-3.701456	-0.329669
C	-0.940016	-2.345170	-0.542250
H	-1.184837	-4.545233	-0.682412
C	0.000000	-1.450135	0.000000
S	1.322686	-2.321334	0.764076
C	-2.192440	-1.934439	-1.265537
H	-2.768365	-2.819799	-1.597559
H	-1.967653	-1.326210	-2.166534
H	-2.860032	-1.325374	-0.620843
C	0.000000	0.000000	0.000000
C	0.143630	0.832309	1.113020
C	0.380550	2.202961	0.820578
H	0.077556	0.449877	2.142881
C	0.422995	2.447456	-0.563588
S	0.164909	0.956502	-1.464748
C	0.561888	3.252016	1.882380
H	0.485513	2.810624	2.894974
H	-0.205711	4.050482	1.808137
H	1.553045	3.746365	1.808230
H	0.586105	3.391501	-1.097114
H	1.365344	-4.420219	-0.246643
H	0.467758	-4.419395	1.308062
H	0.539988	-1.450628	-0.935314
$end

$rem
JOBTYPE		SP
EXCHANGE	HF
CORRELATION	pRIMP2
BASIS		cc-pvtz
METHOD		rimp2
AUX_BASIS	rimp2-cc-pvtz
SOLVENT_METHOD	PCM
PURECART	11111
SYMMETRY	false
MEM_TOTAL	110000
SCF_CONVERGENCE = 6
THRESH=10
GUI = 2
$end

$solvent
dielectric 4.90
$end
--------------------------------------------------------------

             Standard Nuclear Orientation (Angstroms)
    I     Atom           X                Y                Z
 ----------------------------------------------------------------
    1      C       0.6268550000    -3.8878000000     0.3631760000
    2      C      -0.5730740000    -3.7014560000    -0.3296690000
    3      C      -0.9400160000    -2.3451700000    -0.5422500000
    4      H      -1.1848370000    -4.5452330000    -0.6824120000
    5      C       0.0000000000    -1.4501350000     0.0000000000
    6      S       1.3226860000    -2.3213340000     0.7640760000
    7      C      -2.1924400000    -1.9344390000    -1.2655370000
    8      H      -2.7683650000    -2.8197990000    -1.5975590000
    9      H      -1.9676530000    -1.3262100000    -2.1665340000
   10      H      -2.8600320000    -1.3253740000    -0.6208430000
   11      C       0.0000000000     0.0000000000     0.0000000000
   12      C       0.1436300000     0.8323090000     1.1130200000
   13      C       0.3805500000     2.2029610000     0.8205780000
   14      H       0.0775560000     0.4498770000     2.1428810000
   15      C       0.4229950000     2.4474560000    -0.5635880000
   16      S       0.1649090000     0.9565020000    -1.4647480000
   17      C       0.5618880000     3.2520160000     1.8823800000
   18      H       0.4855130000     2.8106240000     2.8949740000
   19      H      -0.2057110000     4.0504820000     1.8081370000
   20      H       1.5530450000     3.7463650000     1.8082300000
   21      H       0.5861050000     3.3915010000    -1.0971140000
   22      H       1.3653440000    -4.4202190000    -0.2466430000
   23      H       0.4677580000    -4.4193950000     1.3080620000
   24      H       0.5399880000    -1.4506280000    -0.9353140000
 ----------------------------------------------------------------

   10   -1180.7602644786      4.98e-07  Convergence criterion met
 Total energy in the final basis set =    -1180.7602644786
        RIMP2         total energy =     -1182.7641132065 a.u.

                    Orbital Energies (a.u.)
 --------------------------------------------------------------

 Alpha MOs
 -- Occupied --
-91.9852 -91.9436 -11.2818 -11.2635 -11.2622 -11.2568 -11.2508 -11.2416
-11.2368 -11.2316 -11.2285 -11.2194  -8.9850  -8.9480  -6.6659  -6.6654
 -6.6648  -6.6294  -6.6284  -6.6271  -1.1983  -1.1535  -1.0581  -1.0257
 -1.0043  -0.9607  -0.9141  -0.9006  -0.8126  -0.7666  -0.7325  -0.7037
 -0.6544  -0.6367  -0.6111  -0.5898  -0.5763  -0.5736  -0.5691  -0.5529
 -0.5418  -0.5313  -0.5126  -0.5056  -0.4894  -0.4849  -0.4623  -0.4483
 -0.3561  -0.3423  -0.3183  -0.2761

          Ground-State Mulliken Net Atomic Charges

     Atom                 Charge (a.u.)
  ----------------------------------------
      1 C                    -0.075953
      2 C                    -0.324920
      3 C                    -0.049632
      4 H                     0.177121
      5 C                     0.123695
      6 S                    -0.174871
      7 C                    -0.269044
      8 H                     0.113976
      9 H                     0.099844
     10 H                     0.109451
     11 C                    -0.096109
     12 C                    -0.250871
     13 C                     0.031243
     14 H                     0.186321
     15 C                    -0.248072
     16 S                     0.011140
     17 C                    -0.272317
     18 H                     0.103109
     19 H                     0.107929
     20 H                     0.108473
     21 H                     0.198409
     22 H                     0.111187
     23 H                     0.110983
     24 H                     0.168907
  ----------------------------------------
  Sum of atomic charges =     0.000000

                    Cartesian Multipole Moments
 -----------------------------------------------------------------
    Charge (ESU x 10^10)
                -0.0000
    Dipole Moment (Debye)
         X      -1.3913      Y       0.4902      Z      -0.3622
       Tot       1.5189
    Quadrupole Moments (Debye-Ang)
        XX     -91.1080     XY       4.2255     YY     -73.9031
        XZ       0.1745     YZ       4.1987     ZZ     -86.1640

 Total job time:  54.34s(wall), 1890.40s(cpu)
        *  Thank you very much for using Q-Chem.  Have a nice day.  *
