 Q-Chem 5.4, Q-Chem, Inc., Pleasanton, CA (2021)
 Q-Chem 5.4.0 for Intel X86 EM64T Linux

User input:
--------------------------------------------------------------
$molecule
0 1
C	0.126876	-3.887800	-0.713264
C	-0.113784	-3.701456	0.651267
C	-0.188043	-2.345170	1.068787
H	-0.236019	-4.545233	1.346782
C	-0.000000	-1.450135	-0.000000
S	0.265612	-2.321334	-1.504247
C	-0.439357	-1.934439	2.493059
H	-0.554378	-2.819799	3.147809
H	-1.362899	-1.326210	2.589987
H	0.394786	-1.325374	2.899892
C	0.000000	0.000000	0.000000
C	0.215623	0.816623	1.113020
C	0.571102	2.161411	0.820578
H	0.116470	0.441406	2.142881
C	0.634696	2.401276	-0.563588
S	0.247646	0.938489	-1.464748
C	0.843182	3.190669	1.882380
H	0.728628	2.757614	2.894974
H	0.148095	4.052998	1.808137
H	1.873652	3.596752	1.808230
H	0.879464	3.327513	-1.097114
H	-0.698744	-4.420219	-1.198647
H	1.069193	-4.419395	-0.886933
H	-1.063595	-1.450628	-0.187526
$end

$rem
JOBTYPE		SP
EXCHANGE	HF
CORRELATION	pRIMP2
BASIS		cc-pvtz
METHOD		rimp2
AUX_BASIS	rimp2-cc-pvtz
SOLVENT_METHOD	PCM
PURECART	11111
SYMMETRY	false
MEM_TOTAL	110000
SCF_CONVERGENCE = 6
THRESH=10
GUI = 2
$end

$solvent
dielectric 4.90
$end
--------------------------------------------------------------

             Standard Nuclear Orientation (Angstroms)
    I     Atom           X                Y                Z
 ----------------------------------------------------------------
    1      C       0.1268760000    -3.8878000000    -0.7132640000
    2      C      -0.1137840000    -3.7014560000     0.6512670000
    3      C      -0.1880430000    -2.3451700000     1.0687870000
    4      H      -0.2360190000    -4.5452330000     1.3467820000
    5      C       0.0000000000    -1.4501350000     0.0000000000
    6      S       0.2656120000    -2.3213340000    -1.5042470000
    7      C      -0.4393570000    -1.9344390000     2.4930590000
    8      H      -0.5543780000    -2.8197990000     3.1478090000
    9      H      -1.3628990000    -1.3262100000     2.5899870000
   10      H       0.3947860000    -1.3253740000     2.8998920000
   11      C       0.0000000000     0.0000000000     0.0000000000
   12      C       0.2156230000     0.8166230000     1.1130200000
   13      C       0.5711020000     2.1614110000     0.8205780000
   14      H       0.1164700000     0.4414060000     2.1428810000
   15      C       0.6346960000     2.4012760000    -0.5635880000
   16      S       0.2476460000     0.9384890000    -1.4647480000
   17      C       0.8431820000     3.1906690000     1.8823800000
   18      H       0.7286280000     2.7576140000     2.8949740000
   19      H       0.1480950000     4.0529980000     1.8081370000
   20      H       1.8736520000     3.5967520000     1.8082300000
   21      H       0.8794640000     3.3275130000    -1.0971140000
   22      H      -0.6987440000    -4.4202190000    -1.1986470000
   23      H       1.0691930000    -4.4193950000    -0.8869330000
   24      H      -1.0635950000    -1.4506280000    -0.1875260000
 ----------------------------------------------------------------

   10   -1180.7503126527      5.09e-07  Convergence criterion met
 Total energy in the final basis set =    -1180.7503126527
        RIMP2         total energy =     -1182.7574864380 a.u.

                    Orbital Energies (a.u.)
 --------------------------------------------------------------

 Alpha MOs
 -- Occupied --
-91.9841 -91.9467 -11.2879 -11.2662 -11.2608 -11.2558 -11.2499 -11.2446
-11.2341 -11.2292 -11.2282 -11.2230  -8.9838  -8.9513  -6.6647  -6.6642
 -6.6635  -6.6326  -6.6316  -6.6303  -1.2013  -1.1525  -1.0591  -1.0319
 -1.0010  -0.9620  -0.9165  -0.8999  -0.8174  -0.7620  -0.7305  -0.7064
 -0.6553  -0.6468  -0.6105  -0.5946  -0.5851  -0.5684  -0.5632  -0.5495
 -0.5466  -0.5347  -0.5235  -0.5007  -0.4869  -0.4807  -0.4686  -0.4443
 -0.3607  -0.3432  -0.3246  -0.2635

          Ground-State Mulliken Net Atomic Charges

     Atom                 Charge (a.u.)
  ----------------------------------------
      1 C                    -0.073280
      2 C                    -0.316652
      3 C                    -0.043680
      4 H                     0.179737
      5 C                     0.122309
      6 S                    -0.178202
      7 C                    -0.302914
      8 H                     0.122965
      9 H                     0.110969
     10 H                     0.104744
     11 C                    -0.058426
     12 C                    -0.267227
     13 C                     0.034655
     14 H                     0.190928
     15 C                    -0.274085
     16 S                     0.002556
     17 C                    -0.272305
     18 H                     0.100281
     19 H                     0.108393
     20 H                     0.108533
     21 H                     0.197796
     22 H                     0.111164
     23 H                     0.114203
     24 H                     0.177538
  ----------------------------------------
  Sum of atomic charges =     0.000000

                    Cartesian Multipole Moments
 -----------------------------------------------------------------
    Charge (ESU x 10^10)
                -0.0000
    Dipole Moment (Debye)
         X      -0.9189      Y      -0.3501      Z       3.6076
       Tot       3.7392
    Quadrupole Moments (Debye-Ang)
        XX     -91.2466     XY       4.5488     YY     -73.5599
        XZ       0.4616     YZ      -2.1209     ZZ     -85.5575

 Total job time:  57.17s(wall), 1978.47s(cpu)
        *  Thank you very much for using Q-Chem.  Have a nice day.  *
