 Q-Chem 5.4, Q-Chem, Inc., Pleasanton, CA (2021)
 Q-Chem 5.4.0 for Intel X86 EM64T Linux

User input:
--------------------------------------------------------------
$molecule
0 1
C	-0.554267	-3.887800	-0.466510
C	0.507121	-3.701456	0.424173
C	0.831575	-2.345170	0.697244
H	1.048337	-4.545233	0.877789
C	0.000000	-1.450135	0.000000
S	-1.169911	-2.321334	-0.982150
C	1.939374	-1.934439	1.627024
H	2.448894	-2.819799	2.054010
H	1.561545	-1.326210	2.475299
H	2.708773	-1.325374	1.108051
C	0.000000	0.000000	0.000000
C	0.645024	0.545262	1.113020
C	1.707554	1.442954	0.820578
H	0.348587	0.294774	2.142881
C	1.897227	1.602964	-0.563588
S	0.741155	0.626722	-1.464748
C	2.520787	2.130014	1.882380
H	2.178559	1.840981	2.894974
H	2.446016	3.235078	1.808137
H	3.597818	1.871604	1.808230
H	2.628997	2.221299	-1.097114
H	-1.387431	-4.420219	0.005807
H	-0.233510	-4.419395	-1.369415
H	-0.694200	-1.450628	0.827337
$end

$rem
JOBTYPE		SP
EXCHANGE	HF
CORRELATION	pRIMP2
BASIS		cc-pvtz
METHOD		rimp2
AUX_BASIS	rimp2-cc-pvtz
SOLVENT_METHOD	PCM
PURECART	11111
SYMMETRY	false
MEM_TOTAL	110000
SCF_CONVERGENCE = 6
THRESH=10
GUI = 2
$end

$solvent
dielectric 4.90
$end
--------------------------------------------------------------

             Standard Nuclear Orientation (Angstroms)
    I     Atom           X                Y                Z
 ----------------------------------------------------------------
    1      C      -0.5542670000    -3.8878000000    -0.4665100000
    2      C       0.5071210000    -3.7014560000     0.4241730000
    3      C       0.8315750000    -2.3451700000     0.6972440000
    4      H       1.0483370000    -4.5452330000     0.8777890000
    5      C       0.0000000000    -1.4501350000     0.0000000000
    6      S      -1.1699110000    -2.3213340000    -0.9821500000
    7      C       1.9393740000    -1.9344390000     1.6270240000
    8      H       2.4488940000    -2.8197990000     2.0540100000
    9      H       1.5615450000    -1.3262100000     2.4752990000
   10      H       2.7087730000    -1.3253740000     1.1080510000
   11      C       0.0000000000     0.0000000000     0.0000000000
   12      C       0.6450240000     0.5452620000     1.1130200000
   13      C       1.7075540000     1.4429540000     0.8205780000
   14      H       0.3485870000     0.2947740000     2.1428810000
   15      C       1.8972270000     1.6029640000    -0.5635880000
   16      S       0.7411550000     0.6267220000    -1.4647480000
   17      C       2.5207870000     2.1300140000     1.8823800000
   18      H       2.1785590000     1.8409810000     2.8949740000
   19      H       2.4460160000     3.2350780000     1.8081370000
   20      H       3.5978180000     1.8716040000     1.8082300000
   21      H       2.6289970000     2.2212990000    -1.0971140000
   22      H      -1.3874310000    -4.4202190000     0.0058070000
   23      H      -0.2335100000    -4.4193950000    -1.3694150000
   24      H      -0.6942000000    -1.4506280000     0.8273370000
 ----------------------------------------------------------------

   10   -1180.7096039494      8.66e-07  Convergence criterion met
 Total energy in the final basis set =    -1180.7096039494
        RIMP2         total energy =     -1182.7299847220 a.u.

                    Orbital Energies (a.u.)
 --------------------------------------------------------------

 Alpha MOs
 -- Occupied --
-91.9767 -91.9368 -11.2809 -11.2610 -11.2601 -11.2561 -11.2530 -11.2523
-11.2384 -11.2316 -11.2300 -11.2164  -8.9775  -8.9415  -6.6584  -6.6575
 -6.6572  -6.6229  -6.6219  -6.6207  -1.2016  -1.1544  -1.0577  -1.0277
 -1.0021  -0.9636  -0.9118  -0.9026  -0.8100  -0.7590  -0.7379  -0.7095
 -0.6520  -0.6407  -0.6138  -0.5925  -0.5891  -0.5711  -0.5602  -0.5550
 -0.5397  -0.5296  -0.5228  -0.5095  -0.4828  -0.4651  -0.4525  -0.4437
 -0.3523  -0.3404  -0.3208  -0.2708

          Ground-State Mulliken Net Atomic Charges

     Atom                 Charge (a.u.)
  ----------------------------------------
      1 C                    -0.070420
      2 C                    -0.331040
      3 C                    -0.052652
      4 H                     0.177110
      5 C                     0.102320
      6 S                    -0.196698
      7 C                    -0.294414
      8 H                     0.120963
      9 H                     0.100411
     10 H                     0.115605
     11 C                    -0.126776
     12 C                    -0.190624
     13 C                    -0.001282
     14 H                     0.192684
     15 C                    -0.190197
     16 S                     0.009102
     17 C                    -0.274703
     18 H                     0.103727
     19 H                     0.116096
     20 H                     0.107424
     21 H                     0.200277
     22 H                     0.105915
     23 H                     0.108600
     24 H                     0.168572
  ----------------------------------------
  Sum of atomic charges =     0.000000

                    Cartesian Multipole Moments
 -----------------------------------------------------------------
    Charge (ESU x 10^10)
                -0.0000
    Dipole Moment (Debye)
         X       3.4807      Y       0.7790      Z       4.0241
       Tot       5.3773
    Quadrupole Moments (Debye-Ang)
        XX     -84.5522     XY       4.0034     YY     -80.8264
        XZ       0.8141     YZ      -2.7372     ZZ     -86.0689

 Total job time:  60.36s(wall), 1980.61s(cpu)
        *  Thank you very much for using Q-Chem.  Have a nice day.  *
