 Q-Chem 5.4, Q-Chem, Inc., Pleasanton, CA (2021)
 Q-Chem 5.4.0 for Intel X86 EM64T Linux

User input:
--------------------------------------------------------------
$molecule
0 1
C	-0.124726	-3.887800	-0.713644
C	0.115824	-3.701456	0.650907
C	0.188844	-2.345170	1.068646
H	0.238841	-4.545233	1.346284
C	-0.000000	-1.450135	-0.000000
S	-0.264890	-2.321334	-1.504375
C	0.439816	-1.934439	2.492978
H	0.555669	-2.819799	3.147582
H	-0.394879	-1.326210	2.899931
H	1.362799	-1.325374	2.589982
C	0.000000	0.000000	0.000000
C	0.215623	0.816623	1.113020
C	0.571102	2.161411	0.820578
H	0.116470	0.441406	2.142881
C	0.634696	2.401276	-0.563588
S	0.247646	0.938489	-1.464748
C	0.843182	3.190669	1.882380
H	0.728628	2.757614	2.894974
H	0.148095	4.052998	1.808137
H	1.873652	3.596752	1.808230
H	0.879464	3.327513	-1.097114
H	-1.066566	-4.420219	-0.887375
H	0.701364	-4.419395	-1.199130
H	-1.063590	-1.450628	0.187554
$end

$rem
JOBTYPE		SP
EXCHANGE	HF
CORRELATION	pRIMP2
BASIS		cc-pvtz
METHOD		rimp2
AUX_BASIS	rimp2-cc-pvtz
SOLVENT_METHOD	PCM
PURECART	11111
SYMMETRY	false
MEM_TOTAL	110000
SCF_CONVERGENCE = 6
THRESH=10
GUI = 2
$end

$solvent
dielectric 4.90
$end
--------------------------------------------------------------

             Standard Nuclear Orientation (Angstroms)
    I     Atom           X                Y                Z
 ----------------------------------------------------------------
    1      C      -0.1247260000    -3.8878000000    -0.7136440000
    2      C       0.1158240000    -3.7014560000     0.6509070000
    3      C       0.1888440000    -2.3451700000     1.0686460000
    4      H       0.2388410000    -4.5452330000     1.3462840000
    5      C       0.0000000000    -1.4501350000     0.0000000000
    6      S      -0.2648900000    -2.3213340000    -1.5043750000
    7      C       0.4398160000    -1.9344390000     2.4929780000
    8      H       0.5556690000    -2.8197990000     3.1475820000
    9      H      -0.3948790000    -1.3262100000     2.8999310000
   10      H       1.3627990000    -1.3253740000     2.5899820000
   11      C       0.0000000000     0.0000000000     0.0000000000
   12      C       0.2156230000     0.8166230000     1.1130200000
   13      C       0.5711020000     2.1614110000     0.8205780000
   14      H       0.1164700000     0.4414060000     2.1428810000
   15      C       0.6346960000     2.4012760000    -0.5635880000
   16      S       0.2476460000     0.9384890000    -1.4647480000
   17      C       0.8431820000     3.1906690000     1.8823800000
   18      H       0.7286280000     2.7576140000     2.8949740000
   19      H       0.1480950000     4.0529980000     1.8081370000
   20      H       1.8736520000     3.5967520000     1.8082300000
   21      H       0.8794640000     3.3275130000    -1.0971140000
   22      H      -1.0665660000    -4.4202190000    -0.8873750000
   23      H       0.7013640000    -4.4193950000    -1.1991300000
   24      H      -1.0635900000    -1.4506280000     0.1875540000
 ----------------------------------------------------------------

   10   -1180.7500336545      5.06e-07  Convergence criterion met
 Total energy in the final basis set =    -1180.7500336545
        RIMP2         total energy =     -1182.7579056754 a.u.

                    Orbital Energies (a.u.)
 --------------------------------------------------------------

 Alpha MOs
 -- Occupied --
-91.9836 -91.9464 -11.2880 -11.2664 -11.2609 -11.2553 -11.2500 -11.2448
-11.2340 -11.2293 -11.2283 -11.2230  -8.9832  -8.9510  -6.6641  -6.6636
 -6.6629  -6.6324  -6.6314  -6.6301  -1.2013  -1.1524  -1.0591  -1.0317
 -1.0015  -0.9615  -0.9166  -0.8999  -0.8173  -0.7622  -0.7269  -0.7083
 -0.6563  -0.6482  -0.6108  -0.5944  -0.5873  -0.5690  -0.5596  -0.5510
 -0.5440  -0.5353  -0.5245  -0.5012  -0.4850  -0.4806  -0.4680  -0.4442
 -0.3608  -0.3432  -0.3241  -0.2636

          Ground-State Mulliken Net Atomic Charges

     Atom                 Charge (a.u.)
  ----------------------------------------
      1 C                    -0.073528
      2 C                    -0.314026
      3 C                    -0.066066
      4 H                     0.180170
      5 C                     0.136566
      6 S                    -0.180059
      7 C                    -0.300187
      8 H                     0.122841
      9 H                     0.100592
     10 H                     0.114912
     11 C                    -0.043841
     12 C                    -0.296092
     13 C                     0.049042
     14 H                     0.190103
     15 C                    -0.282067
     16 S                     0.012017
     17 C                    -0.272155
     18 H                     0.100499
     19 H                     0.108422
     20 H                     0.108555
     21 H                     0.196193
     22 H                     0.111838
     23 H                     0.113457
     24 H                     0.182815
  ----------------------------------------
  Sum of atomic charges =     0.000000

                    Cartesian Multipole Moments
 -----------------------------------------------------------------
    Charge (ESU x 10^10)
                -0.0000
    Dipole Moment (Debye)
         X      -0.0751      Y      -0.3827      Z       3.9454
       Tot       3.9646
    Quadrupole Moments (Debye-Ang)
        XX     -91.0165     XY       3.3146     YY     -73.7231
        XZ       0.6701     YZ      -2.6091     ZZ     -85.7614

 Total job time:  87.03s(wall), 1991.00s(cpu)
        *  Thank you very much for using Q-Chem.  Have a nice day.  *
