 Q-Chem 5.4, Q-Chem, Inc., Pleasanton, CA (2021)
 Q-Chem 5.4.0 for Intel X86 EM64T Linux

User input:
--------------------------------------------------------------
$molecule
0 1
C	0.554267	-3.887800	0.466510
C	-0.507121	-3.701456	-0.424173
C	-0.831575	-2.345170	-0.697244
H	-1.048337	-4.545233	-0.877789
C	0.000000	-1.450135	0.000000
S	1.169911	-2.321334	0.982150
C	-1.939374	-1.934439	-1.627024
H	-2.448894	-2.819799	-2.054010
H	-1.561545	-1.326210	-2.475299
H	-2.708773	-1.325374	-1.108051
C	0.000000	0.000000	0.000000
C	0.645024	0.545262	1.113020
C	1.707554	1.442954	0.820578
H	0.348587	0.294774	2.142881
C	1.897227	1.602964	-0.563588
S	0.741155	0.626722	-1.464748
C	2.520787	2.130014	1.882380
H	2.178559	1.840981	2.894974
H	2.446016	3.235078	1.808137
H	3.597818	1.871604	1.808230
H	2.628997	2.221299	-1.097114
H	1.387431	-4.420219	-0.005807
H	0.233510	-4.419395	1.369415
H	0.694200	-1.450628	-0.827337
$end

$rem
JOBTYPE		SP
EXCHANGE	HF
CORRELATION	pRIMP2
BASIS		cc-pvtz
METHOD		rimp2
AUX_BASIS	rimp2-cc-pvtz
SOLVENT_METHOD	PCM
PURECART	11111
SYMMETRY	false
MEM_TOTAL	110000
SCF_CONVERGENCE = 6
THRESH=10
GUI = 2
$end

$solvent
dielectric 4.90
$end
--------------------------------------------------------------

             Standard Nuclear Orientation (Angstroms)
    I     Atom           X                Y                Z
 ----------------------------------------------------------------
    1      C       0.5542670000    -3.8878000000     0.4665100000
    2      C      -0.5071210000    -3.7014560000    -0.4241730000
    3      C      -0.8315750000    -2.3451700000    -0.6972440000
    4      H      -1.0483370000    -4.5452330000    -0.8777890000
    5      C       0.0000000000    -1.4501350000     0.0000000000
    6      S       1.1699110000    -2.3213340000     0.9821500000
    7      C      -1.9393740000    -1.9344390000    -1.6270240000
    8      H      -2.4488940000    -2.8197990000    -2.0540100000
    9      H      -1.5615450000    -1.3262100000    -2.4752990000
   10      H      -2.7087730000    -1.3253740000    -1.1080510000
   11      C       0.0000000000     0.0000000000     0.0000000000
   12      C       0.6450240000     0.5452620000     1.1130200000
   13      C       1.7075540000     1.4429540000     0.8205780000
   14      H       0.3485870000     0.2947740000     2.1428810000
   15      C       1.8972270000     1.6029640000    -0.5635880000
   16      S       0.7411550000     0.6267220000    -1.4647480000
   17      C       2.5207870000     2.1300140000     1.8823800000
   18      H       2.1785590000     1.8409810000     2.8949740000
   19      H       2.4460160000     3.2350780000     1.8081370000
   20      H       3.5978180000     1.8716040000     1.8082300000
   21      H       2.6289970000     2.2212990000    -1.0971140000
   22      H       1.3874310000    -4.4202190000    -0.0058070000
   23      H       0.2335100000    -4.4193950000     1.3694150000
   24      H       0.6942000000    -1.4506280000    -0.8273370000
 ----------------------------------------------------------------

   10   -1180.7075501159      7.10e-07  Convergence criterion met
 Total energy in the final basis set =    -1180.7075501159
        RIMP2         total energy =     -1182.7236149847 a.u.

                    Orbital Energies (a.u.)
 --------------------------------------------------------------

 Alpha MOs
 -- Occupied --
-91.9777 -91.9397 -11.2778 -11.2668 -11.2555 -11.2526 -11.2514 -11.2494
-11.2379 -11.2304 -11.2297 -11.2143  -8.9792  -8.9443  -6.6600  -6.6592
 -6.6588  -6.6257  -6.6246  -6.6233  -1.2041  -1.1535  -1.0591  -1.0247
 -1.0042  -0.9602  -0.9136  -0.9006  -0.8076  -0.7694  -0.7329  -0.7033
 -0.6516  -0.6357  -0.6137  -0.5887  -0.5789  -0.5755  -0.5682  -0.5510
 -0.5412  -0.5342  -0.5136  -0.5071  -0.4867  -0.4669  -0.4630  -0.4423
 -0.3534  -0.3450  -0.3239  -0.2626

          Ground-State Mulliken Net Atomic Charges

     Atom                 Charge (a.u.)
  ----------------------------------------
      1 C                    -0.081123
      2 C                    -0.327423
      3 C                    -0.061608
      4 H                     0.174099
      5 C                     0.094086
      6 S                    -0.189949
      7 C                    -0.279235
      8 H                     0.114894
      9 H                     0.102185
     10 H                     0.108290
     11 C                    -0.085444
     12 C                    -0.231249
     13 C                     0.029691
     14 H                     0.192331
     15 C                    -0.206034
     16 S                     0.001690
     17 C                    -0.267119
     18 H                     0.103569
     19 H                     0.109251
     20 H                     0.107870
     21 H                     0.200178
     22 H                     0.108743
     23 H                     0.106836
     24 H                     0.175470
  ----------------------------------------
  Sum of atomic charges =     0.000000

                    Cartesian Multipole Moments
 -----------------------------------------------------------------
    Charge (ESU x 10^10)
                -0.0000
    Dipole Moment (Debye)
         X       0.5948      Y       0.6948      Z      -0.3099
       Tot       0.9657
    Quadrupole Moments (Debye-Ang)
        XX     -84.4907     XY       7.7579     YY     -81.3743
        XZ       0.7484     YZ       4.3092     ZZ     -85.8143

 Total job time:  55.76s(wall), 1954.84s(cpu)
        *  Thank you very much for using Q-Chem.  Have a nice day.  *
