 Q-Chem 5.4, Q-Chem, Inc., Pleasanton, CA (2021)
 Q-Chem 5.4.0 for Intel X86 EM64T Linux

User input:
--------------------------------------------------------------
$molecule
0 1
C	-0.361285	-3.887800	-0.627947
C	0.331462	-3.701456	0.572038
C	0.542953	-2.345170	0.939610
H	0.684893	-4.545233	1.183405
C	0.000000	-1.450135	0.000000
S	-0.763441	-2.321334	-1.323052
C	1.265941	-1.934439	2.192207
H	1.598695	-2.819799	2.767709
H	0.620770	-1.326210	2.860100
H	2.166438	-1.325374	1.967682
C	0.000000	0.000000	0.000000
C	0.143630	0.832309	1.113020
C	0.380550	2.202961	0.820578
H	0.077556	0.449877	2.142881
C	0.422995	2.447456	-0.563588
S	0.164909	0.956502	-1.464748
C	0.561888	3.252016	1.882380
H	0.485513	2.810624	2.894974
H	-0.205711	4.050482	1.808137
H	1.553045	3.746365	1.808230
H	0.586105	3.391501	-1.097114
H	-1.305744	-4.420219	-0.469073
H	0.248940	-4.419395	-1.366694
H	-0.935300	-1.450628	0.540012
$end

$rem
JOBTYPE		SP
EXCHANGE	HF
CORRELATION	pRIMP2
BASIS		cc-pvtz
METHOD		rimp2
AUX_BASIS	rimp2-cc-pvtz
SOLVENT_METHOD	PCM
PURECART	11111
SYMMETRY	false
MEM_TOTAL	110000
SCF_CONVERGENCE = 6
THRESH=10
GUI = 2
$end

$solvent
dielectric 4.90
$end
--------------------------------------------------------------

             Standard Nuclear Orientation (Angstroms)
    I     Atom           X                Y                Z
 ----------------------------------------------------------------
    1      C      -0.3612850000    -3.8878000000    -0.6279470000
    2      C       0.3314620000    -3.7014560000     0.5720380000
    3      C       0.5429530000    -2.3451700000     0.9396100000
    4      H       0.6848930000    -4.5452330000     1.1834050000
    5      C       0.0000000000    -1.4501350000     0.0000000000
    6      S      -0.7634410000    -2.3213340000    -1.3230520000
    7      C       1.2659410000    -1.9344390000     2.1922070000
    8      H       1.5986950000    -2.8197990000     2.7677090000
    9      H       0.6207700000    -1.3262100000     2.8601000000
   10      H       2.1664380000    -1.3253740000     1.9676820000
   11      C       0.0000000000     0.0000000000     0.0000000000
   12      C       0.1436300000     0.8323090000     1.1130200000
   13      C       0.3805500000     2.2029610000     0.8205780000
   14      H       0.0775560000     0.4498770000     2.1428810000
   15      C       0.4229950000     2.4474560000    -0.5635880000
   16      S       0.1649090000     0.9565020000    -1.4647480000
   17      C       0.5618880000     3.2520160000     1.8823800000
   18      H       0.4855130000     2.8106240000     2.8949740000
   19      H      -0.2057110000     4.0504820000     1.8081370000
   20      H       1.5530450000     3.7463650000     1.8082300000
   21      H       0.5861050000     3.3915010000    -1.0971140000
   22      H      -1.3057440000    -4.4202190000    -0.4690730000
   23      H       0.2489400000    -4.4193950000    -1.3666940000
   24      H      -0.9353000000    -1.4506280000     0.5400120000
 ----------------------------------------------------------------

   10   -1180.7564779433      5.00e-07  Convergence criterion met
 Total energy in the final basis set =    -1180.7564779433
        RIMP2         total energy =     -1182.7631324046 a.u.

                    Orbital Energies (a.u.)
 --------------------------------------------------------------

 Alpha MOs
 -- Occupied --
-91.9831 -91.9454 -11.2874 -11.2655 -11.2601 -11.2569 -11.2507 -11.2439
-11.2330 -11.2328 -11.2288 -11.2223  -8.9827  -8.9500  -6.6637  -6.6631
 -6.6625  -6.6314  -6.6304  -6.6291  -1.2004  -1.1528  -1.0587  -1.0299
 -1.0025  -0.9613  -0.9148  -0.9004  -0.8169  -0.7616  -0.7273  -0.7078
 -0.6581  -0.6467  -0.6112  -0.5925  -0.5870  -0.5698  -0.5592  -0.5533
 -0.5421  -0.5334  -0.5210  -0.5035  -0.4841  -0.4836  -0.4657  -0.4461
 -0.3586  -0.3428  -0.3230  -0.2675

          Ground-State Mulliken Net Atomic Charges

     Atom                 Charge (a.u.)
  ----------------------------------------
      1 C                    -0.074160
      2 C                    -0.317173
      3 C                    -0.065335
      4 H                     0.179126
      5 C                     0.134478
      6 S                    -0.178477
      7 C                    -0.289979
      8 H                     0.120122
      9 H                     0.097531
     10 H                     0.117693
     11 C                    -0.058754
     12 C                    -0.284131
     13 C                     0.037675
     14 H                     0.190004
     15 C                    -0.269548
     16 S                     0.012910
     17 C                    -0.273217
     18 H                     0.100991
     19 H                     0.108722
     20 H                     0.108585
     21 H                     0.195866
     22 H                     0.112327
     23 H                     0.112175
     24 H                     0.182569
  ----------------------------------------
  Sum of atomic charges =     0.000000

                    Cartesian Multipole Moments
 -----------------------------------------------------------------
    Charge (ESU x 10^10)
                -0.0000
    Dipole Moment (Debye)
         X       0.7319      Y      -0.1626      Z       3.9497
       Tot       4.0202
    Quadrupole Moments (Debye-Ang)
        XX     -91.1417     XY       1.2483     YY     -73.5436
        XZ       0.5188     YZ      -2.6130     ZZ     -86.1275

 Total job time:  59.29s(wall), 1921.09s(cpu)
        *  Thank you very much for using Q-Chem.  Have a nice day.  *
