 Q-Chem 5.4, Q-Chem, Inc., Pleasanton, CA (2021)
 Q-Chem 5.4.0 for Intel X86 EM64T Linux

User input:
--------------------------------------------------------------
$molecule
0 1
C	0.724460	-3.887800	0.001092
C	-0.661131	-3.701456	0.001036
C	-1.085203	-2.345170	0.000406
H	-1.367305	-4.545233	0.001433
C	0.000000	-1.450135	0.000000
S	1.527517	-2.321334	0.000367
C	-2.531478	-1.934439	0.000233
H	-3.196254	-2.819799	0.000656
H	-2.787305	-1.326210	-0.892447
H	-2.787282	-1.325374	0.892350
C	0.000000	0.000000	0.000000
C	0.143630	0.832309	1.113020
C	0.380550	2.202961	0.820578
H	0.077556	0.449877	2.142881
C	0.422995	2.447456	-0.563588
S	0.164909	0.956502	-1.464748
C	0.561888	3.252016	1.882380
H	0.485513	2.810624	2.894974
H	-0.205711	4.050482	1.808137
H	1.553045	3.746365	1.808230
H	0.586105	3.391501	-1.097114
H	1.059101	-4.420219	-0.896272
H	1.059122	-4.419395	0.898936
H	-0.000014	-1.450628	-1.080000
$end

$rem
JOBTYPE		SP
EXCHANGE	HF
CORRELATION	pRIMP2
BASIS		cc-pvtz
METHOD		rimp2
AUX_BASIS	rimp2-cc-pvtz
SOLVENT_METHOD	PCM
PURECART	11111
SYMMETRY	false
MEM_TOTAL	110000
SCF_CONVERGENCE = 6
THRESH=10
GUI = 2
$end

$solvent
dielectric 4.90
$end
--------------------------------------------------------------

             Standard Nuclear Orientation (Angstroms)
    I     Atom           X                Y                Z
 ----------------------------------------------------------------
    1      C       0.7244600000    -3.8878000000     0.0010920000
    2      C      -0.6611310000    -3.7014560000     0.0010360000
    3      C      -1.0852030000    -2.3451700000     0.0004060000
    4      H      -1.3673050000    -4.5452330000     0.0014330000
    5      C       0.0000000000    -1.4501350000     0.0000000000
    6      S       1.5275170000    -2.3213340000     0.0003670000
    7      C      -2.5314780000    -1.9344390000     0.0002330000
    8      H      -3.1962540000    -2.8197990000     0.0006560000
    9      H      -2.7873050000    -1.3262100000    -0.8924470000
   10      H      -2.7872820000    -1.3253740000     0.8923500000
   11      C       0.0000000000     0.0000000000     0.0000000000
   12      C       0.1436300000     0.8323090000     1.1130200000
   13      C       0.3805500000     2.2029610000     0.8205780000
   14      H       0.0775560000     0.4498770000     2.1428810000
   15      C       0.4229950000     2.4474560000    -0.5635880000
   16      S       0.1649090000     0.9565020000    -1.4647480000
   17      C       0.5618880000     3.2520160000     1.8823800000
   18      H       0.4855130000     2.8106240000     2.8949740000
   19      H      -0.2057110000     4.0504820000     1.8081370000
   20      H       1.5530450000     3.7463650000     1.8082300000
   21      H       0.5861050000     3.3915010000    -1.0971140000
   22      H       1.0591010000    -4.4202190000    -0.8962720000
   23      H       1.0591220000    -4.4193950000     0.8989360000
   24      H      -0.0000140000    -1.4506280000    -1.0800000000
 ----------------------------------------------------------------

   10   -1180.7597943188      5.06e-07  Convergence criterion met
 Total energy in the final basis set =    -1180.7597943188
        RIMP2         total energy =     -1182.7637824671 a.u.

                    Orbital Energies (a.u.)
 --------------------------------------------------------------

 Alpha MOs
 -- Occupied --
-91.9869 -91.9417 -11.2782 -11.2662 -11.2619 -11.2553 -11.2510 -11.2409
-11.2383 -11.2312 -11.2288 -11.2182  -8.9864  -8.9463  -6.6673  -6.6668
 -6.6662  -6.6277  -6.6267  -6.6254  -1.1970  -1.1537  -1.0572  -1.0258
 -1.0027  -0.9625  -0.9129  -0.9005  -0.8124  -0.7619  -0.7402  -0.7033
 -0.6534  -0.6334  -0.6112  -0.5875  -0.5771  -0.5722  -0.5684  -0.5532
 -0.5420  -0.5295  -0.5112  -0.5054  -0.4916  -0.4828  -0.4634  -0.4490
 -0.3566  -0.3403  -0.3124  -0.2824

          Ground-State Mulliken Net Atomic Charges

     Atom                 Charge (a.u.)
  ----------------------------------------
      1 C                    -0.074630
      2 C                    -0.328869
      3 C                    -0.033770
      4 H                     0.176834
      5 C                     0.110627
      6 S                    -0.175417
      7 C                    -0.266847
      8 H                     0.112211
      9 H                     0.101920
     10 H                     0.105319
     11 C                    -0.114320
     12 C                    -0.219357
     13 C                     0.021353
     14 H                     0.184259
     15 C                    -0.243873
     16 S                     0.015690
     17 C                    -0.271993
     18 H                     0.103003
     19 H                     0.107487
     20 H                     0.108366
     21 H                     0.199342
     22 H                     0.110034
     23 H                     0.112164
     24 H                     0.160466
  ----------------------------------------
  Sum of atomic charges =     0.000000

                    Cartesian Multipole Moments
 -----------------------------------------------------------------
    Charge (ESU x 10^10)
                -0.0000
    Dipole Moment (Debye)
         X      -2.0799      Y       0.7741      Z       0.7483
       Tot       2.3421
    Quadrupole Moments (Debye-Ang)
        XX     -91.4278     XY       5.5496     YY     -74.0581
        XZ      -0.1016     YZ       2.4284     ZZ     -85.8942

 Total job time:  53.30s(wall), 1852.51s(cpu)
        *  Thank you very much for using Q-Chem.  Have a nice day.  *
