 Q-Chem 5.4, Q-Chem, Inc., Pleasanton, CA (2021)
 Q-Chem 5.4.0 for Intel X86 EM64T Linux

User input:
--------------------------------------------------------------
$molecule
0 1
C	0.337756	-3.873100	0.724460
C	0.321571	-3.687462	-0.661131
C	0.203990	-2.336281	-1.085203
H	0.394716	-4.528062	-1.367305
C	0.126388	-1.444617	0.000000
S	0.201952	-2.312532	1.527517
C	0.168365	-1.927099	-2.531478
H	0.245108	-2.809126	-3.196254
H	1.004638	-1.243381	-2.787305
H	-0.773440	-1.398104	-2.787282
C	0.000000	0.000000	0.000000
C	-0.003081	0.844605	1.113020
C	-0.007772	2.235575	0.820578
H	-0.001743	0.456510	2.142881
C	-0.008427	2.483726	-0.563588
S	-0.003691	0.970607	-1.464748
C	-0.011355	3.300181	1.882380
H	-0.009922	2.852233	2.894974
H	-0.905944	3.953225	1.808137
H	0.878901	3.959133	1.808230
H	-0.011727	3.441752	-1.097114
H	1.278108	-4.325283	1.059101
H	-0.510339	-4.480925	1.059122
H	1.202321	-1.350980	-0.000014
$end

$rem
JOBTYPE		SP
EXCHANGE	HF
CORRELATION	pRIMP2
BASIS		cc-pvtz
METHOD		rimp2
AUX_BASIS	rimp2-cc-pvtz
SOLVENT_METHOD	PCM
PURECART	11111
SYMMETRY	false
MEM_TOTAL	110000
SCF_CONVERGENCE = 6
THRESH=10
GUI = 2
$end

$solvent
dielectric 4.90
$end
--------------------------------------------------------------

             Standard Nuclear Orientation (Angstroms)
    I     Atom           X                Y                Z
 ----------------------------------------------------------------
    1      C       0.3377560000    -3.8731000000     0.7244600000
    2      C       0.3215710000    -3.6874620000    -0.6611310000
    3      C       0.2039900000    -2.3362810000    -1.0852030000
    4      H       0.3947160000    -4.5280620000    -1.3673050000
    5      C       0.1263880000    -1.4446170000     0.0000000000
    6      S       0.2019520000    -2.3125320000     1.5275170000
    7      C       0.1683650000    -1.9270990000    -2.5314780000
    8      H       0.2451080000    -2.8091260000    -3.1962540000
    9      H       1.0046380000    -1.2433810000    -2.7873050000
   10      H      -0.7734400000    -1.3981040000    -2.7872820000
   11      C       0.0000000000     0.0000000000     0.0000000000
   12      C      -0.0030810000     0.8446050000     1.1130200000
   13      C      -0.0077720000     2.2355750000     0.8205780000
   14      H      -0.0017430000     0.4565100000     2.1428810000
   15      C      -0.0084270000     2.4837260000    -0.5635880000
   16      S      -0.0036910000     0.9706070000    -1.4647480000
   17      C      -0.0113550000     3.3001810000     1.8823800000
   18      H      -0.0099220000     2.8522330000     2.8949740000
   19      H      -0.9059440000     3.9532250000     1.8081370000
   20      H       0.8789010000     3.9591330000     1.8082300000
   21      H      -0.0117270000     3.4417520000    -1.0971140000
   22      H       1.2781080000    -4.3252830000     1.0591010000
   23      H      -0.5103390000    -4.4809250000     1.0591220000
   24      H       1.2023210000    -1.3509800000    -0.0000140000
 ----------------------------------------------------------------

   10   -1180.7601999459      5.04e-07  Convergence criterion met
 Total energy in the final basis set =    -1180.7601999459
        RIMP2         total energy =     -1182.7652809864 a.u.

                    Orbital Energies (a.u.)
 --------------------------------------------------------------

 Alpha MOs
 -- Occupied --
-91.9818 -91.9478 -11.2915 -11.2658 -11.2635 -11.2529 -11.2499 -11.2450
-11.2329 -11.2292 -11.2275 -11.2233  -8.9818  -8.9522  -6.6628  -6.6622
 -6.6615  -6.6336  -6.6326  -6.6313  -1.2023  -1.1523  -1.0602  -1.0285
 -1.0069  -0.9562  -0.9167  -0.9018  -0.8147  -0.7718  -0.7167  -0.7046
 -0.6604  -0.6487  -0.6114  -0.5917  -0.5819  -0.5717  -0.5682  -0.5539
 -0.5420  -0.5337  -0.5163  -0.5089  -0.4897  -0.4866  -0.4579  -0.4461
 -0.3595  -0.3416  -0.3271  -0.2653

          Ground-State Mulliken Net Atomic Charges

     Atom                 Charge (a.u.)
  ----------------------------------------
      1 C                    -0.072889
      2 C                    -0.316477
      3 C                    -0.054733
      4 H                     0.180246
      5 C                     0.144386
      6 S                    -0.185168
      7 C                    -0.313426
      8 H                     0.122921
      9 H                     0.110615
     10 H                     0.116371
     11 C                    -0.018687
     12 C                    -0.319674
     13 C                     0.046314
     14 H                     0.175898
     15 C                    -0.284931
     16 S                     0.008583
     17 C                    -0.272062
     18 H                     0.102790
     19 H                     0.108318
     20 H                     0.108507
     21 H                     0.196847
     22 H                     0.111638
     23 H                     0.113241
     24 H                     0.191372
  ----------------------------------------
  Sum of atomic charges =     0.000000

                    Cartesian Multipole Moments
 -----------------------------------------------------------------
    Charge (ESU x 10^10)
                 0.0000
    Dipole Moment (Debye)
         X       1.0349      Y      -0.4490      Z      -1.0868
       Tot       1.5664
    Quadrupole Moments (Debye-Ang)
        XX     -91.4695     XY      -2.2915     YY     -73.3677
        XZ      -0.0131     YZ       4.9217     ZZ     -85.4867

 Total job time:  75.92s(wall), 1898.37s(cpu)
        *  Thank you very much for using Q-Chem.  Have a nice day.  *
