 Q-Chem 5.4, Q-Chem, Inc., Pleasanton, CA (2021)
 Q-Chem 5.4.0 for Intel X86 EM64T Linux

User input:
--------------------------------------------------------------
$molecule
0 1
C	0.363176	-3.887800	-0.626855
C	-0.329669	-3.701456	0.573074
C	-0.542250	-2.345170	0.940016
H	-0.682412	-4.545233	1.184837
C	0.000000	-1.450135	0.000000
S	0.764076	-2.321334	-1.322686
C	-1.265537	-1.934439	2.192440
H	-1.597559	-2.819799	2.768365
H	-2.166534	-1.326210	1.967653
H	-0.620843	-1.325374	2.860032
C	0.000000	0.000000	0.000000
C	0.645024	0.545262	1.113020
C	1.707554	1.442954	0.820578
H	0.348587	0.294774	2.142881
C	1.897227	1.602964	-0.563588
S	0.741155	0.626722	-1.464748
C	2.520787	2.130014	1.882380
H	2.178559	1.840981	2.894974
H	2.446016	3.235078	1.808137
H	3.597818	1.871604	1.808230
H	2.628997	2.221299	-1.097114
H	-0.246643	-4.420219	-1.365344
H	1.308062	-4.419395	-0.467758
H	-0.935314	-1.450628	-0.539988
$end

$rem
JOBTYPE		SP
EXCHANGE	HF
CORRELATION	pRIMP2
BASIS		cc-pvtz
METHOD		rimp2
AUX_BASIS	rimp2-cc-pvtz
SOLVENT_METHOD	PCM
PURECART	11111
SYMMETRY	false
MEM_TOTAL	110000
SCF_CONVERGENCE = 6
THRESH=10
GUI = 2
$end

$solvent
dielectric 4.90
$end
--------------------------------------------------------------

             Standard Nuclear Orientation (Angstroms)
    I     Atom           X                Y                Z
 ----------------------------------------------------------------
    1      C       0.3631760000    -3.8878000000    -0.6268550000
    2      C      -0.3296690000    -3.7014560000     0.5730740000
    3      C      -0.5422500000    -2.3451700000     0.9400160000
    4      H      -0.6824120000    -4.5452330000     1.1848370000
    5      C       0.0000000000    -1.4501350000     0.0000000000
    6      S       0.7640760000    -2.3213340000    -1.3226860000
    7      C      -1.2655370000    -1.9344390000     2.1924400000
    8      H      -1.5975590000    -2.8197990000     2.7683650000
    9      H      -2.1665340000    -1.3262100000     1.9676530000
   10      H      -0.6208430000    -1.3253740000     2.8600320000
   11      C       0.0000000000     0.0000000000     0.0000000000
   12      C       0.6450240000     0.5452620000     1.1130200000
   13      C       1.7075540000     1.4429540000     0.8205780000
   14      H       0.3485870000     0.2947740000     2.1428810000
   15      C       1.8972270000     1.6029640000    -0.5635880000
   16      S       0.7411550000     0.6267220000    -1.4647480000
   17      C       2.5207870000     2.1300140000     1.8823800000
   18      H       2.1785590000     1.8409810000     2.8949740000
   19      H       2.4460160000     3.2350780000     1.8081370000
   20      H       3.5978180000     1.8716040000     1.8082300000
   21      H       2.6289970000     2.2212990000    -1.0971140000
   22      H      -0.2466430000    -4.4202190000    -1.3653440000
   23      H       1.3080620000    -4.4193950000    -0.4677580000
   24      H      -0.9353140000    -1.4506280000    -0.5399880000
 ----------------------------------------------------------------

   10   -1180.6974963468      9.23e-07  Convergence criterion met
 Total energy in the final basis set =    -1180.6974963468
        RIMP2         total energy =     -1182.7173745541 a.u.

                    Orbital Energies (a.u.)
 --------------------------------------------------------------

 Alpha MOs
 -- Occupied --
-91.9820 -91.9392 -11.2775 -11.2614 -11.2599 -11.2521 -11.2488 -11.2485
-11.2362 -11.2317 -11.2298 -11.2139  -8.9825  -8.9438  -6.6634  -6.6627
 -6.6623  -6.6250  -6.6240  -6.6227  -1.2002  -1.1535  -1.0562  -1.0297
 -0.9978  -0.9657  -0.9103  -0.9016  -0.8129  -0.7564  -0.7398  -0.7060
 -0.6501  -0.6352  -0.6120  -0.5925  -0.5840  -0.5679  -0.5667  -0.5507
 -0.5430  -0.5333  -0.5159  -0.5058  -0.4845  -0.4757  -0.4566  -0.4384
 -0.3541  -0.3405  -0.3242  -0.2570

          Ground-State Mulliken Net Atomic Charges

     Atom                 Charge (a.u.)
  ----------------------------------------
      1 C                    -0.082452
      2 C                    -0.334382
      3 C                    -0.049330
      4 H                     0.174130
      5 C                     0.074525
      6 S                    -0.179276
      7 C                    -0.288372
      8 H                     0.117075
      9 H                     0.109261
     10 H                     0.099585
     11 C                    -0.126341
     12 C                    -0.160067
     13 C                    -0.005706
     14 H                     0.198596
     15 C                    -0.197009
     16 S                     0.011057
     17 C                    -0.269802
     18 H                     0.100943
     19 H                     0.107998
     20 H                     0.106820
     21 H                     0.201406
     22 H                     0.105992
     23 H                     0.109102
     24 H                     0.176246
  ----------------------------------------
  Sum of atomic charges =     0.000000

                    Cartesian Multipole Moments
 -----------------------------------------------------------------
    Charge (ESU x 10^10)
                -0.0000
    Dipole Moment (Debye)
         X       0.1651      Y       0.8467      Z       3.1501
       Tot       3.2660
    Quadrupole Moments (Debye-Ang)
        XX     -85.0440     XY       8.8848     YY     -81.6790
        XZ       0.5627     YZ      -1.7905     ZZ     -85.0763

 Total job time:  59.34s(wall), 1962.59s(cpu)
        *  Thank you very much for using Q-Chem.  Have a nice day.  *
