 Q-Chem 5.4, Q-Chem, Inc., Pleasanton, CA (2021)
 Q-Chem 5.4.0 for Intel X86 EM64T Linux

User input:
--------------------------------------------------------------
$molecule
0 1
C	0.361285	-3.887800	0.627947
C	-0.331462	-3.701456	-0.572038
C	-0.542953	-2.345170	-0.939610
H	-0.684893	-4.545233	-1.183405
C	0.000000	-1.450135	0.000000
S	0.763441	-2.321334	1.323052
C	-1.265941	-1.934439	-2.192207
H	-1.598695	-2.819799	-2.767709
H	-0.620770	-1.326210	-2.860100
H	-2.166438	-1.325374	-1.967682
C	0.000000	0.000000	0.000000
C	0.645024	0.545262	1.113020
C	1.707554	1.442954	0.820578
H	0.348587	0.294774	2.142881
C	1.897227	1.602964	-0.563588
S	0.741155	0.626722	-1.464748
C	2.520787	2.130014	1.882380
H	2.178559	1.840981	2.894974
H	2.446016	3.235078	1.808137
H	3.597818	1.871604	1.808230
H	2.628997	2.221299	-1.097114
H	1.305744	-4.420219	0.469073
H	-0.248940	-4.419395	1.366694
H	0.935300	-1.450628	-0.540012
$end

$rem
JOBTYPE		SP
EXCHANGE	HF
CORRELATION	pRIMP2
BASIS		cc-pvtz
METHOD		rimp2
AUX_BASIS	rimp2-cc-pvtz
SOLVENT_METHOD	PCM
PURECART	11111
SYMMETRY	false
MEM_TOTAL	110000
SCF_CONVERGENCE = 6
THRESH=10
GUI = 2
$end

$solvent
dielectric 4.90
$end
--------------------------------------------------------------

             Standard Nuclear Orientation (Angstroms)
    I     Atom           X                Y                Z
 ----------------------------------------------------------------
    1      C       0.3612850000    -3.8878000000     0.6279470000
    2      C      -0.3314620000    -3.7014560000    -0.5720380000
    3      C      -0.5429530000    -2.3451700000    -0.9396100000
    4      H      -0.6848930000    -4.5452330000    -1.1834050000
    5      C       0.0000000000    -1.4501350000     0.0000000000
    6      S       0.7634410000    -2.3213340000     1.3230520000
    7      C      -1.2659410000    -1.9344390000    -2.1922070000
    8      H      -1.5986950000    -2.8197990000    -2.7677090000
    9      H      -0.6207700000    -1.3262100000    -2.8601000000
   10      H      -2.1664380000    -1.3253740000    -1.9676820000
   11      C       0.0000000000     0.0000000000     0.0000000000
   12      C       0.6450240000     0.5452620000     1.1130200000
   13      C       1.7075540000     1.4429540000     0.8205780000
   14      H       0.3485870000     0.2947740000     2.1428810000
   15      C       1.8972270000     1.6029640000    -0.5635880000
   16      S       0.7411550000     0.6267220000    -1.4647480000
   17      C       2.5207870000     2.1300140000     1.8823800000
   18      H       2.1785590000     1.8409810000     2.8949740000
   19      H       2.4460160000     3.2350780000     1.8081370000
   20      H       3.5978180000     1.8716040000     1.8082300000
   21      H       2.6289970000     2.2212990000    -1.0971140000
   22      H       1.3057440000    -4.4202190000     0.4690730000
   23      H      -0.2489400000    -4.4193950000     1.3666940000
   24      H       0.9353000000    -1.4506280000    -0.5400120000
 ----------------------------------------------------------------

   10   -1180.7109306609      7.54e-07  Convergence criterion met
 Total energy in the final basis set =    -1180.7109306609
        RIMP2         total energy =     -1182.7280489867 a.u.

                    Orbital Energies (a.u.)
 --------------------------------------------------------------

 Alpha MOs
 -- Occupied --
-91.9758 -91.9421 -11.2741 -11.2721 -11.2572 -11.2547 -11.2527 -11.2472
-11.2395 -11.2310 -11.2295 -11.2183  -8.9774  -8.9465  -6.6582  -6.6575
 -6.6570  -6.6279  -6.6269  -6.6256  -1.2061  -1.1537  -1.0602  -1.0264
 -1.0054  -0.9582  -0.9146  -0.9020  -0.8085  -0.7722  -0.7262  -0.7033
 -0.6543  -0.6429  -0.6136  -0.5900  -0.5803  -0.5755  -0.5695  -0.5513
 -0.5419  -0.5354  -0.5159  -0.5095  -0.4878  -0.4672  -0.4606  -0.4403
 -0.3575  -0.3428  -0.3277  -0.2613

          Ground-State Mulliken Net Atomic Charges

     Atom                 Charge (a.u.)
  ----------------------------------------
      1 C                    -0.082607
      2 C                    -0.315480
      3 C                    -0.071906
      4 H                     0.175748
      5 C                     0.109360
      6 S                    -0.189566
      7 C                    -0.289788
      8 H                     0.116082
      9 H                     0.107307
     10 H                     0.112590
     11 C                    -0.055027
     12 C                    -0.253209
     13 C                     0.031149
     14 H                     0.188845
     15 C                    -0.223886
     16 S                    -0.005237
     17 C                    -0.267840
     18 H                     0.103761
     19 H                     0.109348
     20 H                     0.108404
     21 H                     0.199216
     22 H                     0.109415
     23 H                     0.109420
     24 H                     0.173901
  ----------------------------------------
  Sum of atomic charges =     0.000000

                    Cartesian Multipole Moments
 -----------------------------------------------------------------
    Charge (ESU x 10^10)
                -0.0000
    Dipole Moment (Debye)
         X       1.2380      Y       0.1863      Z      -0.6928
       Tot       1.4308
    Quadrupole Moments (Debye-Ang)
        XX     -84.6581     XY       6.3462     YY     -80.1480
        XZ       1.1343     YZ       4.8890     ZZ     -85.9069

 Total job time:  60.36s(wall), 2158.78s(cpu)
        *  Thank you very much for using Q-Chem.  Have a nice day.  *
