 Q-Chem 5.4, Q-Chem, Inc., Pleasanton, CA (2021)
 Q-Chem 5.4.0 for Intel X86 EM64T Linux

User input:
--------------------------------------------------------------
$molecule
0 1
C	-0.713644	-3.887800	0.124726
C	0.650907	-3.701456	-0.115824
C	1.068646	-2.345170	-0.188844
H	1.346284	-4.545233	-0.238841
C	0.000000	-1.450135	0.000000
S	-1.504375	-2.321334	0.264890
C	2.492978	-1.934439	-0.439816
H	3.147582	-2.819799	-0.555669
H	2.899931	-1.326210	0.394879
H	2.589982	-1.325374	-1.362799
C	0.000000	0.000000	0.000000
C	0.645024	0.545262	1.113020
C	1.707554	1.442954	0.820578
H	0.348587	0.294774	2.142881
C	1.897227	1.602964	-0.563588
S	0.741155	0.626722	-1.464748
C	2.520787	2.130014	1.882380
H	2.178559	1.840981	2.894974
H	2.446016	3.235078	1.808137
H	3.597818	1.871604	1.808230
H	2.628997	2.221299	-1.097114
H	-0.887375	-4.420219	1.066566
H	-1.199130	-4.419395	-0.701364
H	0.187554	-1.450628	1.063590
$end

$rem
JOBTYPE		SP
EXCHANGE	HF
CORRELATION	pRIMP2
BASIS		cc-pvtz
METHOD		rimp2
AUX_BASIS	rimp2-cc-pvtz
SOLVENT_METHOD	PCM
PURECART	11111
SYMMETRY	false
MEM_TOTAL	110000
SCF_CONVERGENCE = 6
THRESH=10
GUI = 2
$end

$solvent
dielectric 4.90
$end
--------------------------------------------------------------

             Standard Nuclear Orientation (Angstroms)
    I     Atom           X                Y                Z
 ----------------------------------------------------------------
    1      C      -0.7136440000    -3.8878000000     0.1247260000
    2      C       0.6509070000    -3.7014560000    -0.1158240000
    3      C       1.0686460000    -2.3451700000    -0.1888440000
    4      H       1.3462840000    -4.5452330000    -0.2388410000
    5      C       0.0000000000    -1.4501350000     0.0000000000
    6      S      -1.5043750000    -2.3213340000     0.2648900000
    7      C       2.4929780000    -1.9344390000    -0.4398160000
    8      H       3.1475820000    -2.8197990000    -0.5556690000
    9      H       2.8999310000    -1.3262100000     0.3948790000
   10      H       2.5899820000    -1.3253740000    -1.3627990000
   11      C       0.0000000000     0.0000000000     0.0000000000
   12      C       0.6450240000     0.5452620000     1.1130200000
   13      C       1.7075540000     1.4429540000     0.8205780000
   14      H       0.3485870000     0.2947740000     2.1428810000
   15      C       1.8972270000     1.6029640000    -0.5635880000
   16      S       0.7411550000     0.6267220000    -1.4647480000
   17      C       2.5207870000     2.1300140000     1.8823800000
   18      H       2.1785590000     1.8409810000     2.8949740000
   19      H       2.4460160000     3.2350780000     1.8081370000
   20      H       3.5978180000     1.8716040000     1.8082300000
   21      H       2.6289970000     2.2212990000    -1.0971140000
   22      H      -0.8873750000    -4.4202190000     1.0665660000
   23      H      -1.1991300000    -4.4193950000    -0.7013640000
   24      H       0.1875540000    -1.4506280000     1.0635900000
 ----------------------------------------------------------------

   10   -1180.7062417074      8.85e-07  Convergence criterion met
 Total energy in the final basis set =    -1180.7062417074
        RIMP2         total energy =     -1182.7267031552 a.u.

                    Orbital Energies (a.u.)
 --------------------------------------------------------------

 Alpha MOs
 -- Occupied --
-91.9802 -91.9323 -11.2811 -11.2626 -11.2592 -11.2567 -11.2531 -11.2497
-11.2364 -11.2317 -11.2264 -11.2153  -8.9808  -8.9373  -6.6616  -6.6609
 -6.6606  -6.6187  -6.6176  -6.6164  -1.2026  -1.1538  -1.0580  -1.0211
 -1.0094  -0.9600  -0.9097  -0.9024  -0.8073  -0.7615  -0.7427  -0.7007
 -0.6579  -0.6368  -0.6118  -0.5908  -0.5813  -0.5740  -0.5654  -0.5513
 -0.5417  -0.5251  -0.5218  -0.5023  -0.4933  -0.4625  -0.4550  -0.4415
 -0.3506  -0.3445  -0.3173  -0.2702

          Ground-State Mulliken Net Atomic Charges

     Atom                 Charge (a.u.)
  ----------------------------------------
      1 C                    -0.072041
      2 C                    -0.334091
      3 C                    -0.027151
      4 H                     0.175640
      5 C                     0.078957
      6 S                    -0.216150
      7 C                    -0.300749
      8 H                     0.122017
      9 H                     0.107500
     10 H                     0.116985
     11 C                    -0.106613
     12 C                    -0.190561
     13 C                     0.006207
     14 H                     0.184460
     15 C                    -0.186162
     16 S                     0.008472
     17 C                    -0.268904
     18 H                     0.103283
     19 H                     0.110954
     20 H                     0.105602
     21 H                     0.199824
     22 H                     0.105829
     23 H                     0.107226
     24 H                     0.169465
  ----------------------------------------
  Sum of atomic charges =     0.000000

                    Cartesian Multipole Moments
 -----------------------------------------------------------------
    Charge (ESU x 10^10)
                -0.0000
    Dipole Moment (Debye)
         X       4.7829      Y       1.0449      Z       1.9677
       Tot       5.2763
    Quadrupole Moments (Debye-Ang)
        XX     -85.3456     XY       1.6835     YY     -81.9388
        XZ       0.3882     YZ       0.2242     ZZ     -85.2841

 Total job time:  57.28s(wall), 1978.87s(cpu)
        *  Thank you very much for using Q-Chem.  Have a nice day.  *
