 Q-Chem 5.4, Q-Chem, Inc., Pleasanton, CA (2021)
 Q-Chem 5.4.0 for Intel X86 EM64T Linux

User input:
--------------------------------------------------------------
$molecule
0 1
C	-0.124726	-3.887800	-0.713644
C	0.115824	-3.701456	0.650907
C	0.188844	-2.345170	1.068646
H	0.238841	-4.545233	1.346284
C	0.000000	-1.450135	0.000000
S	-0.264890	-2.321334	-1.504375
C	0.439816	-1.934439	2.492978
H	0.555669	-2.819799	3.147582
H	-0.394879	-1.326210	2.899931
H	1.362799	-1.325374	2.589982
C	0.000000	0.000000	0.000000
C	0.354153	0.766774	1.113020
C	0.937751	2.029404	0.820578
H	0.191350	0.414475	2.142881
C	1.042030	2.254581	-0.563588
S	0.406851	0.881228	-1.464748
C	1.384426	2.995779	1.882380
H	1.196413	2.589194	2.894974
H	0.849641	3.965707	1.808137
H	2.469756	3.216753	1.808230
H	1.443919	3.124243	-1.097114
H	-1.066566	-4.420219	-0.887375
H	0.701364	-4.419395	-1.199130
H	-1.063590	-1.450628	0.187554
$end

$rem
JOBTYPE		SP
EXCHANGE	HF
CORRELATION	pRIMP2
BASIS		cc-pvtz
METHOD		rimp2
AUX_BASIS	rimp2-cc-pvtz
SOLVENT_METHOD	PCM
PURECART	11111
SYMMETRY	false
MEM_TOTAL	110000
SCF_CONVERGENCE = 6
THRESH=10
GUI = 2
$end

$solvent
dielectric 4.90
$end
--------------------------------------------------------------

             Standard Nuclear Orientation (Angstroms)
    I     Atom           X                Y                Z
 ----------------------------------------------------------------
    1      C      -0.1247260000    -3.8878000000    -0.7136440000
    2      C       0.1158240000    -3.7014560000     0.6509070000
    3      C       0.1888440000    -2.3451700000     1.0686460000
    4      H       0.2388410000    -4.5452330000     1.3462840000
    5      C       0.0000000000    -1.4501350000     0.0000000000
    6      S      -0.2648900000    -2.3213340000    -1.5043750000
    7      C       0.4398160000    -1.9344390000     2.4929780000
    8      H       0.5556690000    -2.8197990000     3.1475820000
    9      H      -0.3948790000    -1.3262100000     2.8999310000
   10      H       1.3627990000    -1.3253740000     2.5899820000
   11      C       0.0000000000     0.0000000000     0.0000000000
   12      C       0.3541530000     0.7667740000     1.1130200000
   13      C       0.9377510000     2.0294040000     0.8205780000
   14      H       0.1913500000     0.4144750000     2.1428810000
   15      C       1.0420300000     2.2545810000    -0.5635880000
   16      S       0.4068510000     0.8812280000    -1.4647480000
   17      C       1.3844260000     2.9957790000     1.8823800000
   18      H       1.1964130000     2.5891940000     2.8949740000
   19      H       0.8496410000     3.9657070000     1.8081370000
   20      H       2.4697560000     3.2167530000     1.8082300000
   21      H       1.4439190000     3.1242430000    -1.0971140000
   22      H      -1.0665660000    -4.4202190000    -0.8873750000
   23      H       0.7013640000    -4.4193950000    -1.1991300000
   24      H      -1.0635900000    -1.4506280000     0.1875540000
 ----------------------------------------------------------------

   10   -1180.7392138812      5.47e-07  Convergence criterion met
 Total energy in the final basis set =    -1180.7392138812
        RIMP2         total energy =     -1182.7503544781 a.u.

                    Orbital Energies (a.u.)
 --------------------------------------------------------------

 Alpha MOs
 -- Occupied --
-91.9824 -91.9455 -11.2838 -11.2657 -11.2587 -11.2585 -11.2501 -11.2439
-11.2336 -11.2322 -11.2286 -11.2214  -8.9821  -8.9501  -6.6631  -6.6625
 -6.6619  -6.6315  -6.6305  -6.6292  -1.2009  -1.1525  -1.0585  -1.0316
 -1.0008  -0.9620  -0.9161  -0.9000  -0.8162  -0.7615  -0.7276  -0.7092
 -0.6545  -0.6473  -0.6106  -0.5944  -0.5880  -0.5691  -0.5598  -0.5501
 -0.5439  -0.5351  -0.5246  -0.5023  -0.4834  -0.4765  -0.4673  -0.4434
 -0.3604  -0.3425  -0.3238  -0.2622

          Ground-State Mulliken Net Atomic Charges

     Atom                 Charge (a.u.)
  ----------------------------------------
      1 C                    -0.074312
      2 C                    -0.318727
      3 C                    -0.058806
      4 H                     0.179752
      5 C                     0.117723
      6 S                    -0.181271
      7 C                    -0.298935
      8 H                     0.122168
      9 H                     0.100636
     10 H                     0.113888
     11 C                    -0.034372
     12 C                    -0.303064
     13 C                     0.054133
     14 H                     0.192015
     15 C                    -0.274029
     16 S                     0.014795
     17 C                    -0.271060
     18 H                     0.100699
     19 H                     0.108705
     20 H                     0.108162
     21 H                     0.196248
     22 H                     0.111511
     23 H                     0.113101
     24 H                     0.181041
  ----------------------------------------
  Sum of atomic charges =     0.000000

                    Cartesian Multipole Moments
 -----------------------------------------------------------------
    Charge (ESU x 10^10)
                -0.0000
    Dipole Moment (Debye)
         X       0.2393      Y      -0.1986      Z       3.9968
       Tot       4.0088
    Quadrupole Moments (Debye-Ang)
        XX     -89.8590     XY       4.6963     YY     -75.1757
        XZ       0.8661     YZ      -2.6787     ZZ     -85.7269

 Total job time:  54.32s(wall), 1899.47s(cpu)
        *  Thank you very much for using Q-Chem.  Have a nice day.  *
