 Q-Chem 5.4, Q-Chem, Inc., Pleasanton, CA (2021)
 Q-Chem 5.4.0 for Intel X86 EM64T Linux

User input:
--------------------------------------------------------------
$molecule
0 1
C	-0.554267	-3.887800	-0.466510
C	0.507121	-3.701456	0.424173
C	0.831575	-2.345170	0.697244
H	1.048337	-4.545233	0.877789
C	-0.000000	-1.450135	-0.000000
S	-1.169911	-2.321334	-0.982150
C	1.939374	-1.934439	1.627024
H	2.448894	-2.819799	2.054010
H	1.561545	-1.326210	2.475299
H	2.708773	-1.325374	1.108051
C	0.000000	0.000000	0.000000
C	0.215623	0.816623	1.113020
C	0.571102	2.161411	0.820578
H	0.116470	0.441406	2.142881
C	0.634696	2.401276	-0.563588
S	0.247646	0.938489	-1.464748
C	0.843182	3.190669	1.882380
H	0.728628	2.757614	2.894974
H	0.148095	4.052998	1.808137
H	1.873652	3.596752	1.808230
H	0.879464	3.327513	-1.097114
H	-1.387431	-4.420219	0.005807
H	-0.233510	-4.419395	-1.369415
H	-0.694200	-1.450628	0.827337
$end

$rem
JOBTYPE		SP
EXCHANGE	HF
CORRELATION	pRIMP2
BASIS		cc-pvtz
METHOD		rimp2
AUX_BASIS	rimp2-cc-pvtz
SOLVENT_METHOD	PCM
PURECART	11111
SYMMETRY	false
MEM_TOTAL	110000
SCF_CONVERGENCE = 6
THRESH=10
GUI = 2
$end

$solvent
dielectric 4.90
$end
--------------------------------------------------------------

             Standard Nuclear Orientation (Angstroms)
    I     Atom           X                Y                Z
 ----------------------------------------------------------------
    1      C      -0.5542670000    -3.8878000000    -0.4665100000
    2      C       0.5071210000    -3.7014560000     0.4241730000
    3      C       0.8315750000    -2.3451700000     0.6972440000
    4      H       1.0483370000    -4.5452330000     0.8777890000
    5      C       0.0000000000    -1.4501350000     0.0000000000
    6      S      -1.1699110000    -2.3213340000    -0.9821500000
    7      C       1.9393740000    -1.9344390000     1.6270240000
    8      H       2.4488940000    -2.8197990000     2.0540100000
    9      H       1.5615450000    -1.3262100000     2.4752990000
   10      H       2.7087730000    -1.3253740000     1.1080510000
   11      C       0.0000000000     0.0000000000     0.0000000000
   12      C       0.2156230000     0.8166230000     1.1130200000
   13      C       0.5711020000     2.1614110000     0.8205780000
   14      H       0.1164700000     0.4414060000     2.1428810000
   15      C       0.6346960000     2.4012760000    -0.5635880000
   16      S       0.2476460000     0.9384890000    -1.4647480000
   17      C       0.8431820000     3.1906690000     1.8823800000
   18      H       0.7286280000     2.7576140000     2.8949740000
   19      H       0.1480950000     4.0529980000     1.8081370000
   20      H       1.8736520000     3.5967520000     1.8082300000
   21      H       0.8794640000     3.3275130000    -1.0971140000
   22      H      -1.3874310000    -4.4202190000     0.0058070000
   23      H      -0.2335100000    -4.4193950000    -1.3694150000
   24      H      -0.6942000000    -1.4506280000     0.8273370000
 ----------------------------------------------------------------

   10   -1180.7584894052      5.13e-07  Convergence criterion met
 Total energy in the final basis set =    -1180.7584894052
        RIMP2         total energy =     -1182.7651466919 a.u.

                    Orbital Energies (a.u.)
 --------------------------------------------------------------

 Alpha MOs
 -- Occupied --
-91.9813 -91.9430 -11.2828 -11.2638 -11.2626 -11.2578 -11.2513 -11.2421
-11.2398 -11.2316 -11.2295 -11.2204  -8.9812  -8.9476  -6.6621  -6.6615
 -6.6610  -6.6290  -6.6280  -6.6267  -1.1987  -1.1535  -1.0577  -1.0275
 -1.0036  -0.9614  -0.9127  -0.9011  -0.8155  -0.7601  -0.7312  -0.7064
 -0.6585  -0.6435  -0.6112  -0.5907  -0.5844  -0.5709  -0.5607  -0.5537
 -0.5413  -0.5310  -0.5178  -0.5061  -0.4864  -0.4807  -0.4623  -0.4475
 -0.3562  -0.3419  -0.3198  -0.2736

          Ground-State Mulliken Net Atomic Charges

     Atom                 Charge (a.u.)
  ----------------------------------------
      1 C                    -0.073764
      2 C                    -0.323115
      3 C                    -0.045620
      4 H                     0.178237
      5 C                     0.098451
      6 S                    -0.177008
      7 C                    -0.272903
      8 H                     0.117794
      9 H                     0.096795
     10 H                     0.113684
     11 C                    -0.062301
     12 C                    -0.272976
     13 C                     0.029313
     14 H                     0.190245
     15 C                    -0.247952
     16 S                     0.008368
     17 C                    -0.272153
     18 H                     0.101557
     19 H                     0.108909
     20 H                     0.108367
     21 H                     0.197078
     22 H                     0.111201
     23 H                     0.110975
     24 H                     0.176817
  ----------------------------------------
  Sum of atomic charges =     0.000000

                    Cartesian Multipole Moments
 -----------------------------------------------------------------
    Charge (ESU x 10^10)
                -0.0000
    Dipole Moment (Debye)
         X       1.7884      Y       0.2990      Z       3.7057
       Tot       4.1255
    Quadrupole Moments (Debye-Ang)
        XX     -90.7199     XY       0.8306     YY     -74.2194
        XZ       0.3734     YZ      -2.2483     ZZ     -86.3267

 Total job time:  60.08s(wall), 1968.92s(cpu)
        *  Thank you very much for using Q-Chem.  Have a nice day.  *
