 Q-Chem 5.4, Q-Chem, Inc., Pleasanton, CA (2021)
 Q-Chem 5.4.0 for Intel X86 EM64T Linux

User input:
--------------------------------------------------------------
$molecule
0 1
C	-0.464838	-3.887800	-0.555670
C	0.425760	-3.701456	0.505790
C	0.697866	-2.345170	0.831053
H	0.879984	-4.545233	1.046496
C	0.000000	-1.450135	0.000000
S	-0.981588	-2.321334	-1.170382
C	1.627381	-1.934439	1.939074
H	2.055015	-2.819799	2.448051
H	1.107991	-1.326210	2.708853
H	2.475210	-1.325374	1.561590
C	0.000000	0.000000	0.000000
C	-0.003081	0.844605	1.113020
C	-0.007772	2.235575	0.820578
H	-0.001743	0.456510	2.142881
C	-0.008427	2.483726	-0.563588
S	-0.003691	0.970607	-1.464748
C	-0.011355	3.300181	1.882380
H	-0.009922	2.852233	2.894974
H	-0.905944	3.953225	1.808137
H	0.878901	3.959133	1.808230
H	-0.011727	3.441752	-1.097114
H	-1.367361	-4.420219	-0.235206
H	0.007834	-4.419395	-1.389159
H	-0.827319	-1.450628	0.694221
$end

$rem
JOBTYPE		SP
EXCHANGE	HF
CORRELATION	pRIMP2
BASIS		cc-pvtz
METHOD		rimp2
AUX_BASIS	rimp2-cc-pvtz
SOLVENT_METHOD	PCM
PURECART	11111
SYMMETRY	false
MEM_TOTAL	110000
SCF_CONVERGENCE = 6
THRESH=10
GUI = 2
$end

$solvent
dielectric 4.90
$end
--------------------------------------------------------------

             Standard Nuclear Orientation (Angstroms)
    I     Atom           X                Y                Z
 ----------------------------------------------------------------
    1      C      -0.4648380000    -3.8878000000    -0.5556700000
    2      C       0.4257600000    -3.7014560000     0.5057900000
    3      C       0.6978660000    -2.3451700000     0.8310530000
    4      H       0.8799840000    -4.5452330000     1.0464960000
    5      C       0.0000000000    -1.4501350000     0.0000000000
    6      S      -0.9815880000    -2.3213340000    -1.1703820000
    7      C       1.6273810000    -1.9344390000     1.9390740000
    8      H       2.0550150000    -2.8197990000     2.4480510000
    9      H       1.1079910000    -1.3262100000     2.7088530000
   10      H       2.4752100000    -1.3253740000     1.5615900000
   11      C       0.0000000000     0.0000000000     0.0000000000
   12      C      -0.0030810000     0.8446050000     1.1130200000
   13      C      -0.0077720000     2.2355750000     0.8205780000
   14      H      -0.0017430000     0.4565100000     2.1428810000
   15      C      -0.0084270000     2.4837260000    -0.5635880000
   16      S      -0.0036910000     0.9706070000    -1.4647480000
   17      C      -0.0113550000     3.3001810000     1.8823800000
   18      H      -0.0099220000     2.8522330000     2.8949740000
   19      H      -0.9059440000     3.9532250000     1.8081370000
   20      H       0.8789010000     3.9591330000     1.8082300000
   21      H      -0.0117270000     3.4417520000    -1.0971140000
   22      H      -1.3673610000    -4.4202190000    -0.2352060000
   23      H       0.0078340000    -4.4193950000    -1.3891590000
   24      H      -0.8273190000    -1.4506280000     0.6942210000
 ----------------------------------------------------------------

   10   -1180.7611731859      4.95e-07  Convergence criterion met
 Total energy in the final basis set =    -1180.7611731859
        RIMP2         total energy =     -1182.7663336604 a.u.

                    Orbital Energies (a.u.)
 --------------------------------------------------------------

 Alpha MOs
 -- Occupied --
-91.9834 -91.9451 -11.2876 -11.2647 -11.2595 -11.2576 -11.2509 -11.2433
-11.2343 -11.2327 -11.2289 -11.2216  -8.9829  -8.9496  -6.6639  -6.6633
 -6.6627  -6.6310  -6.6300  -6.6287  -1.1998  -1.1530  -1.0584  -1.0291
 -1.0031  -0.9610  -0.9138  -0.9006  -0.8169  -0.7608  -0.7285  -0.7061
 -0.6599  -0.6455  -0.6111  -0.5913  -0.5852  -0.5700  -0.5601  -0.5539
 -0.5420  -0.5324  -0.5181  -0.5041  -0.4877  -0.4838  -0.4648  -0.4469
 -0.3576  -0.3428  -0.3218  -0.2698

          Ground-State Mulliken Net Atomic Charges

     Atom                 Charge (a.u.)
  ----------------------------------------
      1 C                    -0.074837
      2 C                    -0.321118
      3 C                    -0.054308
      4 H                     0.178517
      5 C                     0.116654
      6 S                    -0.178273
      7 C                    -0.278220
      8 H                     0.117708
      9 H                     0.097778
     10 H                     0.114108
     11 C                    -0.066658
     12 C                    -0.258710
     13 C                     0.021936
     14 H                     0.188688
     15 C                    -0.260818
     16 S                     0.009118
     17 C                    -0.273319
     18 H                     0.101228
     19 H                     0.108834
     20 H                     0.108379
     21 H                     0.196538
     22 H                     0.112557
     23 H                     0.111704
     24 H                     0.182514
  ----------------------------------------
  Sum of atomic charges =     0.000000

                    Cartesian Multipole Moments
 -----------------------------------------------------------------
    Charge (ESU x 10^10)
                -0.0000
    Dipole Moment (Debye)
         X       0.9116      Y      -0.0356      Z       3.8001
       Tot       3.9081
    Quadrupole Moments (Debye-Ang)
        XX     -91.3839     XY      -1.1412     YY     -73.3933
        XZ       0.1683     YZ      -2.4515     ZZ     -86.2164

 Total job time:  61.07s(wall), 1986.99s(cpu)
        *  Thank you very much for using Q-Chem.  Have a nice day.  *
