 Q-Chem 5.4, Q-Chem, Inc., Pleasanton, CA (2021)
 Q-Chem 5.4.0 for Intel X86 EM64T Linux

User input:
--------------------------------------------------------------
$molecule
0 1
C	0.363176	-3.887800	-0.626855
C	-0.329669	-3.701456	0.573074
C	-0.542250	-2.345170	0.940016
H	-0.682412	-4.545233	1.184837
C	0.000000	-1.450135	0.000000
S	0.764076	-2.321334	-1.322686
C	-1.265537	-1.934439	2.192440
H	-1.597559	-2.819799	2.768365
H	-2.166534	-1.326210	1.967653
H	-0.620843	-1.325374	2.860032
C	0.000000	0.000000	0.000000
C	0.354153	0.766774	1.113020
C	0.937751	2.029404	0.820578
H	0.191350	0.414475	2.142881
C	1.042030	2.254581	-0.563588
S	0.406851	0.881228	-1.464748
C	1.384426	2.995779	1.882380
H	1.196413	2.589194	2.894974
H	0.849641	3.965707	1.808137
H	2.469756	3.216753	1.808230
H	1.443919	3.124243	-1.097114
H	-0.246643	-4.420219	-1.365344
H	1.308062	-4.419395	-0.467758
H	-0.935314	-1.450628	-0.539988
$end

$rem
JOBTYPE		SP
EXCHANGE	HF
CORRELATION	pRIMP2
BASIS		cc-pvtz
METHOD		rimp2
AUX_BASIS	rimp2-cc-pvtz
SOLVENT_METHOD	PCM
PURECART	11111
SYMMETRY	false
MEM_TOTAL	110000
SCF_CONVERGENCE = 6
THRESH=10
GUI = 2
$end

$solvent
dielectric 4.90
$end
--------------------------------------------------------------

             Standard Nuclear Orientation (Angstroms)
    I     Atom           X                Y                Z
 ----------------------------------------------------------------
    1      C       0.3631760000    -3.8878000000    -0.6268550000
    2      C      -0.3296690000    -3.7014560000     0.5730740000
    3      C      -0.5422500000    -2.3451700000     0.9400160000
    4      H      -0.6824120000    -4.5452330000     1.1848370000
    5      C       0.0000000000    -1.4501350000     0.0000000000
    6      S       0.7640760000    -2.3213340000    -1.3226860000
    7      C      -1.2655370000    -1.9344390000     2.1924400000
    8      H      -1.5975590000    -2.8197990000     2.7683650000
    9      H      -2.1665340000    -1.3262100000     1.9676530000
   10      H      -0.6208430000    -1.3253740000     2.8600320000
   11      C       0.0000000000     0.0000000000     0.0000000000
   12      C       0.3541530000     0.7667740000     1.1130200000
   13      C       0.9377510000     2.0294040000     0.8205780000
   14      H       0.1913500000     0.4144750000     2.1428810000
   15      C       1.0420300000     2.2545810000    -0.5635880000
   16      S       0.4068510000     0.8812280000    -1.4647480000
   17      C       1.3844260000     2.9957790000     1.8823800000
   18      H       1.1964130000     2.5891940000     2.8949740000
   19      H       0.8496410000     3.9657070000     1.8081370000
   20      H       2.4697560000     3.2167530000     1.8082300000
   21      H       1.4439190000     3.1242430000    -1.0971140000
   22      H      -0.2466430000    -4.4202190000    -1.3653440000
   23      H       1.3080620000    -4.4193950000    -0.4677580000
   24      H      -0.9353140000    -1.4506280000    -0.5399880000
 ----------------------------------------------------------------

   10   -1180.7433911995      5.28e-07  Convergence criterion met
 Total energy in the final basis set =    -1180.7433911995
        RIMP2         total energy =     -1182.7520890911 a.u.

                    Orbital Energies (a.u.)
 --------------------------------------------------------------

 Alpha MOs
 -- Occupied --
-91.9842 -91.9445 -11.2813 -11.2641 -11.2622 -11.2565 -11.2506 -11.2422
-11.2354 -11.2331 -11.2286 -11.2203  -8.9840  -8.9490  -6.6649  -6.6644
 -6.6638  -6.6303  -6.6293  -6.6280  -1.1995  -1.1533  -1.0578  -1.0302
 -1.0003  -0.9633  -0.9138  -0.9005  -0.8158  -0.7596  -0.7367  -0.7045
 -0.6536  -0.6405  -0.6106  -0.5922  -0.5833  -0.5680  -0.5660  -0.5519
 -0.5448  -0.5330  -0.5182  -0.5040  -0.4880  -0.4777  -0.4674  -0.4452
 -0.3571  -0.3427  -0.3238  -0.2647

          Ground-State Mulliken Net Atomic Charges

     Atom                 Charge (a.u.)
  ----------------------------------------
      1 C                    -0.077426
      2 C                    -0.324305
      3 C                    -0.039215
      4 H                     0.177606
      5 C                     0.096005
      6 S                    -0.172684
      7 C                    -0.291291
      8 H                     0.118187
      9 H                     0.110896
     10 H                     0.103110
     11 C                    -0.083021
     12 C                    -0.229110
     13 C                     0.019595
     14 H                     0.192566
     15 C                    -0.241576
     16 S                    -0.000723
     17 C                    -0.272376
     18 H                     0.100795
     19 H                     0.108239
     20 H                     0.108166
     21 H                     0.198741
     22 H                     0.110198
     23 H                     0.113510
     24 H                     0.174116
  ----------------------------------------
  Sum of atomic charges =     0.000000

                    Cartesian Multipole Moments
 -----------------------------------------------------------------
    Charge (ESU x 10^10)
                -0.0000
    Dipole Moment (Debye)
         X      -1.1797      Y       0.1793      Z       3.0725
       Tot       3.2961
    Quadrupole Moments (Debye-Ang)
        XX     -90.1313     XY       7.0791     YY     -75.2218
        XZ       0.4105     YZ      -1.3967     ZZ     -85.4888

 Total job time:  54.28s(wall), 1924.95s(cpu)
        *  Thank you very much for using Q-Chem.  Have a nice day.  *
