 Q-Chem 5.4, Q-Chem, Inc., Pleasanton, CA (2021)
 Q-Chem 5.4.0 for Intel X86 EM64T Linux

User input:
--------------------------------------------------------------
$molecule
0 1
C	-0.713264	-3.887800	-0.126876
C	0.651267	-3.701456	0.113784
C	1.068787	-2.345170	0.188043
H	1.346782	-4.545233	0.236019
C	-0.000000	-1.450135	-0.000000
S	-1.504247	-2.321334	-0.265612
C	2.493059	-1.934439	0.439357
H	3.147809	-2.819799	0.554378
H	2.589987	-1.326210	1.362899
H	2.899892	-1.325374	-0.394786
C	0.000000	0.000000	0.000000
C	0.540541	0.648986	1.113020
C	1.431046	1.717546	0.820578
H	0.292104	0.350827	2.142881
C	1.590053	1.908061	-0.563588
S	0.621066	0.745901	-1.464748
C	2.112618	2.535384	1.882380
H	1.825779	2.191315	2.894974
H	1.847090	3.610676	1.808137
H	3.218159	2.467925	1.808230
H	2.203332	2.644073	-1.097114
H	-1.198647	-4.420219	0.698744
H	-0.886933	-4.419395	-1.069193
H	-0.187526	-1.450628	1.063595
$end

$rem
JOBTYPE		SP
EXCHANGE	HF
CORRELATION	pRIMP2
BASIS		cc-pvtz
METHOD		rimp2
AUX_BASIS	rimp2-cc-pvtz
SOLVENT_METHOD	PCM
PURECART	11111
SYMMETRY	false
MEM_TOTAL	110000
SCF_CONVERGENCE = 6
THRESH=10
GUI = 2
$end

$solvent
dielectric 4.90
$end
--------------------------------------------------------------

             Standard Nuclear Orientation (Angstroms)
    I     Atom           X                Y                Z
 ----------------------------------------------------------------
    1      C      -0.7132640000    -3.8878000000    -0.1268760000
    2      C       0.6512670000    -3.7014560000     0.1137840000
    3      C       1.0687870000    -2.3451700000     0.1880430000
    4      H       1.3467820000    -4.5452330000     0.2360190000
    5      C       0.0000000000    -1.4501350000     0.0000000000
    6      S      -1.5042470000    -2.3213340000    -0.2656120000
    7      C       2.4930590000    -1.9344390000     0.4393570000
    8      H       3.1478090000    -2.8197990000     0.5543780000
    9      H       2.5899870000    -1.3262100000     1.3628990000
   10      H       2.8998920000    -1.3253740000    -0.3947860000
   11      C       0.0000000000     0.0000000000     0.0000000000
   12      C       0.5405410000     0.6489860000     1.1130200000
   13      C       1.4310460000     1.7175460000     0.8205780000
   14      H       0.2921040000     0.3508270000     2.1428810000
   15      C       1.5900530000     1.9080610000    -0.5635880000
   16      S       0.6210660000     0.7459010000    -1.4647480000
   17      C       2.1126180000     2.5353840000     1.8823800000
   18      H       1.8257790000     2.1913150000     2.8949740000
   19      H       1.8470900000     3.6106760000     1.8081370000
   20      H       3.2181590000     2.4679250000     1.8082300000
   21      H       2.2033320000     2.6440730000    -1.0971140000
   22      H      -1.1986470000    -4.4202190000     0.6987440000
   23      H      -0.8869330000    -4.4193950000    -1.0691930000
   24      H      -0.1875260000    -1.4506280000     1.0635950000
 ----------------------------------------------------------------

   10   -1180.7343450423      6.82e-07  Convergence criterion met
 Total energy in the final basis set =    -1180.7343450423
        RIMP2         total energy =     -1182.7477175334 a.u.

                    Orbital Energies (a.u.)
 --------------------------------------------------------------

 Alpha MOs
 -- Occupied --
-91.9795 -91.9354 -11.2768 -11.2687 -11.2605 -11.2534 -11.2528 -11.2523
-11.2381 -11.2312 -11.2297 -11.2176  -8.9799  -8.9403  -6.6608  -6.6601
 -6.6597  -6.6217  -6.6206  -6.6194  -1.1993  -1.1545  -1.0573  -1.0237
 -1.0062  -0.9615  -0.9105  -0.9023  -0.8104  -0.7592  -0.7402  -0.7038
 -0.6571  -0.6386  -0.6119  -0.5909  -0.5814  -0.5728  -0.5652  -0.5513
 -0.5409  -0.5267  -0.5207  -0.5048  -0.4907  -0.4671  -0.4587  -0.4448
 -0.3524  -0.3427  -0.3158  -0.2781

          Ground-State Mulliken Net Atomic Charges

     Atom                 Charge (a.u.)
  ----------------------------------------
      1 C                    -0.073931
      2 C                    -0.325901
      3 C                    -0.026692
      4 H                     0.176546
      5 C                     0.068786
      6 S                    -0.198855
      7 C                    -0.283729
      8 H                     0.119707
      9 H                     0.102320
     10 H                     0.112957
     11 C                    -0.067029
     12 C                    -0.260107
     13 C                     0.048907
     14 H                     0.188717
     15 C                    -0.218090
     16 S                     0.005322
     17 C                    -0.268730
     18 H                     0.102899
     19 H                     0.110468
     20 H                     0.107152
     21 H                     0.199706
     22 H                     0.107079
     23 H                     0.108364
     24 H                     0.164134
  ----------------------------------------
  Sum of atomic charges =     0.000000

                    Cartesian Multipole Moments
 -----------------------------------------------------------------
    Charge (ESU x 10^10)
                -0.0000
    Dipole Moment (Debye)
         X       3.9240      Y       0.9605      Z       2.8862
       Tot       4.9650
    Quadrupole Moments (Debye-Ang)
        XX     -87.1598     XY       2.0503     YY     -78.7820
        XZ       0.3758     YZ      -1.1537     ZZ     -85.9378

 Total job time:  65.40s(wall), 2300.64s(cpu)
        *  Thank you very much for using Q-Chem.  Have a nice day.  *
