 Q-Chem 5.4, Q-Chem, Inc., Pleasanton, CA (2021)
 Q-Chem 5.4.0 for Intel X86 EM64T Linux

User input:
--------------------------------------------------------------
$molecule
0 1
C	-0.626855	-3.887800	-0.363176
C	0.573074	-3.701456	0.329669
C	0.940016	-2.345170	0.542250
H	1.184837	-4.545233	0.682412
C	0.000000	-1.450135	0.000000
S	-1.322686	-2.321334	-0.764076
C	2.192440	-1.934439	1.265537
H	2.768365	-2.819799	1.597559
H	1.967653	-1.326210	2.166534
H	2.860032	-1.325374	0.620843
C	0.000000	0.000000	0.000000
C	0.285976	0.794723	1.113020
C	0.757308	2.103412	0.820578
H	0.154498	0.429575	2.142881
C	0.841565	2.336821	-0.563588
S	0.328498	0.913334	-1.464748
C	1.118059	3.105040	1.882380
H	0.966197	2.683616	2.894974
H	0.500773	4.024668	1.808137
H	2.180000	3.419766	1.808230
H	1.166129	3.238200	-1.097114
H	-1.365344	-4.420219	0.246643
H	-0.467758	-4.419395	-1.308062
H	-0.539988	-1.450628	0.935314
$end

$rem
JOBTYPE		SP
EXCHANGE	HF
CORRELATION	pRIMP2
BASIS		cc-pvtz
METHOD		rimp2
AUX_BASIS	rimp2-cc-pvtz
SOLVENT_METHOD	PCM
PURECART	11111
SYMMETRY	false
MEM_TOTAL	110000
SCF_CONVERGENCE = 6
THRESH=10
GUI = 2
$end

$solvent
dielectric 4.90
$end
--------------------------------------------------------------

             Standard Nuclear Orientation (Angstroms)
    I     Atom           X                Y                Z
 ----------------------------------------------------------------
    1      C      -0.6268550000    -3.8878000000    -0.3631760000
    2      C       0.5730740000    -3.7014560000     0.3296690000
    3      C       0.9400160000    -2.3451700000     0.5422500000
    4      H       1.1848370000    -4.5452330000     0.6824120000
    5      C       0.0000000000    -1.4501350000     0.0000000000
    6      S      -1.3226860000    -2.3213340000    -0.7640760000
    7      C       2.1924400000    -1.9344390000     1.2655370000
    8      H       2.7683650000    -2.8197990000     1.5975590000
    9      H       1.9676530000    -1.3262100000     2.1665340000
   10      H       2.8600320000    -1.3253740000     0.6208430000
   11      C       0.0000000000     0.0000000000     0.0000000000
   12      C       0.2859760000     0.7947230000     1.1130200000
   13      C       0.7573080000     2.1034120000     0.8205780000
   14      H       0.1544980000     0.4295750000     2.1428810000
   15      C       0.8415650000     2.3368210000    -0.5635880000
   16      S       0.3284980000     0.9133340000    -1.4647480000
   17      C       1.1180590000     3.1050400000     1.8823800000
   18      H       0.9661970000     2.6836160000     2.8949740000
   19      H       0.5007730000     4.0246680000     1.8081370000
   20      H       2.1800000000     3.4197660000     1.8082300000
   21      H       1.1661290000     3.2382000000    -1.0971140000
   22      H      -1.3653440000    -4.4202190000     0.2466430000
   23      H      -0.4677580000    -4.4193950000    -1.3080620000
   24      H      -0.5399880000    -1.4506280000     0.9353140000
 ----------------------------------------------------------------

   10   -1180.7570058734      5.32e-07  Convergence criterion met
 Total energy in the final basis set =    -1180.7570058734
        RIMP2         total energy =     -1182.7642272217 a.u.

                    Orbital Energies (a.u.)
 --------------------------------------------------------------

 Alpha MOs
 -- Occupied --
-91.9805 -91.9413 -11.2798 -11.2662 -11.2630 -11.2566 -11.2516 -11.2435
-11.2412 -11.2311 -11.2299 -11.2197  -8.9805  -8.9459  -6.6614  -6.6608
 -6.6603  -6.6273  -6.6263  -6.6251  -1.1981  -1.1539  -1.0573  -1.0263
 -1.0043  -0.9615  -0.9119  -0.9014  -0.8144  -0.7596  -0.7336  -0.7056
 -0.6584  -0.6420  -0.6112  -0.5903  -0.5830  -0.5715  -0.5621  -0.5529
 -0.5411  -0.5298  -0.5176  -0.5065  -0.4879  -0.4780  -0.4610  -0.4475
 -0.3552  -0.3417  -0.3176  -0.2769

          Ground-State Mulliken Net Atomic Charges

     Atom                 Charge (a.u.)
  ----------------------------------------
      1 C                    -0.074241
      2 C                    -0.324771
      3 C                    -0.034090
      4 H                     0.177748
      5 C                     0.078696
      6 S                    -0.178503
      7 C                    -0.269963
      8 H                     0.116547
      9 H                     0.097957
     10 H                     0.113296
     11 C                    -0.058681
     12 C                    -0.270589
     13 C                     0.031215
     14 H                     0.189546
     15 C                    -0.239638
     16 S                     0.005641
     17 C                    -0.271090
     18 H                     0.101877
     19 H                     0.108907
     20 H                     0.108164
     21 H                     0.197912
     22 H                     0.110276
     23 H                     0.110574
     24 H                     0.173211
  ----------------------------------------
  Sum of atomic charges =     0.000000

                    Cartesian Multipole Moments
 -----------------------------------------------------------------
    Charge (ESU x 10^10)
                -0.0000
    Dipole Moment (Debye)
         X       2.3716      Y       0.5256      Z       3.4839
       Tot       4.2472
    Quadrupole Moments (Debye-Ang)
        XX     -90.2538     XY       1.0078     YY     -74.8677
        XZ       0.3288     YZ      -1.9471     ZZ     -86.3166

 Total job time:  59.27s(wall), 1930.90s(cpu)
        *  Thank you very much for using Q-Chem.  Have a nice day.  *
