 Q-Chem 5.4, Q-Chem, Inc., Pleasanton, CA (2021)
 Q-Chem 5.4.0 for Intel X86 EM64T Linux

User input:
--------------------------------------------------------------
$molecule
0 1
C	-0.363176	-3.887800	0.626855
C	0.329669	-3.701456	-0.573074
C	0.542250	-2.345170	-0.940016
H	0.682412	-4.545233	-1.184837
C	0.000000	-1.450135	0.000000
S	-0.764076	-2.321334	1.322686
C	1.265537	-1.934439	-2.192440
H	1.597559	-2.819799	-2.768365
H	2.166534	-1.326210	-1.967653
H	0.620843	-1.325374	-2.860032
C	0.000000	0.000000	0.000000
C	0.645024	0.545262	1.113020
C	1.707554	1.442954	0.820578
H	0.348587	0.294774	2.142881
C	1.897227	1.602964	-0.563588
S	0.741155	0.626722	-1.464748
C	2.520787	2.130014	1.882380
H	2.178559	1.840981	2.894974
H	2.446016	3.235078	1.808137
H	3.597818	1.871604	1.808230
H	2.628997	2.221299	-1.097114
H	0.246643	-4.420219	1.365344
H	-1.308062	-4.419395	0.467758
H	0.935314	-1.450628	0.539988
$end

$rem
JOBTYPE		SP
EXCHANGE	HF
CORRELATION	pRIMP2
BASIS		cc-pvtz
METHOD		rimp2
AUX_BASIS	rimp2-cc-pvtz
SOLVENT_METHOD	PCM
PURECART	11111
SYMMETRY	false
MEM_TOTAL	110000
SCF_CONVERGENCE = 6
THRESH=10
GUI = 2
$end

$solvent
dielectric 4.90
$end
--------------------------------------------------------------

             Standard Nuclear Orientation (Angstroms)
    I     Atom           X                Y                Z
 ----------------------------------------------------------------
    1      C      -0.3631760000    -3.8878000000     0.6268550000
    2      C       0.3296690000    -3.7014560000    -0.5730740000
    3      C       0.5422500000    -2.3451700000    -0.9400160000
    4      H       0.6824120000    -4.5452330000    -1.1848370000
    5      C       0.0000000000    -1.4501350000     0.0000000000
    6      S      -0.7640760000    -2.3213340000     1.3226860000
    7      C       1.2655370000    -1.9344390000    -2.1924400000
    8      H       1.5975590000    -2.8197990000    -2.7683650000
    9      H       2.1665340000    -1.3262100000    -1.9676530000
   10      H       0.6208430000    -1.3253740000    -2.8600320000
   11      C       0.0000000000     0.0000000000     0.0000000000
   12      C       0.6450240000     0.5452620000     1.1130200000
   13      C       1.7075540000     1.4429540000     0.8205780000
   14      H       0.3485870000     0.2947740000     2.1428810000
   15      C       1.8972270000     1.6029640000    -0.5635880000
   16      S       0.7411550000     0.6267220000    -1.4647480000
   17      C       2.5207870000     2.1300140000     1.8823800000
   18      H       2.1785590000     1.8409810000     2.8949740000
   19      H       2.4460160000     3.2350780000     1.8081370000
   20      H       3.5978180000     1.8716040000     1.8082300000
   21      H       2.6289970000     2.2212990000    -1.0971140000
   22      H       0.2466430000    -4.4202190000     1.3653440000
   23      H      -1.3080620000    -4.4193950000     0.4677580000
   24      H       0.9353140000    -1.4506280000     0.5399880000
 ----------------------------------------------------------------

   11   -1180.6835005113      5.55e-07  Convergence criterion met
 Total energy in the final basis set =    -1180.6835005113
        RIMP2         total energy =     -1182.7105431822 a.u.

                    Orbital Energies (a.u.)
 --------------------------------------------------------------

 Alpha MOs
 -- Occupied --
-91.9799 -91.9388 -11.2718 -11.2701 -11.2616 -11.2542 -11.2516 -11.2407
-11.2401 -11.2294 -11.2272 -11.2159  -8.9811  -8.9437  -6.6617  -6.6611
 -6.6607  -6.6251  -6.6241  -6.6228  -1.2060  -1.1523  -1.0594  -1.0274
 -1.0074  -0.9550  -0.9116  -0.9052  -0.8048  -0.7709  -0.7268  -0.7008
 -0.6631  -0.6419  -0.6109  -0.5860  -0.5820  -0.5763  -0.5688  -0.5553
 -0.5418  -0.5295  -0.5176  -0.5172  -0.4922  -0.4607  -0.4468  -0.4416
 -0.3534  -0.3366  -0.3231  -0.2593

          Ground-State Mulliken Net Atomic Charges

     Atom                 Charge (a.u.)
  ----------------------------------------
      1 C                    -0.069734
      2 C                    -0.333003
      3 C                    -0.042797
      4 H                     0.177741
      5 C                     0.061408
      6 S                    -0.204714
      7 C                    -0.268393
      8 H                     0.107476
      9 H                     0.107465
     10 H                     0.108310
     11 C                    -0.087342
     12 C                    -0.196271
     13 C                     0.000596
     14 H                     0.186874
     15 C                    -0.236603
     16 S                     0.037458
     17 C                    -0.267535
     18 H                     0.103520
     19 H                     0.107676
     20 H                     0.104721
     21 H                     0.199881
     22 H                     0.108437
     23 H                     0.111174
     24 H                     0.183655
  ----------------------------------------
  Sum of atomic charges =     0.000000

                    Cartesian Multipole Moments
 -----------------------------------------------------------------
    Charge (ESU x 10^10)
                -0.0000
    Dipole Moment (Debye)
         X       3.7459      Y       0.2811      Z      -0.6053
       Tot       3.8048
    Quadrupole Moments (Debye-Ang)
        XX     -85.5025     XY       2.5227     YY     -81.8096
        XZ       0.6332     YZ       2.9564     ZZ     -84.8041

 Total job time:  61.71s(wall), 2139.92s(cpu)
        *  Thank you very much for using Q-Chem.  Have a nice day.  *
