 Q-Chem 5.4, Q-Chem, Inc., Pleasanton, CA (2021)
 Q-Chem 5.4.0 for Intel X86 EM64T Linux

User input:
--------------------------------------------------------------
$molecule
0 1
C	0.627947	-3.887800	-0.361285
C	-0.572038	-3.701456	0.331462
C	-0.939610	-2.345170	0.542953
H	-1.183405	-4.545233	0.684893
C	0.000000	-1.450135	0.000000
S	1.323052	-2.321334	-0.763441
C	-2.192207	-1.934439	1.265941
H	-2.767709	-2.819799	1.598695
H	-2.860100	-1.326210	0.620770
H	-1.967682	-1.325374	2.166438
C	0.000000	0.000000	0.000000
C	0.143630	0.832309	1.113020
C	0.380550	2.202961	0.820578
H	0.077556	0.449877	2.142881
C	0.422995	2.447456	-0.563588
S	0.164909	0.956502	-1.464748
C	0.561888	3.252016	1.882380
H	0.485513	2.810624	2.894974
H	-0.205711	4.050482	1.808137
H	1.553045	3.746365	1.808230
H	0.586105	3.391501	-1.097114
H	0.469073	-4.420219	-1.305744
H	1.366694	-4.419395	0.248940
H	-0.540012	-1.450628	-0.935300
$end

$rem
JOBTYPE		SP
EXCHANGE	HF
CORRELATION	pRIMP2
BASIS		cc-pvtz
METHOD		rimp2
AUX_BASIS	rimp2-cc-pvtz
SOLVENT_METHOD	PCM
PURECART	11111
SYMMETRY	false
MEM_TOTAL	110000
SCF_CONVERGENCE = 6
THRESH=10
GUI = 2
$end

$solvent
dielectric 4.90
$end
--------------------------------------------------------------

             Standard Nuclear Orientation (Angstroms)
    I     Atom           X                Y                Z
 ----------------------------------------------------------------
    1      C       0.6279470000    -3.8878000000    -0.3612850000
    2      C      -0.5720380000    -3.7014560000     0.3314620000
    3      C      -0.9396100000    -2.3451700000     0.5429530000
    4      H      -1.1834050000    -4.5452330000     0.6848930000
    5      C       0.0000000000    -1.4501350000     0.0000000000
    6      S       1.3230520000    -2.3213340000    -0.7634410000
    7      C      -2.1922070000    -1.9344390000     1.2659410000
    8      H      -2.7677090000    -2.8197990000     1.5986950000
    9      H      -2.8601000000    -1.3262100000     0.6207700000
   10      H      -1.9676820000    -1.3253740000     2.1664380000
   11      C       0.0000000000     0.0000000000     0.0000000000
   12      C       0.1436300000     0.8323090000     1.1130200000
   13      C       0.3805500000     2.2029610000     0.8205780000
   14      H       0.0775560000     0.4498770000     2.1428810000
   15      C       0.4229950000     2.4474560000    -0.5635880000
   16      S       0.1649090000     0.9565020000    -1.4647480000
   17      C       0.5618880000     3.2520160000     1.8823800000
   18      H       0.4855130000     2.8106240000     2.8949740000
   19      H      -0.2057110000     4.0504820000     1.8081370000
   20      H       1.5530450000     3.7463650000     1.8082300000
   21      H       0.5861050000     3.3915010000    -1.0971140000
   22      H       0.4690730000    -4.4202190000    -1.3057440000
   23      H       1.3666940000    -4.4193950000     0.2489400000
   24      H      -0.5400120000    -1.4506280000    -0.9353000000
 ----------------------------------------------------------------

   10   -1180.7592867007      5.13e-07  Convergence criterion met
 Total energy in the final basis set =    -1180.7592867007
        RIMP2         total energy =     -1182.7634002844 a.u.

                    Orbital Energies (a.u.)
 --------------------------------------------------------------

 Alpha MOs
 -- Occupied --
-91.9857 -91.9424 -11.2806 -11.2643 -11.2632 -11.2563 -11.2507 -11.2417
-11.2369 -11.2318 -11.2288 -11.2196  -8.9854  -8.9471  -6.6663  -6.6658
 -6.6652  -6.6284  -6.6274  -6.6261  -1.1978  -1.1536  -1.0575  -1.0275
 -1.0015  -0.9631  -0.9128  -0.9006  -0.8140  -0.7592  -0.7421  -0.7028
 -0.6537  -0.6357  -0.6111  -0.5886  -0.5790  -0.5697  -0.5673  -0.5540
 -0.5432  -0.5304  -0.5133  -0.5053  -0.4917  -0.4820  -0.4633  -0.4498
 -0.3564  -0.3412  -0.3178  -0.2756

          Ground-State Mulliken Net Atomic Charges

     Atom                 Charge (a.u.)
  ----------------------------------------
      1 C                    -0.075417
      2 C                    -0.328971
      3 C                    -0.023642
      4 H                     0.177507
      5 C                     0.104435
      6 S                    -0.176029
      7 C                    -0.268937
      8 H                     0.113833
      9 H                     0.104632
     10 H                     0.103407
     11 C                    -0.116226
     12 C                    -0.219152
     13 C                     0.013886
     14 H                     0.189748
     15 C                    -0.239631
     16 S                     0.010456
     17 C                    -0.273108
     18 H                     0.102215
     19 H                     0.107603
     20 H                     0.108725
     21 H                     0.198475
     22 H                     0.110526
     23 H                     0.113849
     24 H                     0.161816
  ----------------------------------------
  Sum of atomic charges =     0.000000

                    Cartesian Multipole Moments
 -----------------------------------------------------------------
    Charge (ESU x 10^10)
                -0.0000
    Dipole Moment (Debye)
         X      -2.1716      Y       0.5489      Z       2.0019
       Tot       3.0041
    Quadrupole Moments (Debye-Ang)
        XX     -91.6911     XY       5.7243     YY     -73.8124
        XZ      -0.0397     YZ       0.4235     ZZ     -85.6774

 Total job time:  63.09s(wall), 2347.62s(cpu)
        *  Thank you very much for using Q-Chem.  Have a nice day.  *
