 Q-Chem 5.4, Q-Chem, Inc., Pleasanton, CA (2021)
 Q-Chem 5.4.0 for Intel X86 EM64T Linux

User input:
--------------------------------------------------------------
$molecule
0 1
C	-0.248806	-3.887800	0.680396
C	0.225147	-3.701456	-0.621614
C	0.370780	-2.345170	-1.019896
H	0.466300	-4.545233	-1.285337
C	0.000000	-1.450135	0.000000
S	-0.522786	-2.321334	1.435271
C	0.865597	-1.934439	-2.378891
H	1.092567	-2.819799	-3.003720
H	1.791940	-1.326210	-2.313975
H	0.114772	-1.325374	-2.924390
C	0.000000	0.000000	0.000000
C	0.285976	0.794723	1.113020
C	0.757308	2.103412	0.820578
H	0.154498	0.429575	2.142881
C	0.841565	2.336821	-0.563588
S	0.328498	0.913334	-1.464748
C	1.118059	3.105040	1.882380
H	0.966197	2.683616	2.894974
H	0.500773	4.024668	1.808137
H	2.180000	3.419766	1.808230
H	1.166129	3.238200	-1.097114
H	0.479986	-4.420219	1.301772
H	-1.206964	-4.419395	0.687795
H	1.014873	-1.450628	0.369368
$end

$rem
JOBTYPE		SP
EXCHANGE	HF
CORRELATION	pRIMP2
BASIS		cc-pvtz
METHOD		rimp2
AUX_BASIS	rimp2-cc-pvtz
SOLVENT_METHOD	PCM
PURECART	11111
SYMMETRY	false
MEM_TOTAL	110000
SCF_CONVERGENCE = 6
THRESH=10
GUI = 2
$end

$solvent
dielectric 4.90
$end
--------------------------------------------------------------

             Standard Nuclear Orientation (Angstroms)
    I     Atom           X                Y                Z
 ----------------------------------------------------------------
    1      C      -0.2488060000    -3.8878000000     0.6803960000
    2      C       0.2251470000    -3.7014560000    -0.6216140000
    3      C       0.3707800000    -2.3451700000    -1.0198960000
    4      H       0.4663000000    -4.5452330000    -1.2853370000
    5      C       0.0000000000    -1.4501350000     0.0000000000
    6      S      -0.5227860000    -2.3213340000     1.4352710000
    7      C       0.8655970000    -1.9344390000    -2.3788910000
    8      H       1.0925670000    -2.8197990000    -3.0037200000
    9      H       1.7919400000    -1.3262100000    -2.3139750000
   10      H       0.1147720000    -1.3253740000    -2.9243900000
   11      C       0.0000000000     0.0000000000     0.0000000000
   12      C       0.2859760000     0.7947230000     1.1130200000
   13      C       0.7573080000     2.1034120000     0.8205780000
   14      H       0.1544980000     0.4295750000     2.1428810000
   15      C       0.8415650000     2.3368210000    -0.5635880000
   16      S       0.3284980000     0.9133340000    -1.4647480000
   17      C       1.1180590000     3.1050400000     1.8823800000
   18      H       0.9661970000     2.6836160000     2.8949740000
   19      H       0.5007730000     4.0246680000     1.8081370000
   20      H       2.1800000000     3.4197660000     1.8082300000
   21      H       1.1661290000     3.2382000000    -1.0971140000
   22      H       0.4799860000    -4.4202190000     1.3017720000
   23      H      -1.2069640000    -4.4193950000     0.6877950000
   24      H       1.0148730000    -1.4506280000     0.3693680000
 ----------------------------------------------------------------

   10   -1180.7500585225      4.88e-07  Convergence criterion met
 Total energy in the final basis set =    -1180.7500585225
        RIMP2         total energy =     -1182.7583924368 a.u.

                    Orbital Energies (a.u.)
 --------------------------------------------------------------

 Alpha MOs
 -- Occupied --
-91.9817 -91.9456 -11.2886 -11.2647 -11.2613 -11.2551 -11.2502 -11.2440
-11.2314 -11.2304 -11.2279 -11.2218  -8.9818  -8.9502  -6.6626  -6.6621
 -6.6614  -6.6316  -6.6306  -6.6293  -1.2020  -1.1522  -1.0595  -1.0274
 -1.0071  -0.9556  -0.9150  -0.9021  -0.8126  -0.7708  -0.7191  -0.7022
 -0.6625  -0.6465  -0.6112  -0.5877  -0.5818  -0.5729  -0.5684  -0.5538
 -0.5420  -0.5324  -0.5157  -0.5103  -0.4921  -0.4798  -0.4562  -0.4465
 -0.3579  -0.3412  -0.3254  -0.2645

          Ground-State Mulliken Net Atomic Charges

     Atom                 Charge (a.u.)
  ----------------------------------------
      1 C                    -0.073706
      2 C                    -0.318760
      3 C                    -0.039225
      4 H                     0.179529
      5 C                     0.078910
      6 S                    -0.182265
      7 C                    -0.302314
      8 H                     0.117229
      9 H                     0.115048
     10 H                     0.110125
     11 C                    -0.003353
     12 C                    -0.297513
     13 C                     0.038555
     14 H                     0.178221
     15 C                    -0.273731
     16 S                     0.010035
     17 C                    -0.270528
     18 H                     0.102805
     19 H                     0.108589
     20 H                     0.107482
     21 H                     0.196898
     22 H                     0.110951
     23 H                     0.113666
     24 H                     0.193351
  ----------------------------------------
  Sum of atomic charges =     0.000000

                    Cartesian Multipole Moments
 -----------------------------------------------------------------
    Charge (ESU x 10^10)
                 0.0000
    Dipole Moment (Debye)
         X       2.1661      Y      -0.3485      Z      -0.6887
       Tot       2.2995
    Quadrupole Moments (Debye-Ang)
        XX     -90.7035     XY       0.5261     YY     -74.9161
        XZ       0.4788     YZ       3.9832     ZZ     -85.3706

 Total job time:  57.22s(wall), 1946.45s(cpu)
        *  Thank you very much for using Q-Chem.  Have a nice day.  *
