 Q-Chem 5.4, Q-Chem, Inc., Pleasanton, CA (2021)
 Q-Chem 5.4.0 for Intel X86 EM64T Linux

User input:
--------------------------------------------------------------
$molecule
0 1
C	-0.626855	-3.887800	-0.363176
C	0.573074	-3.701456	0.329669
C	0.940016	-2.345170	0.542250
H	1.184837	-4.545233	0.682412
C	-0.000000	-1.450135	-0.000000
S	-1.322686	-2.321334	-0.764076
C	2.192440	-1.934439	1.265537
H	2.768365	-2.819799	1.597559
H	1.967653	-1.326210	2.166534
H	2.860032	-1.325374	0.620843
C	0.000000	0.000000	0.000000
C	0.540541	0.648986	1.113020
C	1.431046	1.717546	0.820578
H	0.292104	0.350827	2.142881
C	1.590053	1.908061	-0.563588
S	0.621066	0.745901	-1.464748
C	2.112618	2.535384	1.882380
H	1.825779	2.191315	2.894974
H	1.847090	3.610676	1.808137
H	3.218159	2.467925	1.808230
H	2.203332	2.644073	-1.097114
H	-1.365344	-4.420219	0.246643
H	-0.467758	-4.419395	-1.308062
H	-0.539988	-1.450628	0.935314
$end

$rem
JOBTYPE		SP
EXCHANGE	HF
CORRELATION	pRIMP2
BASIS		cc-pvtz
METHOD		rimp2
AUX_BASIS	rimp2-cc-pvtz
SOLVENT_METHOD	PCM
PURECART	11111
SYMMETRY	false
MEM_TOTAL	110000
SCF_CONVERGENCE = 6
THRESH=10
GUI = 2
$end

$solvent
dielectric 4.90
$end
--------------------------------------------------------------

             Standard Nuclear Orientation (Angstroms)
    I     Atom           X                Y                Z
 ----------------------------------------------------------------
    1      C      -0.6268550000    -3.8878000000    -0.3631760000
    2      C       0.5730740000    -3.7014560000     0.3296690000
    3      C       0.9400160000    -2.3451700000     0.5422500000
    4      H       1.1848370000    -4.5452330000     0.6824120000
    5      C       0.0000000000    -1.4501350000     0.0000000000
    6      S      -1.3226860000    -2.3213340000    -0.7640760000
    7      C       2.1924400000    -1.9344390000     1.2655370000
    8      H       2.7683650000    -2.8197990000     1.5975590000
    9      H       1.9676530000    -1.3262100000     2.1665340000
   10      H       2.8600320000    -1.3253740000     0.6208430000
   11      C       0.0000000000     0.0000000000     0.0000000000
   12      C       0.5405410000     0.6489860000     1.1130200000
   13      C       1.4310460000     1.7175460000     0.8205780000
   14      H       0.2921040000     0.3508270000     2.1428810000
   15      C       1.5900530000     1.9080610000    -0.5635880000
   16      S       0.6210660000     0.7459010000    -1.4647480000
   17      C       2.1126180000     2.5353840000     1.8823800000
   18      H       1.8257790000     2.1913150000     2.8949740000
   19      H       1.8470900000     3.6106760000     1.8081370000
   20      H       3.2181590000     2.4679250000     1.8082300000
   21      H       2.2033320000     2.6440730000    -1.0971140000
   22      H      -1.3653440000    -4.4202190000     0.2466430000
   23      H      -0.4677580000    -4.4193950000    -1.3080620000
   24      H      -0.5399880000    -1.4506280000     0.9353140000
 ----------------------------------------------------------------

   10   -1180.7331289159      7.04e-07  Convergence criterion met
 Total energy in the final basis set =    -1180.7331289159
        RIMP2         total energy =     -1182.7473989410 a.u.

                    Orbital Energies (a.u.)
 --------------------------------------------------------------

 Alpha MOs
 -- Occupied --
-91.9784 -91.9376 -11.2755 -11.2687 -11.2610 -11.2537 -11.2528 -11.2513
-11.2391 -11.2310 -11.2303 -11.2179  -8.9789  -8.9423  -6.6597  -6.6590
 -6.6586  -6.6237  -6.6227  -6.6215  -1.1993  -1.1544  -1.0573  -1.0258
 -1.0038  -0.9625  -0.9112  -0.9021  -0.8114  -0.7588  -0.7372  -0.7067
 -0.6551  -0.6403  -0.6124  -0.5912  -0.5847  -0.5720  -0.5617  -0.5540
 -0.5403  -0.5286  -0.5209  -0.5077  -0.4860  -0.4674  -0.4585  -0.4452
 -0.3529  -0.3416  -0.3183  -0.2753

          Ground-State Mulliken Net Atomic Charges

     Atom                 Charge (a.u.)
  ----------------------------------------
      1 C                    -0.072938
      2 C                    -0.325284
      3 C                    -0.046236
      4 H                     0.177549
      5 C                     0.085633
      6 S                    -0.191179
      7 C                    -0.282608
      8 H                     0.119470
      9 H                     0.099838
     10 H                     0.114944
     11 C                    -0.079311
     12 C                    -0.253233
     13 C                     0.035630
     14 H                     0.193943
     15 C                    -0.216088
     16 S                     0.006270
     17 C                    -0.270815
     18 H                     0.102387
     19 H                     0.111303
     20 H                     0.107456
     21 H                     0.199618
     22 H                     0.107069
     23 H                     0.108819
     24 H                     0.167761
  ----------------------------------------
  Sum of atomic charges =     0.000000

                    Cartesian Multipole Moments
 -----------------------------------------------------------------
    Charge (ESU x 10^10)
                -0.0000
    Dipole Moment (Debye)
         X       3.3031      Y       0.7973      Z       3.6422
       Tot       4.9812
    Quadrupole Moments (Debye-Ang)
        XX     -86.8850     XY       3.1268     YY     -78.5179
        XZ       0.6008     YZ      -2.2457     ZZ     -86.1931

 Total job time:  55.26s(wall), 1936.25s(cpu)
        *  Thank you very much for using Q-Chem.  Have a nice day.  *
