 Q-Chem 5.4, Q-Chem, Inc., Pleasanton, CA (2021)
 Q-Chem 5.4.0 for Intel X86 EM64T Linux

User input:
--------------------------------------------------------------
$molecule
0 1
C	0.464838	-3.887800	0.555670
C	-0.425760	-3.701456	-0.505790
C	-0.697866	-2.345170	-0.831053
H	-0.879984	-4.545233	-1.046496
C	0.000000	-1.450135	0.000000
S	0.981588	-2.321334	1.170382
C	-1.627381	-1.934439	-1.939074
H	-2.055015	-2.819799	-2.448051
H	-1.107991	-1.326210	-2.708853
H	-2.475210	-1.325374	-1.561590
C	0.000000	0.000000	0.000000
C	0.285976	0.794723	1.113020
C	0.757308	2.103412	0.820578
H	0.154498	0.429575	2.142881
C	0.841565	2.336821	-0.563588
S	0.328498	0.913334	-1.464748
C	1.118059	3.105040	1.882380
H	0.966197	2.683616	2.894974
H	0.500773	4.024668	1.808137
H	2.180000	3.419766	1.808230
H	1.166129	3.238200	-1.097114
H	1.367361	-4.420219	0.235206
H	-0.007834	-4.419395	1.389159
H	0.827319	-1.450628	-0.694221
$end

$rem
JOBTYPE		SP
EXCHANGE	HF
CORRELATION	pRIMP2
BASIS		cc-pvtz
METHOD		rimp2
AUX_BASIS	rimp2-cc-pvtz
SOLVENT_METHOD	PCM
PURECART	11111
SYMMETRY	false
MEM_TOTAL	110000
SCF_CONVERGENCE = 6
THRESH=10
GUI = 2
$end

$solvent
dielectric 4.90
$end
--------------------------------------------------------------

             Standard Nuclear Orientation (Angstroms)
    I     Atom           X                Y                Z
 ----------------------------------------------------------------
    1      C       0.4648380000    -3.8878000000     0.5556700000
    2      C      -0.4257600000    -3.7014560000    -0.5057900000
    3      C      -0.6978660000    -2.3451700000    -0.8310530000
    4      H      -0.8799840000    -4.5452330000    -1.0464960000
    5      C       0.0000000000    -1.4501350000     0.0000000000
    6      S       0.9815880000    -2.3213340000     1.1703820000
    7      C      -1.6273810000    -1.9344390000    -1.9390740000
    8      H      -2.0550150000    -2.8197990000    -2.4480510000
    9      H      -1.1079910000    -1.3262100000    -2.7088530000
   10      H      -2.4752100000    -1.3253740000    -1.5615900000
   11      C       0.0000000000     0.0000000000     0.0000000000
   12      C       0.2859760000     0.7947230000     1.1130200000
   13      C       0.7573080000     2.1034120000     0.8205780000
   14      H       0.1544980000     0.4295750000     2.1428810000
   15      C       0.8415650000     2.3368210000    -0.5635880000
   16      S       0.3284980000     0.9133340000    -1.4647480000
   17      C       1.1180590000     3.1050400000     1.8823800000
   18      H       0.9661970000     2.6836160000     2.8949740000
   19      H       0.5007730000     4.0246680000     1.8081370000
   20      H       2.1800000000     3.4197660000     1.8082300000
   21      H       1.1661290000     3.2382000000    -1.0971140000
   22      H       1.3673610000    -4.4202190000     0.2352060000
   23      H      -0.0078340000    -4.4193950000     1.3891590000
   24      H       0.8273190000    -1.4506280000    -0.6942210000
 ----------------------------------------------------------------

   10   -1180.7560044228      4.97e-07  Convergence criterion met
 Total energy in the final basis set =    -1180.7560044228
        RIMP2         total energy =     -1182.7611238784 a.u.

                    Orbital Energies (a.u.)
 --------------------------------------------------------------

 Alpha MOs
 -- Occupied --
-91.9821 -91.9449 -11.2846 -11.2622 -11.2613 -11.2588 -11.2507 -11.2424
-11.2357 -11.2326 -11.2283 -11.2211  -8.9824  -8.9493  -6.6633  -6.6628
 -6.6621  -6.6307  -6.6297  -6.6284  -1.2005  -1.1534  -1.0591  -1.0267
 -1.0051  -0.9590  -0.9152  -0.9010  -0.8128  -0.7695  -0.7263  -0.7035
 -0.6556  -0.6416  -0.6114  -0.5916  -0.5774  -0.5742  -0.5690  -0.5530
 -0.5420  -0.5333  -0.5136  -0.5074  -0.4878  -0.4844  -0.4611  -0.4471
 -0.3568  -0.3432  -0.3237  -0.2697

          Ground-State Mulliken Net Atomic Charges

     Atom                 Charge (a.u.)
  ----------------------------------------
      1 C                    -0.075255
      2 C                    -0.317881
      3 C                    -0.053181
      4 H                     0.177465
      5 C                     0.113213
      6 S                    -0.178983
      7 C                    -0.283246
      8 H                     0.116123
      9 H                     0.103984
     10 H                     0.112915
     11 C                    -0.027260
     12 C                    -0.321871
     13 C                     0.056027
     14 H                     0.184228
     15 C                    -0.260487
     16 S                     0.006629
     17 C                    -0.271338
     18 H                     0.103176
     19 H                     0.108207
     20 H                     0.108896
     21 H                     0.196745
     22 H                     0.111582
     23 H                     0.110407
     24 H                     0.179906
  ----------------------------------------
  Sum of atomic charges =     0.000000

                    Cartesian Multipole Moments
 -----------------------------------------------------------------
    Charge (ESU x 10^10)
                 0.0000
    Dipole Moment (Debye)
         X      -0.3707      Y       0.0814      Z      -0.8269
       Tot       0.9099
    Quadrupole Moments (Debye-Ang)
        XX     -90.1494     XY       4.5756     YY     -74.4671
        XZ       0.6702     YZ       4.9411     ZZ     -86.1346

 Total job time:  53.11s(wall), 1890.39s(cpu)
        *  Thank you very much for using Q-Chem.  Have a nice day.  *
