 Q-Chem 5.4, Q-Chem, Inc., Pleasanton, CA (2021)
 Q-Chem 5.4.0 for Intel X86 EM64T Linux

User input:
--------------------------------------------------------------
$molecule
0 1
C	0.126876	-3.887800	-0.713264
C	-0.113784	-3.701456	0.651267
C	-0.188043	-2.345170	1.068787
H	-0.236019	-4.545233	1.346782
C	0.000000	-1.450135	0.000000
S	0.265612	-2.321334	-1.504247
C	-0.439357	-1.934439	2.493059
H	-0.554378	-2.819799	3.147809
H	-1.362899	-1.326210	2.589987
H	0.394786	-1.325374	2.899892
C	0.000000	0.000000	0.000000
C	0.419634	0.732990	1.113020
C	1.111057	1.939951	0.820578
H	0.226746	0.396221	2.142881
C	1.234565	2.155183	-0.563588
S	0.482106	0.842416	-1.464748
C	1.640257	2.863718	1.882380
H	1.417524	2.475067	2.894974
H	1.192042	3.876565	1.808137
H	2.740717	2.989259	1.808230
H	1.710720	2.986508	-1.097114
H	-0.698744	-4.420219	-1.198647
H	1.069193	-4.419395	-0.886933
H	-1.063595	-1.450628	-0.187526
$end

$rem
JOBTYPE		SP
EXCHANGE	HF
CORRELATION	pRIMP2
BASIS		cc-pvtz
METHOD		rimp2
AUX_BASIS	rimp2-cc-pvtz
SOLVENT_METHOD	PCM
PURECART	11111
SYMMETRY	false
MEM_TOTAL	110000
SCF_CONVERGENCE = 6
THRESH=10
GUI = 2
$end

$solvent
dielectric 4.90
$end
--------------------------------------------------------------

             Standard Nuclear Orientation (Angstroms)
    I     Atom           X                Y                Z
 ----------------------------------------------------------------
    1      C       0.1268760000    -3.8878000000    -0.7132640000
    2      C      -0.1137840000    -3.7014560000     0.6512670000
    3      C      -0.1880430000    -2.3451700000     1.0687870000
    4      H      -0.2360190000    -4.5452330000     1.3467820000
    5      C       0.0000000000    -1.4501350000     0.0000000000
    6      S       0.2656120000    -2.3213340000    -1.5042470000
    7      C      -0.4393570000    -1.9344390000     2.4930590000
    8      H      -0.5543780000    -2.8197990000     3.1478090000
    9      H      -1.3628990000    -1.3262100000     2.5899870000
   10      H       0.3947860000    -1.3253740000     2.8998920000
   11      C       0.0000000000     0.0000000000     0.0000000000
   12      C       0.4196340000     0.7329900000     1.1130200000
   13      C       1.1110570000     1.9399510000     0.8205780000
   14      H       0.2267460000     0.3962210000     2.1428810000
   15      C       1.2345650000     2.1551830000    -0.5635880000
   16      S       0.4821060000     0.8424160000    -1.4647480000
   17      C       1.6402570000     2.8637180000     1.8823800000
   18      H       1.4175240000     2.4750670000     2.8949740000
   19      H       1.1920420000     3.8765650000     1.8081370000
   20      H       2.7407170000     2.9892590000     1.8082300000
   21      H       1.7107200000     2.9865080000    -1.0971140000
   22      H      -0.6987440000    -4.4202190000    -1.1986470000
   23      H       1.0691930000    -4.4193950000    -0.8869330000
   24      H      -1.0635950000    -1.4506280000    -0.1875260000
 ----------------------------------------------------------------

   10   -1180.7321401299      5.87e-07  Convergence criterion met
 Total energy in the final basis set =    -1180.7321401299
        RIMP2         total energy =     -1182.7444961370 a.u.

                    Orbital Energies (a.u.)
 --------------------------------------------------------------

 Alpha MOs
 -- Occupied --
-91.9829 -91.9452 -11.2812 -11.2649 -11.2608 -11.2568 -11.2502 -11.2429
-11.2337 -11.2336 -11.2285 -11.2204  -8.9828  -8.9497  -6.6637  -6.6631
 -6.6625  -6.6310  -6.6300  -6.6287  -1.2006  -1.1528  -1.0580  -1.0317
 -0.9999  -0.9629  -0.9153  -0.9001  -0.8160  -0.7605  -0.7315  -0.7075
 -0.6533  -0.6447  -0.6102  -0.5945  -0.5859  -0.5683  -0.5642  -0.5485
 -0.5460  -0.5342  -0.5226  -0.5023  -0.4846  -0.4754  -0.4680  -0.4420
 -0.3604  -0.3423  -0.3240  -0.2605

          Ground-State Mulliken Net Atomic Charges

     Atom                 Charge (a.u.)
  ----------------------------------------
      1 C                    -0.076300
      2 C                    -0.321135
      3 C                    -0.040977
      4 H                     0.178485
      5 C                     0.099053
      6 S                    -0.178776
      7 C                    -0.299625
      8 H                     0.121974
      9 H                     0.110272
     10 H                     0.103154
     11 C                    -0.054621
     12 C                    -0.263214
     13 C                     0.036428
     14 H                     0.191745
     15 C                    -0.258637
     16 S                     0.007888
     17 C                    -0.270614
     18 H                     0.100444
     19 H                     0.108497
     20 H                     0.107713
     21 H                     0.198336
     22 H                     0.110784
     23 H                     0.113224
     24 H                     0.175902
  ----------------------------------------
  Sum of atomic charges =     0.000000

                    Cartesian Multipole Moments
 -----------------------------------------------------------------
    Charge (ESU x 10^10)
                -0.0000
    Dipole Moment (Debye)
         X      -0.4090      Y      -0.0459      Z       3.6443
       Tot       3.6675
    Quadrupole Moments (Debye-Ang)
        XX     -89.3043     XY       6.5067     YY     -76.0488
        XZ       0.7084     YZ      -2.2709     ZZ     -85.4666

 Total job time:  55.18s(wall), 1918.50s(cpu)
        *  Thank you very much for using Q-Chem.  Have a nice day.  *
