 Q-Chem 5.4, Q-Chem, Inc., Pleasanton, CA (2021)
 Q-Chem 5.4.0 for Intel X86 EM64T Linux

User input:
--------------------------------------------------------------
$molecule
0 1
C	0.466510	-3.887800	-0.554267
C	-0.424173	-3.701456	0.507121
C	-0.697244	-2.345170	0.831575
H	-0.877789	-4.545233	1.048337
C	-0.000000	-1.450135	-0.000000
S	0.982150	-2.321334	-1.169911
C	-1.627024	-1.934439	1.939374
H	-2.054010	-2.819799	2.448894
H	-2.475299	-1.326210	1.561545
H	-1.108051	-1.325374	2.708773
C	0.000000	0.000000	0.000000
C	0.070542	0.841660	1.113020
C	0.187101	2.227746	0.820578
H	0.038051	0.454925	2.142881
C	0.208076	2.475009	-0.563588
S	0.080917	0.967235	-1.464748
C	0.276318	3.288613	1.882380
H	0.238704	2.842244	2.894974
H	-0.557951	4.017140	1.808137
H	1.220618	3.867466	1.808230
H	0.288286	3.429678	-1.097114
H	-0.005807	-4.420219	-1.387431
H	1.369415	-4.419395	-0.233510
H	-0.827337	-1.450628	-0.694200
$end

$rem
JOBTYPE		SP
EXCHANGE	HF
CORRELATION	pRIMP2
BASIS		cc-pvtz
METHOD		rimp2
AUX_BASIS	rimp2-cc-pvtz
SOLVENT_METHOD	PCM
PURECART	11111
SYMMETRY	false
MEM_TOTAL	110000
SCF_CONVERGENCE = 6
THRESH=10
GUI = 2
$end

$solvent
dielectric 4.90
$end
--------------------------------------------------------------

             Standard Nuclear Orientation (Angstroms)
    I     Atom           X                Y                Z
 ----------------------------------------------------------------
    1      C       0.4665100000    -3.8878000000    -0.5542670000
    2      C      -0.4241730000    -3.7014560000     0.5071210000
    3      C      -0.6972440000    -2.3451700000     0.8315750000
    4      H      -0.8777890000    -4.5452330000     1.0483370000
    5      C       0.0000000000    -1.4501350000     0.0000000000
    6      S       0.9821500000    -2.3213340000    -1.1699110000
    7      C      -1.6270240000    -1.9344390000     1.9393740000
    8      H      -2.0540100000    -2.8197990000     2.4488940000
    9      H      -2.4752990000    -1.3262100000     1.5615450000
   10      H      -1.1080510000    -1.3253740000     2.7087730000
   11      C       0.0000000000     0.0000000000     0.0000000000
   12      C       0.0705420000     0.8416600000     1.1130200000
   13      C       0.1871010000     2.2277460000     0.8205780000
   14      H       0.0380510000     0.4549250000     2.1428810000
   15      C       0.2080760000     2.4750090000    -0.5635880000
   16      S       0.0809170000     0.9672350000    -1.4647480000
   17      C       0.2763180000     3.2886130000     1.8823800000
   18      H       0.2387040000     2.8422440000     2.8949740000
   19      H      -0.5579510000     4.0171400000     1.8081370000
   20      H       1.2206180000     3.8674660000     1.8082300000
   21      H       0.2882860000     3.4296780000    -1.0971140000
   22      H      -0.0058070000    -4.4202190000    -1.3874310000
   23      H       1.3694150000    -4.4193950000    -0.2335100000
   24      H      -0.8273370000    -1.4506280000    -0.6942000000
 ----------------------------------------------------------------

   10   -1180.7598072162      5.09e-07  Convergence criterion met
 Total energy in the final basis set =    -1180.7598072162
        RIMP2         total energy =     -1182.7639654862 a.u.

                    Orbital Energies (a.u.)
 --------------------------------------------------------------

 Alpha MOs
 -- Occupied --
-91.9846 -91.9445 -11.2854 -11.2648 -11.2599 -11.2590 -11.2505 -11.2432
-11.2335 -11.2327 -11.2286 -11.2218  -8.9843  -8.9492  -6.6653  -6.6648
 -6.6641  -6.6305  -6.6295  -6.6282  -1.1995  -1.1532  -1.0584  -1.0294
 -1.0013  -0.9628  -0.9141  -0.9004  -0.8157  -0.7605  -0.7385  -0.7034
 -0.6544  -0.6404  -0.6109  -0.5913  -0.5810  -0.5688  -0.5659  -0.5536
 -0.5449  -0.5324  -0.5176  -0.5039  -0.4899  -0.4825  -0.4647  -0.4488
 -0.3571  -0.3427  -0.3227  -0.2699

          Ground-State Mulliken Net Atomic Charges

     Atom                 Charge (a.u.)
  ----------------------------------------
      1 C                    -0.074185
      2 C                    -0.325854
      3 C                    -0.027838
      4 H                     0.178610
      5 C                     0.117878
      6 S                    -0.176646
      7 C                    -0.279905
      8 H                     0.116542
      9 H                     0.108785
     10 H                     0.103040
     11 C                    -0.104152
     12 C                    -0.232891
     13 C                     0.016163
     14 H                     0.192033
     15 C                    -0.250932
     16 S                     0.002865
     17 C                    -0.273822
     18 H                     0.101491
     19 H                     0.108089
     20 H                     0.109066
     21 H                     0.197995
     22 H                     0.110705
     23 H                     0.114612
     24 H                     0.168351
  ----------------------------------------
  Sum of atomic charges =     0.000000

                    Cartesian Multipole Moments
 -----------------------------------------------------------------
    Charge (ESU x 10^10)
                -0.0000
    Dipole Moment (Debye)
         X      -2.0534      Y       0.1055      Z       2.7485
       Tot       3.4324
    Quadrupole Moments (Debye-Ang)
        XX     -91.9575     XY       4.2914     YY     -73.1265
        XZ      -0.0042     YZ      -0.7012     ZZ     -85.6554

 Total job time:  53.35s(wall), 1867.32s(cpu)
        *  Thank you very much for using Q-Chem.  Have a nice day.  *
