 Q-Chem 5.4, Q-Chem, Inc., Pleasanton, CA (2021)
 Q-Chem 5.4.0 for Intel X86 EM64T Linux

User input:
--------------------------------------------------------------
$molecule
0 1
C	0.713644	-3.887800	-0.124726
C	-0.650907	-3.701456	0.115824
C	-1.068646	-2.345170	0.188844
H	-1.346284	-4.545233	0.238841
C	0.000000	-1.450135	0.000000
S	1.504375	-2.321334	-0.264890
C	-2.492978	-1.934439	0.439816
H	-3.147582	-2.819799	0.555669
H	-2.899931	-1.326210	-0.394879
H	-2.589982	-1.325374	1.362799
C	0.000000	0.000000	0.000000
C	-0.003081	0.844605	1.113020
C	-0.007772	2.235575	0.820578
H	-0.001743	0.456510	2.142881
C	-0.008427	2.483726	-0.563588
S	-0.003691	0.970607	-1.464748
C	-0.011355	3.300181	1.882380
H	-0.009922	2.852233	2.894974
H	-0.905944	3.953225	1.808137
H	0.878901	3.959133	1.808230
H	-0.011727	3.441752	-1.097114
H	0.887375	-4.420219	-1.066566
H	1.199130	-4.419395	0.701364
H	-0.187554	-1.450628	-1.063590
$end

$rem
JOBTYPE		SP
EXCHANGE	HF
CORRELATION	pRIMP2
BASIS		cc-pvtz
METHOD		rimp2
AUX_BASIS	rimp2-cc-pvtz
SOLVENT_METHOD	PCM
PURECART	11111
SYMMETRY	false
MEM_TOTAL	110000
SCF_CONVERGENCE = 6
THRESH=10
GUI = 2
$end

$solvent
dielectric 4.90
$end
--------------------------------------------------------------

             Standard Nuclear Orientation (Angstroms)
    I     Atom           X                Y                Z
 ----------------------------------------------------------------
    1      C       0.7136440000    -3.8878000000    -0.1247260000
    2      C      -0.6509070000    -3.7014560000     0.1158240000
    3      C      -1.0686460000    -2.3451700000     0.1888440000
    4      H      -1.3462840000    -4.5452330000     0.2388410000
    5      C       0.0000000000    -1.4501350000     0.0000000000
    6      S       1.5043750000    -2.3213340000    -0.2648900000
    7      C      -2.4929780000    -1.9344390000     0.4398160000
    8      H      -3.1475820000    -2.8197990000     0.5556690000
    9      H      -2.8999310000    -1.3262100000    -0.3948790000
   10      H      -2.5899820000    -1.3253740000     1.3627990000
   11      C       0.0000000000     0.0000000000     0.0000000000
   12      C      -0.0030810000     0.8446050000     1.1130200000
   13      C      -0.0077720000     2.2355750000     0.8205780000
   14      H      -0.0017430000     0.4565100000     2.1428810000
   15      C      -0.0084270000     2.4837260000    -0.5635880000
   16      S      -0.0036910000     0.9706070000    -1.4647480000
   17      C      -0.0113550000     3.3001810000     1.8823800000
   18      H      -0.0099220000     2.8522330000     2.8949740000
   19      H      -0.9059440000     3.9532250000     1.8081370000
   20      H       0.8789010000     3.9591330000     1.8082300000
   21      H      -0.0117270000     3.4417520000    -1.0971140000
   22      H       0.8873750000    -4.4202190000    -1.0665660000
   23      H       1.1991300000    -4.4193950000     0.7013640000
   24      H      -0.1875540000    -1.4506280000    -1.0635900000
 ----------------------------------------------------------------

   10   -1180.7612674402      5.04e-07  Convergence criterion met
 Total energy in the final basis set =    -1180.7612674402
        RIMP2         total energy =     -1182.7649330801 a.u.

                    Orbital Energies (a.u.)
 --------------------------------------------------------------

 Alpha MOs
 -- Occupied --
-91.9869 -91.9415 -11.2793 -11.2656 -11.2626 -11.2557 -11.2510 -11.2411
-11.2379 -11.2313 -11.2289 -11.2190  -8.9864  -8.9461  -6.6673  -6.6668
 -6.6662  -6.6275  -6.6265  -6.6252  -1.1971  -1.1538  -1.0574  -1.0260
 -1.0025  -0.9629  -0.9128  -0.9006  -0.8126  -0.7609  -0.7418  -0.7034
 -0.6535  -0.6339  -0.6113  -0.5875  -0.5770  -0.5716  -0.5686  -0.5537
 -0.5424  -0.5292  -0.5128  -0.5051  -0.4922  -0.4823  -0.4634  -0.4492
 -0.3563  -0.3410  -0.3133  -0.2814

          Ground-State Mulliken Net Atomic Charges

     Atom                 Charge (a.u.)
  ----------------------------------------
      1 C                    -0.077226
      2 C                    -0.331117
      3 C                    -0.017943
      4 H                     0.177230
      5 C                     0.107953
      6 S                    -0.178166
      7 C                    -0.266388
      8 H                     0.113475
      9 H                     0.102968
     10 H                     0.104687
     11 C                    -0.120749
     12 C                    -0.216227
     13 C                     0.015298
     14 H                     0.185790
     15 C                    -0.243870
     16 S                     0.015899
     17 C                    -0.272377
     18 H                     0.102928
     19 H                     0.107460
     20 H                     0.108516
     21 H                     0.199315
     22 H                     0.110628
     23 H                     0.113479
     24 H                     0.158439
  ----------------------------------------
  Sum of atomic charges =     0.000000

                    Cartesian Multipole Moments
 -----------------------------------------------------------------
    Charge (ESU x 10^10)
                -0.0000
    Dipole Moment (Debye)
         X      -2.5332      Y       0.7346      Z       1.1646
       Tot       2.8832
    Quadrupole Moments (Debye-Ang)
        XX     -91.8834     XY       3.9100     YY     -73.6604
        XZ      -0.2978     YZ       1.7729     ZZ     -85.8178

 Total job time:  57.07s(wall), 1820.78s(cpu)
        *  Thank you very much for using Q-Chem.  Have a nice day.  *
