 Q-Chem 5.4, Q-Chem, Inc., Pleasanton, CA (2021)
 Q-Chem 5.4.0 for Intel X86 EM64T Linux

User input:
--------------------------------------------------------------
$molecule
0 1
C	-0.124726	-3.887800	-0.713644
C	0.115824	-3.701456	0.650907
C	0.188844	-2.345170	1.068646
H	0.238841	-4.545233	1.346284
C	0.000000	-1.450135	0.000000
S	-0.264890	-2.321334	-1.504375
C	0.439816	-1.934439	2.492978
H	0.555669	-2.819799	3.147582
H	-0.394879	-1.326210	2.899931
H	1.362799	-1.325374	2.589982
C	0.000000	0.000000	0.000000
C	0.645024	0.545262	1.113020
C	1.707554	1.442954	0.820578
H	0.348587	0.294774	2.142881
C	1.897227	1.602964	-0.563588
S	0.741155	0.626722	-1.464748
C	2.520787	2.130014	1.882380
H	2.178559	1.840981	2.894974
H	2.446016	3.235078	1.808137
H	3.597818	1.871604	1.808230
H	2.628997	2.221299	-1.097114
H	-1.066566	-4.420219	-0.887375
H	0.701364	-4.419395	-1.199130
H	-1.063590	-1.450628	0.187554
$end

$rem
JOBTYPE		SP
EXCHANGE	HF
CORRELATION	pRIMP2
BASIS		cc-pvtz
METHOD		rimp2
AUX_BASIS	rimp2-cc-pvtz
SOLVENT_METHOD	PCM
PURECART	11111
SYMMETRY	false
MEM_TOTAL	110000
SCF_CONVERGENCE = 6
THRESH=10
GUI = 2
$end

$solvent
dielectric 4.90
$end
--------------------------------------------------------------

             Standard Nuclear Orientation (Angstroms)
    I     Atom           X                Y                Z
 ----------------------------------------------------------------
    1      C      -0.1247260000    -3.8878000000    -0.7136440000
    2      C       0.1158240000    -3.7014560000     0.6509070000
    3      C       0.1888440000    -2.3451700000     1.0686460000
    4      H       0.2388410000    -4.5452330000     1.3462840000
    5      C       0.0000000000    -1.4501350000     0.0000000000
    6      S      -0.2648900000    -2.3213340000    -1.5043750000
    7      C       0.4398160000    -1.9344390000     2.4929780000
    8      H       0.5556690000    -2.8197990000     3.1475820000
    9      H      -0.3948790000    -1.3262100000     2.8999310000
   10      H       1.3627990000    -1.3253740000     2.5899820000
   11      C       0.0000000000     0.0000000000     0.0000000000
   12      C       0.6450240000     0.5452620000     1.1130200000
   13      C       1.7075540000     1.4429540000     0.8205780000
   14      H       0.3485870000     0.2947740000     2.1428810000
   15      C       1.8972270000     1.6029640000    -0.5635880000
   16      S       0.7411550000     0.6267220000    -1.4647480000
   17      C       2.5207870000     2.1300140000     1.8823800000
   18      H       2.1785590000     1.8409810000     2.8949740000
   19      H       2.4460160000     3.2350780000     1.8081370000
   20      H       3.5978180000     1.8716040000     1.8082300000
   21      H       2.6289970000     2.2212990000    -1.0971140000
   22      H      -1.0665660000    -4.4202190000    -0.8873750000
   23      H       0.7013640000    -4.4193950000    -1.1991300000
   24      H      -1.0635900000    -1.4506280000     0.1875540000
 ----------------------------------------------------------------

   11   -1180.6895647629      5.07e-07  Convergence criterion met
 Total energy in the final basis set =    -1180.6895647629
        RIMP2         total energy =     -1182.7135581765 a.u.

                    Orbital Energies (a.u.)
 --------------------------------------------------------------

 Alpha MOs
 -- Occupied --
-91.9778 -91.9408 -11.2744 -11.2631 -11.2624 -11.2508 -11.2507 -11.2456
-11.2402 -11.2329 -11.2299 -11.2153  -8.9784  -8.9454  -6.6592  -6.6584
 -6.6580  -6.6268  -6.6258  -6.6245  -1.2015  -1.1529  -1.0572  -1.0323
 -0.9982  -0.9641  -0.9146  -0.9012  -0.8121  -0.7594  -0.7309  -0.7126
 -0.6495  -0.6442  -0.6114  -0.5962  -0.5899  -0.5692  -0.5603  -0.5478
 -0.5444  -0.5345  -0.5247  -0.5043  -0.4793  -0.4708  -0.4537  -0.4389
 -0.3598  -0.3391  -0.3225  -0.2559

          Ground-State Mulliken Net Atomic Charges

     Atom                 Charge (a.u.)
  ----------------------------------------
      1 C                    -0.074838
      2 C                    -0.337332
      3 C                    -0.041830
      4 H                     0.176893
      5 C                     0.082171
      6 S                    -0.190024
      7 C                    -0.289205
      8 H                     0.120630
      9 H                     0.099805
     10 H                     0.109842
     11 C                    -0.098331
     12 C                    -0.229873
     13 C                     0.022153
     14 H                     0.200701
     15 C                    -0.218024
     16 S                     0.022290
     17 C                    -0.274245
     18 H                     0.101123
     19 H                     0.111591
     20 H                     0.107101
     21 H                     0.198184
     22 H                     0.109266
     23 H                     0.110913
     24 H                     0.181041
  ----------------------------------------
  Sum of atomic charges =     0.000000

                    Cartesian Multipole Moments
 -----------------------------------------------------------------
    Charge (ESU x 10^10)
                -0.0000
    Dipole Moment (Debye)
         X       1.4812      Y       0.3731      Z       4.1745
       Tot       4.4452
    Quadrupole Moments (Debye-Ang)
        XX     -85.0021     XY       6.2819     YY     -80.9899
        XZ       1.0229     YZ      -2.9721     ZZ     -85.4173

 Total job time:  78.26s(wall), 3157.93s(cpu)
        *  Thank you very much for using Q-Chem.  Have a nice day.  *
