 Q-Chem 5.4, Q-Chem, Inc., Pleasanton, CA (2021)
 Q-Chem 5.4.0 for Intel X86 EM64T Linux

User input:
--------------------------------------------------------------
$molecule
0 1
C	-0.363176	-3.887800	0.626855
C	0.329669	-3.701456	-0.573074
C	0.542250	-2.345170	-0.940016
H	0.682412	-4.545233	-1.184837
C	0.000000	-1.450135	0.000000
S	-0.764076	-2.321334	1.322686
C	1.265537	-1.934439	-2.192440
H	1.597559	-2.819799	-2.768365
H	2.166534	-1.326210	-1.967653
H	0.620843	-1.325374	-2.860032
C	0.000000	0.000000	0.000000
C	-0.003081	0.844605	1.113020
C	-0.007772	2.235575	0.820578
H	-0.001743	0.456510	2.142881
C	-0.008427	2.483726	-0.563588
S	-0.003691	0.970607	-1.464748
C	-0.011355	3.300181	1.882380
H	-0.009922	2.852233	2.894974
H	-0.905944	3.953225	1.808137
H	0.878901	3.959133	1.808230
H	-0.011727	3.441752	-1.097114
H	0.246643	-4.420219	1.365344
H	-1.308062	-4.419395	0.467758
H	0.935314	-1.450628	0.539988
$end

$rem
JOBTYPE		SP
EXCHANGE	HF
CORRELATION	pRIMP2
BASIS		cc-pvtz
METHOD		rimp2
AUX_BASIS	rimp2-cc-pvtz
SOLVENT_METHOD	PCM
PURECART	11111
SYMMETRY	false
MEM_TOTAL	110000
SCF_CONVERGENCE = 6
THRESH=10
GUI = 2
$end

$solvent
dielectric 4.90
$end
--------------------------------------------------------------

             Standard Nuclear Orientation (Angstroms)
    I     Atom           X                Y                Z
 ----------------------------------------------------------------
    1      C      -0.3631760000    -3.8878000000     0.6268550000
    2      C       0.3296690000    -3.7014560000    -0.5730740000
    3      C       0.5422500000    -2.3451700000    -0.9400160000
    4      H       0.6824120000    -4.5452330000    -1.1848370000
    5      C       0.0000000000    -1.4501350000     0.0000000000
    6      S      -0.7640760000    -2.3213340000     1.3226860000
    7      C       1.2655370000    -1.9344390000    -2.1924400000
    8      H       1.5975590000    -2.8197990000    -2.7683650000
    9      H       2.1665340000    -1.3262100000    -1.9676530000
   10      H       0.6208430000    -1.3253740000    -2.8600320000
   11      C       0.0000000000     0.0000000000     0.0000000000
   12      C      -0.0030810000     0.8446050000     1.1130200000
   13      C      -0.0077720000     2.2355750000     0.8205780000
   14      H      -0.0017430000     0.4565100000     2.1428810000
   15      C      -0.0084270000     2.4837260000    -0.5635880000
   16      S      -0.0036910000     0.9706070000    -1.4647480000
   17      C      -0.0113550000     3.3001810000     1.8823800000
   18      H      -0.0099220000     2.8522330000     2.8949740000
   19      H      -0.9059440000     3.9532250000     1.8081370000
   20      H       0.8789010000     3.9591330000     1.8082300000
   21      H      -0.0117270000     3.4417520000    -1.0971140000
   22      H       0.2466430000    -4.4202190000     1.3653440000
   23      H      -1.3080620000    -4.4193950000     0.4677580000
   24      H       0.9353140000    -1.4506280000     0.5399880000
 ----------------------------------------------------------------

   10   -1180.7606186704      4.93e-07  Convergence criterion met
 Total energy in the final basis set =    -1180.7606186704
        RIMP2         total energy =     -1182.7659597779 a.u.

                    Orbital Energies (a.u.)
 --------------------------------------------------------------

 Alpha MOs
 -- Occupied --
-91.9825 -91.9459 -11.2892 -11.2649 -11.2604 -11.2554 -11.2505 -11.2439
-11.2325 -11.2322 -11.2280 -11.2222  -8.9823  -8.9504  -6.6632  -6.6627
 -6.6621  -6.6318  -6.6308  -6.6295  -1.2006  -1.1526  -1.0590  -1.0272
 -1.0075  -0.9565  -0.9152  -0.9015  -0.8147  -0.7697  -0.7213  -0.7017
 -0.6620  -0.6456  -0.6110  -0.5879  -0.5813  -0.5736  -0.5681  -0.5536
 -0.5418  -0.5329  -0.5146  -0.5077  -0.4911  -0.4844  -0.4578  -0.4489
 -0.3579  -0.3423  -0.3236  -0.2670

          Ground-State Mulliken Net Atomic Charges

     Atom                 Charge (a.u.)
  ----------------------------------------
      1 C                    -0.075067
      2 C                    -0.323757
      3 C                    -0.032598
      4 H                     0.179132
      5 C                     0.107861
      6 S                    -0.177004
      7 C                    -0.296432
      8 H                     0.117585
      9 H                     0.113636
     10 H                     0.110287
     11 C                    -0.032898
     12 C                    -0.296376
     13 C                     0.034175
     14 H                     0.179905
     15 C                    -0.268293
     16 S                     0.008706
     17 C                    -0.272699
     18 H                     0.102801
     19 H                     0.108668
     20 H                     0.107832
     21 H                     0.196016
     22 H                     0.110727
     23 H                     0.114214
     24 H                     0.183579
  ----------------------------------------
  Sum of atomic charges =     0.000000

                    Cartesian Multipole Moments
 -----------------------------------------------------------------
    Charge (ESU x 10^10)
                -0.0000
    Dipole Moment (Debye)
         X       1.9806      Y      -0.2320      Z      -0.2641
       Tot       2.0116
    Quadrupole Moments (Debye-Ang)
        XX     -91.9329     XY      -3.1547     YY     -73.4330
        XZ      -0.0601     YZ       3.6980     ZZ     -85.4625

 Total job time:  61.16s(wall), 2050.95s(cpu)
        *  Thank you very much for using Q-Chem.  Have a nice day.  *
