 Q-Chem 5.4, Q-Chem, Inc., Pleasanton, CA (2021)
 Q-Chem 5.4.0 for Intel X86 EM64T Linux

User input:
--------------------------------------------------------------
$molecule
0 1
C	-0.713644	-3.887800	0.124726
C	0.650907	-3.701456	-0.115824
C	1.068646	-2.345170	-0.188844
H	1.346284	-4.545233	-0.238841
C	0.000000	-1.450135	0.000000
S	-1.504375	-2.321334	0.264890
C	2.492978	-1.934439	-0.439816
H	3.147582	-2.819799	-0.555669
H	2.899931	-1.326210	0.394879
H	2.589982	-1.325374	-1.362799
C	0.000000	0.000000	0.000000
C	0.729909	0.424971	1.113020
C	1.932179	1.124518	0.820578
H	0.394478	0.229765	2.142881
C	2.146756	1.249161	-0.563588
S	0.838724	0.488500	-1.464748
C	2.852364	1.659924	1.882380
H	2.465145	1.434710	2.894974
H	2.970621	2.761183	1.808137
H	3.868160	1.218416	1.808230
H	2.974781	1.731032	-1.097114
H	-0.887375	-4.420219	1.066566
H	-1.199130	-4.419395	-0.701364
H	0.187554	-1.450628	1.063590
$end

$rem
JOBTYPE		SP
EXCHANGE	HF
CORRELATION	pRIMP2
BASIS		cc-pvtz
METHOD		rimp2
AUX_BASIS	rimp2-cc-pvtz
SOLVENT_METHOD	PCM
PURECART	11111
SYMMETRY	false
MEM_TOTAL	110000
SCF_CONVERGENCE = 6
THRESH=10
GUI = 2
$end

$solvent
dielectric 4.90
$end
--------------------------------------------------------------

             Standard Nuclear Orientation (Angstroms)
    I     Atom           X                Y                Z
 ----------------------------------------------------------------
    1      C      -0.7136440000    -3.8878000000     0.1247260000
    2      C       0.6509070000    -3.7014560000    -0.1158240000
    3      C       1.0686460000    -2.3451700000    -0.1888440000
    4      H       1.3462840000    -4.5452330000    -0.2388410000
    5      C       0.0000000000    -1.4501350000     0.0000000000
    6      S      -1.5043750000    -2.3213340000     0.2648900000
    7      C       2.4929780000    -1.9344390000    -0.4398160000
    8      H       3.1475820000    -2.8197990000    -0.5556690000
    9      H       2.8999310000    -1.3262100000     0.3948790000
   10      H       2.5899820000    -1.3253740000    -1.3627990000
   11      C       0.0000000000     0.0000000000     0.0000000000
   12      C       0.7299090000     0.4249710000     1.1130200000
   13      C       1.9321790000     1.1245180000     0.8205780000
   14      H       0.3944780000     0.2297650000     2.1428810000
   15      C       2.1467560000     1.2491610000    -0.5635880000
   16      S       0.8387240000     0.4885000000    -1.4647480000
   17      C       2.8523640000     1.6599240000     1.8823800000
   18      H       2.4651450000     1.4347100000     2.8949740000
   19      H       2.9706210000     2.7611830000     1.8081370000
   20      H       3.8681600000     1.2184160000     1.8082300000
   21      H       2.9747810000     1.7310320000    -1.0971140000
   22      H      -0.8873750000    -4.4202190000     1.0665660000
   23      H      -1.1991300000    -4.4193950000    -0.7013640000
   24      H       0.1875540000    -1.4506280000     1.0635900000
 ----------------------------------------------------------------

   11   -1180.6735483372      5.18e-07  Convergence criterion met
 Total energy in the final basis set =    -1180.6735483372
        RIMP2         total energy =     -1182.7017682691 a.u.

                    Orbital Energies (a.u.)
 --------------------------------------------------------------

 Alpha MOs
 -- Occupied --
-91.9791 -91.9298 -11.2880 -11.2642 -11.2575 -11.2532 -11.2528 -11.2483
-11.2350 -11.2326 -11.2234 -11.2138  -8.9800  -8.9349  -6.6608  -6.6600
 -6.6598  -6.6163  -6.6153  -6.6140  -1.2078  -1.1532  -1.0592  -1.0205
 -1.0117  -0.9597  -0.9106  -0.9015  -0.8059  -0.7623  -0.7470  -0.7001
 -0.6576  -0.6357  -0.6135  -0.5928  -0.5840  -0.5755  -0.5632  -0.5528
 -0.5420  -0.5244  -0.5227  -0.5025  -0.4924  -0.4616  -0.4480  -0.4359
 -0.3493  -0.3447  -0.3183  -0.2659

          Ground-State Mulliken Net Atomic Charges

     Atom                 Charge (a.u.)
  ----------------------------------------
      1 C                    -0.071459
      2 C                    -0.334883
      3 C                    -0.023318
      4 H                     0.174775
      5 C                     0.088688
      6 S                    -0.227711
      7 C                    -0.318798
      8 H                     0.123092
      9 H                     0.113213
     10 H                     0.120281
     11 C                    -0.156224
     12 C                    -0.143460
     13 C                    -0.016387
     14 H                     0.188524
     15 C                    -0.156111
     16 S                     0.008622
     17 C                    -0.268305
     18 H                     0.104143
     19 H                     0.114219
     20 H                     0.104198
     21 H                     0.200611
     22 H                     0.104602
     23 H                     0.106370
     24 H                     0.165317
  ----------------------------------------
  Sum of atomic charges =     0.000000

                    Cartesian Multipole Moments
 -----------------------------------------------------------------
    Charge (ESU x 10^10)
                -0.0000
    Dipole Moment (Debye)
         X       5.4628      Y       1.0076      Z       2.0442
       Tot       5.9191
    Quadrupole Moments (Debye-Ang)
        XX     -82.9612     XY       1.2620     YY     -84.6594
        XZ       0.3783     YZ       0.1604     ZZ     -84.9857

 Total job time:  65.32s(wall), 2245.72s(cpu)
        *  Thank you very much for using Q-Chem.  Have a nice day.  *
