 Q-Chem 5.4, Q-Chem, Inc., Pleasanton, CA (2021)
 Q-Chem 5.4.0 for Intel X86 EM64T Linux

User input:
--------------------------------------------------------------
$molecule
0 1
C	0.626855	-3.887800	0.363176
C	-0.573074	-3.701456	-0.329669
C	-0.940016	-2.345170	-0.542250
H	-1.184837	-4.545233	-0.682412
C	0.000000	-1.450135	0.000000
S	1.322686	-2.321334	0.764076
C	-2.192440	-1.934439	-1.265537
H	-2.768365	-2.819799	-1.597559
H	-1.967653	-1.326210	-2.166534
H	-2.860032	-1.325374	-0.620843
C	0.000000	0.000000	0.000000
C	-0.003081	0.844605	1.113020
C	-0.007772	2.235575	0.820578
H	-0.001743	0.456510	2.142881
C	-0.008427	2.483726	-0.563588
S	-0.003691	0.970607	-1.464748
C	-0.011355	3.300181	1.882380
H	-0.009922	2.852233	2.894974
H	-0.905944	3.953225	1.808137
H	0.878901	3.959133	1.808230
H	-0.011727	3.441752	-1.097114
H	1.365344	-4.420219	-0.246643
H	0.467758	-4.419395	1.308062
H	0.539988	-1.450628	-0.935314
$end

$rem
JOBTYPE		SP
EXCHANGE	HF
CORRELATION	pRIMP2
BASIS		cc-pvtz
METHOD		rimp2
AUX_BASIS	rimp2-cc-pvtz
SOLVENT_METHOD	PCM
PURECART	11111
SYMMETRY	false
MEM_TOTAL	110000
SCF_CONVERGENCE = 6
THRESH=10
GUI = 2
$end

$solvent
dielectric 4.90
$end
--------------------------------------------------------------

             Standard Nuclear Orientation (Angstroms)
    I     Atom           X                Y                Z
 ----------------------------------------------------------------
    1      C       0.6268550000    -3.8878000000     0.3631760000
    2      C      -0.5730740000    -3.7014560000    -0.3296690000
    3      C      -0.9400160000    -2.3451700000    -0.5422500000
    4      H      -1.1848370000    -4.5452330000    -0.6824120000
    5      C       0.0000000000    -1.4501350000     0.0000000000
    6      S       1.3226860000    -2.3213340000     0.7640760000
    7      C      -2.1924400000    -1.9344390000    -1.2655370000
    8      H      -2.7683650000    -2.8197990000    -1.5975590000
    9      H      -1.9676530000    -1.3262100000    -2.1665340000
   10      H      -2.8600320000    -1.3253740000    -0.6208430000
   11      C       0.0000000000     0.0000000000     0.0000000000
   12      C      -0.0030810000     0.8446050000     1.1130200000
   13      C      -0.0077720000     2.2355750000     0.8205780000
   14      H      -0.0017430000     0.4565100000     2.1428810000
   15      C      -0.0084270000     2.4837260000    -0.5635880000
   16      S      -0.0036910000     0.9706070000    -1.4647480000
   17      C      -0.0113550000     3.3001810000     1.8823800000
   18      H      -0.0099220000     2.8522330000     2.8949740000
   19      H      -0.9059440000     3.9532250000     1.8081370000
   20      H       0.8789010000     3.9591330000     1.8082300000
   21      H      -0.0117270000     3.4417520000    -1.0971140000
   22      H       1.3653440000    -4.4202190000    -0.2466430000
   23      H       0.4677580000    -4.4193950000     1.3080620000
   24      H       0.5399880000    -1.4506280000    -0.9353140000
 ----------------------------------------------------------------

   10   -1180.7614085333      4.94e-07  Convergence criterion met
 Total energy in the final basis set =    -1180.7614085333
        RIMP2         total energy =     -1182.7652537055 a.u.

                    Orbital Energies (a.u.)
 --------------------------------------------------------------

 Alpha MOs
 -- Occupied --
-91.9859 -91.9436 -11.2821 -11.2633 -11.2629 -11.2571 -11.2509 -11.2418
-11.2362 -11.2313 -11.2285 -11.2197  -8.9856  -8.9480  -6.6665  -6.6660
 -6.6653  -6.6294  -6.6284  -6.6271  -1.1981  -1.1536  -1.0581  -1.0254
 -1.0047  -0.9609  -0.9140  -0.9007  -0.8126  -0.7667  -0.7324  -0.7042
 -0.6544  -0.6366  -0.6111  -0.5899  -0.5760  -0.5737  -0.5694  -0.5529
 -0.5418  -0.5308  -0.5132  -0.5052  -0.4907  -0.4843  -0.4622  -0.4483
 -0.3560  -0.3424  -0.3179  -0.2765

          Ground-State Mulliken Net Atomic Charges

     Atom                 Charge (a.u.)
  ----------------------------------------
      1 C                    -0.076738
      2 C                    -0.327274
      3 C                    -0.042320
      4 H                     0.177584
      5 C                     0.124781
      6 S                    -0.175048
      7 C                    -0.270535
      8 H                     0.114710
      9 H                     0.100901
     10 H                     0.110200
     11 C                    -0.115837
     12 C                    -0.230823
     13 C                     0.022000
     14 H                     0.186562
     15 C                    -0.246537
     16 S                     0.012283
     17 C                    -0.272265
     18 H                     0.103203
     19 H                     0.107859
     20 H                     0.108288
     21 H                     0.198427
     22 H                     0.111619
     23 H                     0.111752
     24 H                     0.167211
  ----------------------------------------
  Sum of atomic charges =     0.000000

                    Cartesian Multipole Moments
 -----------------------------------------------------------------
    Charge (ESU x 10^10)
                -0.0000
    Dipole Moment (Debye)
         X      -1.7130      Y       0.4993      Z      -0.3964
       Tot       1.8278
    Quadrupole Moments (Debye-Ang)
        XX     -91.4386     XY       2.3806     YY     -73.5336
        XZ      -0.0215     YZ       4.1986     ZZ     -86.1776

 Total job time:  59.89s(wall), 1896.49s(cpu)
        *  Thank you very much for using Q-Chem.  Have a nice day.  *
