 Q-Chem 5.4, Q-Chem, Inc., Pleasanton, CA (2021)
 Q-Chem 5.4.0 for Intel X86 EM64T Linux

User input:
--------------------------------------------------------------
$molecule
0 1
C	0.626855	-3.887800	0.363176
C	-0.573074	-3.701456	-0.329669
C	-0.940016	-2.345170	-0.542250
H	-1.184837	-4.545233	-0.682412
C	0.000000	-1.450135	0.000000
S	1.322686	-2.321334	0.764076
C	-2.192440	-1.934439	-1.265537
H	-2.768365	-2.819799	-1.597559
H	-1.967653	-1.326210	-2.166534
H	-2.860032	-1.325374	-0.620843
C	0.000000	0.000000	0.000000
C	0.645024	0.545262	1.113020
C	1.707554	1.442954	0.820578
H	0.348587	0.294774	2.142881
C	1.897227	1.602964	-0.563588
S	0.741155	0.626722	-1.464748
C	2.520787	2.130014	1.882380
H	2.178559	1.840981	2.894974
H	2.446016	3.235078	1.808137
H	3.597818	1.871604	1.808230
H	2.628997	2.221299	-1.097114
H	1.365344	-4.420219	-0.246643
H	0.467758	-4.419395	1.308062
H	0.539988	-1.450628	-0.935314
$end

$rem
JOBTYPE		SP
EXCHANGE	HF
CORRELATION	pRIMP2
BASIS		cc-pvtz
METHOD		rimp2
AUX_BASIS	rimp2-cc-pvtz
SOLVENT_METHOD	PCM
PURECART	11111
SYMMETRY	false
MEM_TOTAL	110000
SCF_CONVERGENCE = 6
THRESH=10
GUI = 2
$end

$solvent
dielectric 4.90
$end
--------------------------------------------------------------

             Standard Nuclear Orientation (Angstroms)
    I     Atom           X                Y                Z
 ----------------------------------------------------------------
    1      C       0.6268550000    -3.8878000000     0.3631760000
    2      C      -0.5730740000    -3.7014560000    -0.3296690000
    3      C      -0.9400160000    -2.3451700000    -0.5422500000
    4      H      -1.1848370000    -4.5452330000    -0.6824120000
    5      C       0.0000000000    -1.4501350000     0.0000000000
    6      S       1.3226860000    -2.3213340000     0.7640760000
    7      C      -2.1924400000    -1.9344390000    -1.2655370000
    8      H      -2.7683650000    -2.8197990000    -1.5975590000
    9      H      -1.9676530000    -1.3262100000    -2.1665340000
   10      H      -2.8600320000    -1.3253740000    -0.6208430000
   11      C       0.0000000000     0.0000000000     0.0000000000
   12      C       0.6450240000     0.5452620000     1.1130200000
   13      C       1.7075540000     1.4429540000     0.8205780000
   14      H       0.3485870000     0.2947740000     2.1428810000
   15      C       1.8972270000     1.6029640000    -0.5635880000
   16      S       0.7411550000     0.6267220000    -1.4647480000
   17      C       2.5207870000     2.1300140000     1.8823800000
   18      H       2.1785590000     1.8409810000     2.8949740000
   19      H       2.4460160000     3.2350780000     1.8081370000
   20      H       3.5978180000     1.8716040000     1.8082300000
   21      H       2.6289970000     2.2212990000    -1.0971140000
   22      H       1.3653440000    -4.4202190000    -0.2466430000
   23      H       0.4677580000    -4.4193950000     1.3080620000
   24      H       0.5399880000    -1.4506280000    -0.9353140000
 ----------------------------------------------------------------

   10   -1180.7073730177      7.09e-07  Convergence criterion met
 Total energy in the final basis set =    -1180.7073730177
        RIMP2         total energy =     -1182.7231389525 a.u.

                    Orbital Energies (a.u.)
 --------------------------------------------------------------

 Alpha MOs
 -- Occupied --
-91.9791 -91.9388 -11.2796 -11.2636 -11.2551 -11.2533 -11.2519 -11.2482
-11.2375 -11.2297 -11.2297 -11.2125  -8.9803  -8.9434  -6.6612  -6.6604
 -6.6599  -6.6248  -6.6238  -6.6225  -1.2030  -1.1535  -1.0585  -1.0242
 -1.0034  -0.9611  -0.9129  -0.9002  -0.8072  -0.7677  -0.7361  -0.7033
 -0.6506  -0.6325  -0.6140  -0.5877  -0.5786  -0.5754  -0.5674  -0.5508
 -0.5409  -0.5333  -0.5119  -0.5064  -0.4866  -0.4669  -0.4633  -0.4432
 -0.3543  -0.3426  -0.3212  -0.2657

          Ground-State Mulliken Net Atomic Charges

     Atom                 Charge (a.u.)
  ----------------------------------------
      1 C                    -0.079718
      2 C                    -0.333760
      3 C                    -0.053497
      4 H                     0.173520
      5 C                     0.082458
      6 S                    -0.189984
      7 C                    -0.276405
      8 H                     0.113980
      9 H                     0.100437
     10 H                     0.107810
     11 C                    -0.097957
     12 C                    -0.219584
     13 C                     0.030228
     14 H                     0.190776
     15 C                    -0.199631
     16 S                     0.006979
     17 C                    -0.266760
     18 H                     0.103450
     19 H                     0.108871
     20 H                     0.107474
     21 H                     0.200843
     22 H                     0.108657
     23 H                     0.107007
     24 H                     0.174808
  ----------------------------------------
  Sum of atomic charges =     0.000000

                    Cartesian Multipole Moments
 -----------------------------------------------------------------
    Charge (ESU x 10^10)
                -0.0000
    Dipole Moment (Debye)
         X       0.3285      Y       0.9056      Z      -0.0588
       Tot       0.9651
    Quadrupole Moments (Debye-Ang)
        XX     -84.5703     XY       8.3545     YY     -81.7798
        XZ       0.5682     YZ       3.7952     ZZ     -85.6529

 Total job time:  62.28s(wall), 2241.24s(cpu)
        *  Thank you very much for using Q-Chem.  Have a nice day.  *
