 Q-Chem 5.4, Q-Chem, Inc., Pleasanton, CA (2021)
 Q-Chem 5.4.0 for Intel X86 EM64T Linux

User input:
--------------------------------------------------------------
$molecule
0 1
C	0.627947	-3.887800	-0.361285
C	-0.572038	-3.701456	0.331462
C	-0.939610	-2.345170	0.542953
H	-1.183405	-4.545233	0.684893
C	0.000000	-1.450135	0.000000
S	1.323052	-2.321334	-0.763441
C	-2.192207	-1.934439	1.265941
H	-2.767709	-2.819799	1.598695
H	-2.860100	-1.326210	0.620770
H	-1.967682	-1.325374	2.166438
C	0.000000	0.000000	0.000000
C	0.419634	0.732990	1.113020
C	1.111057	1.939951	0.820578
H	0.226746	0.396221	2.142881
C	1.234565	2.155183	-0.563588
S	0.482106	0.842416	-1.464748
C	1.640257	2.863718	1.882380
H	1.417524	2.475067	2.894974
H	1.192042	3.876565	1.808137
H	2.740717	2.989259	1.808230
H	1.710720	2.986508	-1.097114
H	0.469073	-4.420219	-1.305744
H	1.366694	-4.419395	0.248940
H	-0.540012	-1.450628	-0.935300
$end

$rem
JOBTYPE		SP
EXCHANGE	HF
CORRELATION	pRIMP2
BASIS		cc-pvtz
METHOD		rimp2
AUX_BASIS	rimp2-cc-pvtz
SOLVENT_METHOD	PCM
PURECART	11111
SYMMETRY	false
MEM_TOTAL	110000
SCF_CONVERGENCE = 6
THRESH=10
GUI = 2
$end

$solvent
dielectric 4.90
$end
--------------------------------------------------------------

             Standard Nuclear Orientation (Angstroms)
    I     Atom           X                Y                Z
 ----------------------------------------------------------------
    1      C       0.6279470000    -3.8878000000    -0.3612850000
    2      C      -0.5720380000    -3.7014560000     0.3314620000
    3      C      -0.9396100000    -2.3451700000     0.5429530000
    4      H      -1.1834050000    -4.5452330000     0.6848930000
    5      C       0.0000000000    -1.4501350000     0.0000000000
    6      S       1.3230520000    -2.3213340000    -0.7634410000
    7      C      -2.1922070000    -1.9344390000     1.2659410000
    8      H      -2.7677090000    -2.8197990000     1.5986950000
    9      H      -2.8601000000    -1.3262100000     0.6207700000
   10      H      -1.9676820000    -1.3253740000     2.1664380000
   11      C       0.0000000000     0.0000000000     0.0000000000
   12      C       0.4196340000     0.7329900000     1.1130200000
   13      C       1.1110570000     1.9399510000     0.8205780000
   14      H       0.2267460000     0.3962210000     2.1428810000
   15      C       1.2345650000     2.1551830000    -0.5635880000
   16      S       0.4821060000     0.8424160000    -1.4647480000
   17      C       1.6402570000     2.8637180000     1.8823800000
   18      H       1.4175240000     2.4750670000     2.8949740000
   19      H       1.1920420000     3.8765650000     1.8081370000
   20      H       2.7407170000     2.9892590000     1.8082300000
   21      H       1.7107200000     2.9865080000    -1.0971140000
   22      H       0.4690730000    -4.4202190000    -1.3057440000
   23      H       1.3666940000    -4.4193950000     0.2489400000
   24      H      -0.5400120000    -1.4506280000    -0.9353000000
 ----------------------------------------------------------------

   10   -1180.7429351760      5.50e-07  Convergence criterion met
 Total energy in the final basis set =    -1180.7429351760
        RIMP2         total energy =     -1182.7512921553 a.u.

                    Orbital Energies (a.u.)
 --------------------------------------------------------------

 Alpha MOs
 -- Occupied --
-91.9849 -91.9403 -11.2727 -11.2701 -11.2612 -11.2534 -11.2510 -11.2414
-11.2399 -11.2313 -11.2290 -11.2171  -8.9848  -8.9450  -6.6657  -6.6651
 -6.6645  -6.6263  -6.6253  -6.6240  -1.1975  -1.1538  -1.0566  -1.0272
 -1.0003  -0.9636  -0.9113  -0.9008  -0.8127  -0.7572  -0.7435  -0.7029
 -0.6523  -0.6331  -0.6113  -0.5879  -0.5800  -0.5703  -0.5666  -0.5529
 -0.5423  -0.5306  -0.5107  -0.5062  -0.4910  -0.4761  -0.4639  -0.4483
 -0.3559  -0.3392  -0.3177  -0.2733

          Ground-State Mulliken Net Atomic Charges

     Atom                 Charge (a.u.)
  ----------------------------------------
      1 C                    -0.075537
      2 C                    -0.327767
      3 C                    -0.035177
      4 H                     0.175623
      5 C                     0.066716
      6 S                    -0.171527
      7 C                    -0.272527
      8 H                     0.113418
      9 H                     0.104400
     10 H                     0.103319
     11 C                    -0.108124
     12 C                    -0.192834
     13 C                     0.011421
     14 H                     0.188938
     15 C                    -0.219534
     16 S                     0.007593
     17 C                    -0.271098
     18 H                     0.102189
     19 H                     0.107423
     20 H                     0.107922
     21 H                     0.199270
     22 H                     0.108157
     23 H                     0.111823
     24 H                     0.165913
  ----------------------------------------
  Sum of atomic charges =     0.000000

                    Cartesian Multipole Moments
 -----------------------------------------------------------------
    Charge (ESU x 10^10)
                -0.0000
    Dipole Moment (Debye)
         X      -1.3748      Y       0.8077      Z       2.0372
       Tot       2.5870
    Quadrupole Moments (Debye-Ang)
        XX     -89.2431     XY       8.7813     YY     -76.7133
        XZ       0.2494     YZ       0.2101     ZZ     -85.4948

 Total job time:  56.25s(wall), 2039.05s(cpu)
        *  Thank you very much for using Q-Chem.  Have a nice day.  *
