 Q-Chem 5.4, Q-Chem, Inc., Pleasanton, CA (2021)
 Q-Chem 5.4.0 for Intel X86 EM64T Linux

User input:
--------------------------------------------------------------
$molecule
0 1
C	0.680396	-3.887800	0.248806
C	-0.621614	-3.701456	-0.225147
C	-1.019896	-2.345170	-0.370780
H	-1.285337	-4.545233	-0.466300
C	0.000000	-1.450135	0.000000
S	1.435271	-2.321334	0.522786
C	-2.378891	-1.934439	-0.865597
H	-3.003720	-2.819799	-1.092567
H	-2.313975	-1.326210	-1.791940
H	-2.924390	-1.325374	-0.114772
C	0.000000	0.000000	0.000000
C	0.354153	0.766774	1.113020
C	0.937751	2.029404	0.820578
H	0.191350	0.414475	2.142881
C	1.042030	2.254581	-0.563588
S	0.406851	0.881228	-1.464748
C	1.384426	2.995779	1.882380
H	1.196413	2.589194	2.894974
H	0.849641	3.965707	1.808137
H	2.469756	3.216753	1.808230
H	1.443919	3.124243	-1.097114
H	1.301772	-4.420219	-0.479986
H	0.687795	-4.419395	1.206964
H	0.369368	-1.450628	-1.014873
$end

$rem
JOBTYPE		SP
EXCHANGE	HF
CORRELATION	pRIMP2
BASIS		cc-pvtz
METHOD		rimp2
AUX_BASIS	rimp2-cc-pvtz
SOLVENT_METHOD	PCM
PURECART	11111
SYMMETRY	false
MEM_TOTAL	110000
SCF_CONVERGENCE = 6
THRESH=10
GUI = 2
$end

$solvent
dielectric 4.90
$end
--------------------------------------------------------------

             Standard Nuclear Orientation (Angstroms)
    I     Atom           X                Y                Z
 ----------------------------------------------------------------
    1      C       0.6803960000    -3.8878000000     0.2488060000
    2      C      -0.6216140000    -3.7014560000    -0.2251470000
    3      C      -1.0198960000    -2.3451700000    -0.3707800000
    4      H      -1.2853370000    -4.5452330000    -0.4663000000
    5      C       0.0000000000    -1.4501350000     0.0000000000
    6      S       1.4352710000    -2.3213340000     0.5227860000
    7      C      -2.3788910000    -1.9344390000    -0.8655970000
    8      H      -3.0037200000    -2.8197990000    -1.0925670000
    9      H      -2.3139750000    -1.3262100000    -1.7919400000
   10      H      -2.9243900000    -1.3253740000    -0.1147720000
   11      C       0.0000000000     0.0000000000     0.0000000000
   12      C       0.3541530000     0.7667740000     1.1130200000
   13      C       0.9377510000     2.0294040000     0.8205780000
   14      H       0.1913500000     0.4144750000     2.1428810000
   15      C       1.0420300000     2.2545810000    -0.5635880000
   16      S       0.4068510000     0.8812280000    -1.4647480000
   17      C       1.3844260000     2.9957790000     1.8823800000
   18      H       1.1964130000     2.5891940000     2.8949740000
   19      H       0.8496410000     3.9657070000     1.8081370000
   20      H       2.4697560000     3.2167530000     1.8082300000
   21      H       1.4439190000     3.1242430000    -1.0971140000
   22      H       1.3017720000    -4.4202190000    -0.4799860000
   23      H       0.6877950000    -4.4193950000     1.2069640000
   24      H       0.3693680000    -1.4506280000    -1.0148730000
 ----------------------------------------------------------------

   10   -1180.7499524609      5.23e-07  Convergence criterion met
 Total energy in the final basis set =    -1180.7499524609
        RIMP2         total energy =     -1182.7561785940 a.u.

                    Orbital Energies (a.u.)
 --------------------------------------------------------------

 Alpha MOs
 -- Occupied --
-91.9844 -91.9419 -11.2762 -11.2678 -11.2600 -11.2543 -11.2511 -11.2407
-11.2403 -11.2310 -11.2288 -11.2170  -8.9844  -8.9464  -6.6653  -6.6647
 -6.6641  -6.6278  -6.6268  -6.6255  -1.1981  -1.1537  -1.0575  -1.0254
 -1.0030  -0.9614  -0.9132  -0.9003  -0.8112  -0.7649  -0.7360  -0.7031
 -0.6531  -0.6340  -0.6115  -0.5882  -0.5769  -0.5736  -0.5681  -0.5524
 -0.5415  -0.5310  -0.5109  -0.5065  -0.4882  -0.4808  -0.4631  -0.4478
 -0.3560  -0.3410  -0.3161  -0.2772

          Ground-State Mulliken Net Atomic Charges

     Atom                 Charge (a.u.)
  ----------------------------------------
      1 C                    -0.073621
      2 C                    -0.327668
      3 C                    -0.043289
      4 H                     0.175528
      5 C                     0.089586
      6 S                    -0.174958
      7 C                    -0.270270
      8 H                     0.112961
      9 H                     0.100078
     10 H                     0.108049
     11 C                    -0.068452
     12 C                    -0.265457
     13 C                     0.046991
     14 H                     0.184639
     15 C                    -0.241272
     16 S                     0.010744
     17 C                    -0.270350
     18 H                     0.103160
     19 H                     0.107766
     20 H                     0.108213
     21 H                     0.199272
     22 H                     0.109538
     23 H                     0.109595
     24 H                     0.169216
  ----------------------------------------
  Sum of atomic charges =     0.000000

                    Cartesian Multipole Moments
 -----------------------------------------------------------------
    Charge (ESU x 10^10)
                -0.0000
    Dipole Moment (Debye)
         X      -1.1355      Y       0.7376      Z       0.0501
       Tot       1.3550
    Quadrupole Moments (Debye-Ang)
        XX     -89.5806     XY       7.1433     YY     -75.9682
        XZ       0.3005     YZ       3.5545     ZZ     -85.9774

 Total job time:  55.44s(wall), 2004.68s(cpu)
        *  Thank you very much for using Q-Chem.  Have a nice day.  *
