 Q-Chem 5.4, Q-Chem, Inc., Pleasanton, CA (2021)
 Q-Chem 5.4.0 for Intel X86 EM64T Linux

User input:
--------------------------------------------------------------
$molecule
0 1
C	0.713264	-3.887800	0.126876
C	-0.651267	-3.701456	-0.113784
C	-1.068787	-2.345170	-0.188043
H	-1.346782	-4.545233	-0.236019
C	0.000000	-1.450135	0.000000
S	1.504247	-2.321334	0.265612
C	-2.493059	-1.934439	-0.439357
H	-3.147809	-2.819799	-0.554378
H	-2.589987	-1.326210	-1.362899
H	-2.899892	-1.325374	0.394786
C	0.000000	0.000000	0.000000
C	0.143630	0.832309	1.113020
C	0.380550	2.202961	0.820578
H	0.077556	0.449877	2.142881
C	0.422995	2.447456	-0.563588
S	0.164909	0.956502	-1.464748
C	0.561888	3.252016	1.882380
H	0.485513	2.810624	2.894974
H	-0.205711	4.050482	1.808137
H	1.553045	3.746365	1.808230
H	0.586105	3.391501	-1.097114
H	1.198647	-4.420219	-0.698744
H	0.886933	-4.419395	1.069193
H	0.187526	-1.450628	-1.063595
$end

$rem
JOBTYPE		SP
EXCHANGE	HF
CORRELATION	pRIMP2
BASIS		cc-pvtz
METHOD		rimp2
AUX_BASIS	rimp2-cc-pvtz
SOLVENT_METHOD	PCM
PURECART	11111
SYMMETRY	false
MEM_TOTAL	110000
SCF_CONVERGENCE = 6
THRESH=10
GUI = 2
$end

$solvent
dielectric 4.90
$end
--------------------------------------------------------------

             Standard Nuclear Orientation (Angstroms)
    I     Atom           X                Y                Z
 ----------------------------------------------------------------
    1      C       0.7132640000    -3.8878000000     0.1268760000
    2      C      -0.6512670000    -3.7014560000    -0.1137840000
    3      C      -1.0687870000    -2.3451700000    -0.1880430000
    4      H      -1.3467820000    -4.5452330000    -0.2360190000
    5      C       0.0000000000    -1.4501350000     0.0000000000
    6      S       1.5042470000    -2.3213340000     0.2656120000
    7      C      -2.4930590000    -1.9344390000    -0.4393570000
    8      H      -3.1478090000    -2.8197990000    -0.5543780000
    9      H      -2.5899870000    -1.3262100000    -1.3628990000
   10      H      -2.8998920000    -1.3253740000     0.3947860000
   11      C       0.0000000000     0.0000000000     0.0000000000
   12      C       0.1436300000     0.8323090000     1.1130200000
   13      C       0.3805500000     2.2029610000     0.8205780000
   14      H       0.0775560000     0.4498770000     2.1428810000
   15      C       0.4229950000     2.4474560000    -0.5635880000
   16      S       0.1649090000     0.9565020000    -1.4647480000
   17      C       0.5618880000     3.2520160000     1.8823800000
   18      H       0.4855130000     2.8106240000     2.8949740000
   19      H      -0.2057110000     4.0504820000     1.8081370000
   20      H       1.5530450000     3.7463650000     1.8082300000
   21      H       0.5861050000     3.3915010000    -1.0971140000
   22      H       1.1986470000    -4.4202190000    -0.6987440000
   23      H       0.8869330000    -4.4193950000     1.0691930000
   24      H       0.1875260000    -1.4506280000    -1.0635950000
 ----------------------------------------------------------------

   10   -1180.7598809018      5.03e-07  Convergence criterion met
 Total energy in the final basis set =    -1180.7598809018
        RIMP2         total energy =     -1182.7638277174 a.u.

                    Orbital Energies (a.u.)
 --------------------------------------------------------------

 Alpha MOs
 -- Occupied --
-91.9866 -91.9422 -11.2788 -11.2658 -11.2617 -11.2555 -11.2510 -11.2410
-11.2382 -11.2311 -11.2288 -11.2183  -8.9862  -8.9467  -6.6671  -6.6666
 -6.6660  -6.6281  -6.6271  -6.6258  -1.1972  -1.1537  -1.0574  -1.0255
 -1.0032  -0.9620  -0.9132  -0.9004  -0.8122  -0.7635  -0.7381  -0.7034
 -0.6536  -0.6339  -0.6112  -0.5879  -0.5767  -0.5727  -0.5686  -0.5530
 -0.5418  -0.5298  -0.5115  -0.5054  -0.4908  -0.4834  -0.4633  -0.4487
 -0.3563  -0.3408  -0.3133  -0.2815

          Ground-State Mulliken Net Atomic Charges

     Atom                 Charge (a.u.)
  ----------------------------------------
      1 C                    -0.074769
      2 C                    -0.328433
      3 C                    -0.038841
      4 H                     0.176695
      5 C                     0.113865
      6 S                    -0.174880
      7 C                    -0.266798
      8 H                     0.112135
      9 H                     0.100899
     10 H                     0.106592
     11 C                    -0.109801
     12 C                    -0.225978
     13 C                     0.024451
     14 H                     0.184476
     15 C                    -0.244914
     16 S                     0.014753
     17 C                    -0.271977
     18 H                     0.103086
     19 H                     0.107606
     20 H                     0.108347
     21 H                     0.199289
     22 H                     0.110293
     23 H                     0.111568
     24 H                     0.162336
  ----------------------------------------
  Sum of atomic charges =     0.000000

                    Cartesian Multipole Moments
 -----------------------------------------------------------------
    Charge (ESU x 10^10)
                -0.0000
    Dipole Moment (Debye)
         X      -1.9128      Y       0.7398      Z       0.3470
       Tot       2.0800
    Quadrupole Moments (Debye-Ang)
        XX     -91.3102     XY       5.2137     YY     -74.0737
        XZ      -0.0494     YZ       3.0738     ZZ     -85.9964

 Total job time:  53.30s(wall), 1868.55s(cpu)
        *  Thank you very much for using Q-Chem.  Have a nice day.  *
