 Q-Chem 5.4, Q-Chem, Inc., Pleasanton, CA (2021)
 Q-Chem 5.4.0 for Intel X86 EM64T Linux

User input:
--------------------------------------------------------------
$molecule
0 1
C	-0.248806	-3.887800	0.680396
C	0.225147	-3.701456	-0.621614
C	0.370780	-2.345170	-1.019896
H	0.466300	-4.545233	-1.285337
C	-0.000000	-1.450135	-0.000000
S	-0.522786	-2.321334	1.435271
C	0.865597	-1.934439	-2.378891
H	1.092567	-2.819799	-3.003720
H	1.791940	-1.326210	-2.313975
H	0.114772	-1.325374	-2.924390
C	0.000000	0.000000	0.000000
C	0.540541	0.648986	1.113020
C	1.431046	1.717546	0.820578
H	0.292104	0.350827	2.142881
C	1.590053	1.908061	-0.563588
S	0.621066	0.745901	-1.464748
C	2.112618	2.535384	1.882380
H	1.825779	2.191315	2.894974
H	1.847090	3.610676	1.808137
H	3.218159	2.467925	1.808230
H	2.203332	2.644073	-1.097114
H	0.479986	-4.420219	1.301772
H	-1.206964	-4.419395	0.687795
H	1.014873	-1.450628	0.369368
$end

$rem
JOBTYPE		SP
EXCHANGE	HF
CORRELATION	pRIMP2
BASIS		cc-pvtz
METHOD		rimp2
AUX_BASIS	rimp2-cc-pvtz
SOLVENT_METHOD	PCM
PURECART	11111
SYMMETRY	false
MEM_TOTAL	110000
SCF_CONVERGENCE = 6
THRESH=10
GUI = 2
$end

$solvent
dielectric 4.90
$end
--------------------------------------------------------------

             Standard Nuclear Orientation (Angstroms)
    I     Atom           X                Y                Z
 ----------------------------------------------------------------
    1      C      -0.2488060000    -3.8878000000     0.6803960000
    2      C       0.2251470000    -3.7014560000    -0.6216140000
    3      C       0.3707800000    -2.3451700000    -1.0198960000
    4      H       0.4663000000    -4.5452330000    -1.2853370000
    5      C       0.0000000000    -1.4501350000     0.0000000000
    6      S      -0.5227860000    -2.3213340000     1.4352710000
    7      C       0.8655970000    -1.9344390000    -2.3788910000
    8      H       1.0925670000    -2.8197990000    -3.0037200000
    9      H       1.7919400000    -1.3262100000    -2.3139750000
   10      H       0.1147720000    -1.3253740000    -2.9243900000
   11      C       0.0000000000     0.0000000000     0.0000000000
   12      C       0.5405410000     0.6489860000     1.1130200000
   13      C       1.4310460000     1.7175460000     0.8205780000
   14      H       0.2921040000     0.3508270000     2.1428810000
   15      C       1.5900530000     1.9080610000    -0.5635880000
   16      S       0.6210660000     0.7459010000    -1.4647480000
   17      C       2.1126180000     2.5353840000     1.8823800000
   18      H       1.8257790000     2.1913150000     2.8949740000
   19      H       1.8470900000     3.6106760000     1.8081370000
   20      H       3.2181590000     2.4679250000     1.8082300000
   21      H       2.2033320000     2.6440730000    -1.0971140000
   22      H       0.4799860000    -4.4202190000     1.3017720000
   23      H      -1.2069640000    -4.4193950000     0.6877950000
   24      H       1.0148730000    -1.4506280000     0.3693680000
 ----------------------------------------------------------------

   10   -1180.7163071327      7.48e-07  Convergence criterion met
 Total energy in the final basis set =    -1180.7163071327
        RIMP2         total energy =     -1182.7344921738 a.u.

                    Orbital Energies (a.u.)
 --------------------------------------------------------------

 Alpha MOs
 -- Occupied --
-91.9797 -91.9425 -11.2798 -11.2633 -11.2627 -11.2584 -11.2508 -11.2421
-11.2349 -11.2288 -11.2285 -11.2186  -8.9805  -8.9472  -6.6612  -6.6606
 -6.6601  -6.6286  -6.6276  -6.6264  -1.2040  -1.1523  -1.0594  -1.0270
 -1.0069  -0.9551  -0.9133  -0.9037  -0.8081  -0.7713  -0.7213  -0.7015
 -0.6626  -0.6446  -0.6114  -0.5852  -0.5835  -0.5737  -0.5689  -0.5536
 -0.5414  -0.5314  -0.5170  -0.5149  -0.4917  -0.4687  -0.4522  -0.4430
 -0.3558  -0.3387  -0.3254  -0.2614

          Ground-State Mulliken Net Atomic Charges

     Atom                 Charge (a.u.)
  ----------------------------------------
      1 C                    -0.072037
      2 C                    -0.324551
      3 C                    -0.041055
      4 H                     0.178748
      5 C                     0.067764
      6 S                    -0.195910
      7 C                    -0.287598
      8 H                     0.112001
      9 H                     0.112963
     10 H                     0.109716
     11 C                    -0.039047
     12 C                    -0.250693
     13 C                     0.024305
     14 H                     0.181451
     15 C                    -0.257278
     16 S                     0.022072
     17 C                    -0.268962
     18 H                     0.103167
     19 H                     0.108262
     20 H                     0.105973
     21 H                     0.198275
     22 H                     0.109878
     23 H                     0.112346
     24 H                     0.190211
  ----------------------------------------
  Sum of atomic charges =     0.000000

                    Cartesian Multipole Moments
 -----------------------------------------------------------------
    Charge (ESU x 10^10)
                -0.0000
    Dipole Moment (Debye)
         X       2.8551      Y      -0.0419      Z      -0.7843
       Tot       2.9611
    Quadrupole Moments (Debye-Ang)
        XX     -87.5241     XY       2.5657     YY     -78.8862
        XZ       0.7028     YZ       3.5846     ZZ     -85.1638

 Total job time:  58.13s(wall), 1937.31s(cpu)
        *  Thank you very much for using Q-Chem.  Have a nice day.  *
