 Q-Chem 5.4, Q-Chem, Inc., Pleasanton, CA (2021)
 Q-Chem 5.4.0 for Intel X86 EM64T Linux

User input:
--------------------------------------------------------------
$molecule
0 1
C	-0.713644	-3.887800	0.124726
C	0.650907	-3.701456	-0.115824
C	1.068646	-2.345170	-0.188844
H	1.346284	-4.545233	-0.238841
C	-0.000000	-1.450135	-0.000000
S	-1.504375	-2.321334	0.264890
C	2.492978	-1.934439	-0.439816
H	3.147582	-2.819799	-0.555669
H	2.899931	-1.326210	0.394879
H	2.589982	-1.325374	-1.362799
C	0.000000	0.000000	0.000000
C	0.070542	0.841660	1.113020
C	0.187101	2.227746	0.820578
H	0.038051	0.454925	2.142881
C	0.208076	2.475009	-0.563588
S	0.080917	0.967235	-1.464748
C	0.276318	3.288613	1.882380
H	0.238704	2.842244	2.894974
H	-0.557951	4.017140	1.808137
H	1.220618	3.867466	1.808230
H	0.288286	3.429678	-1.097114
H	-0.887375	-4.420219	1.066566
H	-1.199130	-4.419395	-0.701364
H	0.187554	-1.450628	1.063590
$end

$rem
JOBTYPE		SP
EXCHANGE	HF
CORRELATION	pRIMP2
BASIS		cc-pvtz
METHOD		rimp2
AUX_BASIS	rimp2-cc-pvtz
SOLVENT_METHOD	PCM
PURECART	11111
SYMMETRY	false
MEM_TOTAL	110000
SCF_CONVERGENCE = 6
THRESH=10
GUI = 2
$end

$solvent
dielectric 4.90
$end
--------------------------------------------------------------

             Standard Nuclear Orientation (Angstroms)
    I     Atom           X                Y                Z
 ----------------------------------------------------------------
    1      C      -0.7136440000    -3.8878000000     0.1247260000
    2      C       0.6509070000    -3.7014560000    -0.1158240000
    3      C       1.0686460000    -2.3451700000    -0.1888440000
    4      H       1.3462840000    -4.5452330000    -0.2388410000
    5      C       0.0000000000    -1.4501350000     0.0000000000
    6      S      -1.5043750000    -2.3213340000     0.2648900000
    7      C       2.4929780000    -1.9344390000    -0.4398160000
    8      H       3.1475820000    -2.8197990000    -0.5556690000
    9      H       2.8999310000    -1.3262100000     0.3948790000
   10      H       2.5899820000    -1.3253740000    -1.3627990000
   11      C       0.0000000000     0.0000000000     0.0000000000
   12      C       0.0705420000     0.8416600000     1.1130200000
   13      C       0.1871010000     2.2277460000     0.8205780000
   14      H       0.0380510000     0.4549250000     2.1428810000
   15      C       0.2080760000     2.4750090000    -0.5635880000
   16      S       0.0809170000     0.9672350000    -1.4647480000
   17      C       0.2763180000     3.2886130000     1.8823800000
   18      H       0.2387040000     2.8422440000     2.8949740000
   19      H      -0.5579510000     4.0171400000     1.8081370000
   20      H       1.2206180000     3.8674660000     1.8082300000
   21      H       0.2882860000     3.4296780000    -1.0971140000
   22      H      -0.8873750000    -4.4202190000     1.0665660000
   23      H      -1.1991300000    -4.4193950000    -0.7013640000
   24      H       0.1875540000    -1.4506280000     1.0635900000
 ----------------------------------------------------------------

   10   -1180.7650951601      4.99e-07  Convergence criterion met
 Total energy in the final basis set =    -1180.7650951601
        RIMP2         total energy =     -1182.7692220053 a.u.

                    Orbital Energies (a.u.)
 --------------------------------------------------------------

 Alpha MOs
 -- Occupied --
-91.9811 -91.9413 -11.2819 -11.2651 -11.2625 -11.2561 -11.2510 -11.2431
-11.2411 -11.2311 -11.2295 -11.2195  -8.9810  -8.9460  -6.6619  -6.6614
 -6.6608  -6.6274  -6.6263  -6.6250  -1.1973  -1.1539  -1.0571  -1.0250
 -1.0067  -0.9595  -0.9121  -0.9014  -0.8142  -0.7622  -0.7343  -0.7016
 -0.6607  -0.6408  -0.6107  -0.5887  -0.5795  -0.5719  -0.5665  -0.5502
 -0.5412  -0.5297  -0.5138  -0.5050  -0.4940  -0.4816  -0.4594  -0.4491
 -0.3558  -0.3417  -0.3135  -0.2810

          Ground-State Mulliken Net Atomic Charges

     Atom                 Charge (a.u.)
  ----------------------------------------
      1 C                    -0.078229
      2 C                    -0.328792
      3 C                    -0.016021
      4 H                     0.177407
      5 C                     0.082444
      6 S                    -0.178052
      7 C                    -0.266660
      8 H                     0.113253
      9 H                     0.102578
     10 H                     0.106448
     11 C                    -0.080950
     12 C                    -0.241006
     13 C                     0.021596
     14 H                     0.181697
     15 C                    -0.237395
     16 S                     0.006918
     17 C                    -0.271672
     18 H                     0.102298
     19 H                     0.108802
     20 H                     0.107988
     21 H                     0.197286
     22 H                     0.111077
     23 H                     0.112721
     24 H                     0.166265
  ----------------------------------------
  Sum of atomic charges =     0.000000

                    Cartesian Multipole Moments
 -----------------------------------------------------------------
    Charge (ESU x 10^10)
                -0.0000
    Dipole Moment (Debye)
         X       2.6887      Y       0.5962      Z       1.8786
       Tot       3.3337
    Quadrupole Moments (Debye-Ang)
        XX     -91.8049     XY      -3.0994     YY     -73.7987
        XZ      -0.2209     YZ       0.5297     ZZ     -85.9258

 Total job time:  54.30s(wall), 1879.16s(cpu)
        *  Thank you very much for using Q-Chem.  Have a nice day.  *
