 Q-Chem 5.4, Q-Chem, Inc., Pleasanton, CA (2021)
 Q-Chem 5.4.0 for Intel X86 EM64T Linux

User input:
--------------------------------------------------------------
$molecule
0 1
C	0.246754	-3.887800	0.681143
C	-0.227093	-3.701456	-0.620906
C	-0.371543	-2.345170	-1.019618
H	-0.468992	-4.545233	-1.284357
C	0.000000	-1.450135	0.000000
S	0.522097	-2.321334	1.435522
C	-0.866035	-1.934439	-2.378731
H	-1.093799	-2.819799	-3.003272
H	-0.114688	-1.326210	-2.924444
H	-1.791841	-1.325374	-2.313987
C	0.000000	0.000000	0.000000
C	0.729909	0.424971	1.113020
C	1.932179	1.124518	0.820578
H	0.394478	0.229765	2.142881
C	2.146756	1.249161	-0.563588
S	0.838724	0.488500	-1.464748
C	2.852364	1.659924	1.882380
H	2.465145	1.434710	2.894974
H	2.970621	2.761183	1.808137
H	3.868160	1.218416	1.808230
H	2.974781	1.731032	-1.097114
H	1.204454	-4.420219	0.688686
H	-0.482482	-4.419395	1.302703
H	1.014863	-1.450628	-0.369395
$end

$rem
JOBTYPE		SP
EXCHANGE	HF
CORRELATION	pRIMP2
BASIS		cc-pvtz
METHOD		rimp2
AUX_BASIS	rimp2-cc-pvtz
SOLVENT_METHOD	PCM
PURECART	11111
SYMMETRY	false
MEM_TOTAL	110000
SCF_CONVERGENCE = 6
THRESH=10
GUI = 2
$end

$solvent
dielectric 4.90
$end
--------------------------------------------------------------

             Standard Nuclear Orientation (Angstroms)
    I     Atom           X                Y                Z
 ----------------------------------------------------------------
    1      C       0.2467540000    -3.8878000000     0.6811430000
    2      C      -0.2270930000    -3.7014560000    -0.6209060000
    3      C      -0.3715430000    -2.3451700000    -1.0196180000
    4      H      -0.4689920000    -4.5452330000    -1.2843570000
    5      C       0.0000000000    -1.4501350000     0.0000000000
    6      S       0.5220970000    -2.3213340000     1.4355220000
    7      C      -0.8660350000    -1.9344390000    -2.3787310000
    8      H      -1.0937990000    -2.8197990000    -3.0032720000
    9      H      -0.1146880000    -1.3262100000    -2.9244440000
   10      H      -1.7918410000    -1.3253740000    -2.3139870000
   11      C       0.0000000000     0.0000000000     0.0000000000
   12      C       0.7299090000     0.4249710000     1.1130200000
   13      C       1.9321790000     1.1245180000     0.8205780000
   14      H       0.3944780000     0.2297650000     2.1428810000
   15      C       2.1467560000     1.2491610000    -0.5635880000
   16      S       0.8387240000     0.4885000000    -1.4647480000
   17      C       2.8523640000     1.6599240000     1.8823800000
   18      H       2.4651450000     1.4347100000     2.8949740000
   19      H       2.9706210000     2.7611830000     1.8081370000
   20      H       3.8681600000     1.2184160000     1.8082300000
   21      H       2.9747810000     1.7310320000    -1.0971140000
   22      H       1.2044540000    -4.4202190000     0.6886860000
   23      H      -0.4824820000    -4.4193950000     1.3027030000
   24      H       1.0148630000    -1.4506280000    -0.3693950000
 ----------------------------------------------------------------

   11   -1180.6837293918      5.25e-07  Convergence criterion met
 Total energy in the final basis set =    -1180.6837293918
        RIMP2         total energy =     -1182.7084371425 a.u.

                    Orbital Energies (a.u.)
 --------------------------------------------------------------

 Alpha MOs
 -- Occupied --
-91.9735 -91.9413 -11.2821 -11.2646 -11.2560 -11.2549 -11.2543 -11.2528
-11.2390 -11.2302 -11.2287 -11.2176  -8.9757  -8.9459  -6.6564  -6.6556
 -6.6552  -6.6272  -6.6262  -6.6250  -1.2117  -1.1537  -1.0616  -1.0271
 -1.0065  -0.9570  -0.9145  -0.9037  -0.8068  -0.7752  -0.7257  -0.7036
 -0.6558  -0.6453  -0.6150  -0.5897  -0.5841  -0.5746  -0.5702  -0.5505
 -0.5419  -0.5365  -0.5180  -0.5104  -0.4888  -0.4603  -0.4569  -0.4349
 -0.3604  -0.3394  -0.3298  -0.2593

          Ground-State Mulliken Net Atomic Charges

     Atom                 Charge (a.u.)
  ----------------------------------------
      1 C                    -0.084326
      2 C                    -0.315943
      3 C                    -0.070811
      4 H                     0.175656
      5 C                     0.111919
      6 S                    -0.197153
      7 C                    -0.291581
      8 H                     0.113821
      9 H                     0.108895
     10 H                     0.114848
     11 C                    -0.098875
     12 C                    -0.188340
     13 C                     0.007357
     14 H                     0.188972
     15 C                    -0.202156
     16 S                    -0.002980
     17 C                    -0.267575
     18 H                     0.104490
     19 H                     0.109469
     20 H                     0.107773
     21 H                     0.201177
     22 H                     0.108623
     23 H                     0.111286
     24 H                     0.155452
  ----------------------------------------
  Sum of atomic charges =     0.000000

                    Cartesian Multipole Moments
 -----------------------------------------------------------------
    Charge (ESU x 10^10)
                -0.0000
    Dipole Moment (Debye)
         X       2.2290      Y       0.0915      Z      -0.7024
       Tot       2.3388
    Quadrupole Moments (Debye-Ang)
        XX     -82.4642     XY       5.3796     YY     -82.1242
        XZ       1.1891     YZ       4.7386     ZZ     -85.5746

 Total job time:  64.75s(wall), 2168.38s(cpu)
        *  Thank you very much for using Q-Chem.  Have a nice day.  *
