 Q-Chem 5.4, Q-Chem, Inc., Pleasanton, CA (2021)
 Q-Chem 5.4.0 for Intel X86 EM64T Linux

User input:
--------------------------------------------------------------
$molecule
0 1
C	-0.126876	-3.887800	0.713264
C	0.113784	-3.701456	-0.651267
C	0.188043	-2.345170	-1.068787
H	0.236019	-4.545233	-1.346782
C	0.000000	-1.450135	-0.000000
S	-0.265612	-2.321334	1.504247
C	0.439357	-1.934439	-2.493059
H	0.554378	-2.819799	-3.147809
H	1.362899	-1.326210	-2.589987
H	-0.394786	-1.325374	-2.899892
C	0.000000	0.000000	0.000000
C	0.419634	0.732990	1.113020
C	1.111057	1.939951	0.820578
H	0.226746	0.396221	2.142881
C	1.234565	2.155183	-0.563588
S	0.482106	0.842416	-1.464748
C	1.640257	2.863718	1.882380
H	1.417524	2.475067	2.894974
H	1.192042	3.876565	1.808137
H	2.740717	2.989259	1.808230
H	1.710720	2.986508	-1.097114
H	0.698744	-4.420219	1.198647
H	-1.069193	-4.419395	0.886933
H	1.063595	-1.450628	0.187526
$end

$rem
JOBTYPE		SP
EXCHANGE	HF
CORRELATION	pRIMP2
BASIS		cc-pvtz
METHOD		rimp2
AUX_BASIS	rimp2-cc-pvtz
SOLVENT_METHOD	PCM
PURECART	11111
SYMMETRY	false
MEM_TOTAL	110000
SCF_CONVERGENCE = 6
THRESH=10
GUI = 2
$end

$solvent
dielectric 4.90
$end
--------------------------------------------------------------

             Standard Nuclear Orientation (Angstroms)
    I     Atom           X                Y                Z
 ----------------------------------------------------------------
    1      C      -0.1268760000    -3.8878000000     0.7132640000
    2      C       0.1137840000    -3.7014560000    -0.6512670000
    3      C       0.1880430000    -2.3451700000    -1.0687870000
    4      H       0.2360190000    -4.5452330000    -1.3467820000
    5      C       0.0000000000    -1.4501350000     0.0000000000
    6      S      -0.2656120000    -2.3213340000     1.5042470000
    7      C       0.4393570000    -1.9344390000    -2.4930590000
    8      H       0.5543780000    -2.8197990000    -3.1478090000
    9      H       1.3628990000    -1.3262100000    -2.5899870000
   10      H      -0.3947860000    -1.3253740000    -2.8998920000
   11      C       0.0000000000     0.0000000000     0.0000000000
   12      C       0.4196340000     0.7329900000     1.1130200000
   13      C       1.1110570000     1.9399510000     0.8205780000
   14      H       0.2267460000     0.3962210000     2.1428810000
   15      C       1.2345650000     2.1551830000    -0.5635880000
   16      S       0.4821060000     0.8424160000    -1.4647480000
   17      C       1.6402570000     2.8637180000     1.8823800000
   18      H       1.4175240000     2.4750670000     2.8949740000
   19      H       1.1920420000     3.8765650000     1.8081370000
   20      H       2.7407170000     2.9892590000     1.8082300000
   21      H       1.7107200000     2.9865080000    -1.0971140000
   22      H       0.6987440000    -4.4202190000     1.1986470000
   23      H      -1.0691930000    -4.4193950000     0.8869330000
   24      H       1.0635950000    -1.4506280000     0.1875260000
 ----------------------------------------------------------------

   10   -1180.7393200722      5.18e-07  Convergence criterion met
 Total energy in the final basis set =    -1180.7393200722
        RIMP2         total energy =     -1182.7508300208 a.u.

                    Orbital Energies (a.u.)
 --------------------------------------------------------------

 Alpha MOs
 -- Occupied --
-91.9802 -91.9453 -11.2861 -11.2637 -11.2615 -11.2576 -11.2504 -11.2436
-11.2316 -11.2305 -11.2279 -11.2210  -8.9806  -8.9498  -6.6615  -6.6609
 -6.6603  -6.6312  -6.6302  -6.6290  -1.2032  -1.1524  -1.0598  -1.0276
 -1.0067  -0.9553  -0.9150  -0.9027  -0.8110  -0.7717  -0.7181  -0.7027
 -0.6620  -0.6470  -0.6116  -0.5882  -0.5826  -0.5723  -0.5688  -0.5534
 -0.5416  -0.5328  -0.5166  -0.5124  -0.4912  -0.4763  -0.4553  -0.4441
 -0.3577  -0.3404  -0.3268  -0.2632

          Ground-State Mulliken Net Atomic Charges

     Atom                 Charge (a.u.)
  ----------------------------------------
      1 C                    -0.073740
      2 C                    -0.318497
      3 C                    -0.045730
      4 H                     0.179175
      5 C                     0.089481
      6 S                    -0.191174
      7 C                    -0.303028
      8 H                     0.116905
      9 H                     0.113242
     10 H                     0.113178
     11 C                    -0.002158
     12 C                    -0.301245
     13 C                     0.044137
     14 H                     0.177705
     15 C                    -0.275286
     16 S                     0.013225
     17 C                    -0.269711
     18 H                     0.102981
     19 H                     0.108650
     20 H                     0.107230
     21 H                     0.197245
     22 H                     0.111098
     23 H                     0.113051
     24 H                     0.193265
  ----------------------------------------
  Sum of atomic charges =     0.000000

                    Cartesian Multipole Moments
 -----------------------------------------------------------------
    Charge (ESU x 10^10)
                -0.0000
    Dipole Moment (Debye)
         X       2.0695      Y      -0.3247      Z      -0.9401
       Tot       2.2961
    Quadrupole Moments (Debye-Ang)
        XX     -89.2725     XY       2.2475     YY     -76.3085
        XZ       0.7235     YZ       4.2428     ZZ     -85.3602

 Total job time:  55.17s(wall), 1910.20s(cpu)
        *  Thank you very much for using Q-Chem.  Have a nice day.  *
