 Q-Chem 5.4, Q-Chem, Inc., Pleasanton, CA (2021)
 Q-Chem 5.4.0 for Intel X86 EM64T Linux

User input:
--------------------------------------------------------------
$molecule
0 1
C	-0.363176	-3.887800	0.626855
C	0.329669	-3.701456	-0.573074
C	0.542250	-2.345170	-0.940016
H	0.682412	-4.545233	-1.184837
C	-0.000000	-1.450135	-0.000000
S	-0.764076	-2.321334	1.322686
C	1.265537	-1.934439	-2.192440
H	1.597559	-2.819799	-2.768365
H	2.166534	-1.326210	-1.967653
H	0.620843	-1.325374	-2.860032
C	0.000000	0.000000	0.000000
C	0.215623	0.816623	1.113020
C	0.571102	2.161411	0.820578
H	0.116470	0.441406	2.142881
C	0.634696	2.401276	-0.563588
S	0.247646	0.938489	-1.464748
C	0.843182	3.190669	1.882380
H	0.728628	2.757614	2.894974
H	0.148095	4.052998	1.808137
H	1.873652	3.596752	1.808230
H	0.879464	3.327513	-1.097114
H	0.246643	-4.420219	1.365344
H	-1.308062	-4.419395	0.467758
H	0.935314	-1.450628	0.539988
$end

$rem
JOBTYPE		SP
EXCHANGE	HF
CORRELATION	pRIMP2
BASIS		cc-pvtz
METHOD		rimp2
AUX_BASIS	rimp2-cc-pvtz
SOLVENT_METHOD	PCM
PURECART	11111
SYMMETRY	false
MEM_TOTAL	110000
SCF_CONVERGENCE = 6
THRESH=10
GUI = 2
$end

$solvent
dielectric 4.90
$end
--------------------------------------------------------------

             Standard Nuclear Orientation (Angstroms)
    I     Atom           X                Y                Z
 ----------------------------------------------------------------
    1      C      -0.3631760000    -3.8878000000     0.6268550000
    2      C       0.3296690000    -3.7014560000    -0.5730740000
    3      C       0.5422500000    -2.3451700000    -0.9400160000
    4      H       0.6824120000    -4.5452330000    -1.1848370000
    5      C       0.0000000000    -1.4501350000     0.0000000000
    6      S      -0.7640760000    -2.3213340000     1.3226860000
    7      C       1.2655370000    -1.9344390000    -2.1924400000
    8      H       1.5975590000    -2.8197990000    -2.7683650000
    9      H       2.1665340000    -1.3262100000    -1.9676530000
   10      H       0.6208430000    -1.3253740000    -2.8600320000
   11      C       0.0000000000     0.0000000000     0.0000000000
   12      C       0.2156230000     0.8166230000     1.1130200000
   13      C       0.5711020000     2.1614110000     0.8205780000
   14      H       0.1164700000     0.4414060000     2.1428810000
   15      C       0.6346960000     2.4012760000    -0.5635880000
   16      S       0.2476460000     0.9384890000    -1.4647480000
   17      C       0.8431820000     3.1906690000     1.8823800000
   18      H       0.7286280000     2.7576140000     2.8949740000
   19      H       0.1480950000     4.0529980000     1.8081370000
   20      H       1.8736520000     3.5967520000     1.8082300000
   21      H       0.8794640000     3.3275130000    -1.0971140000
   22      H       0.2466430000    -4.4202190000     1.3653440000
   23      H      -1.3080620000    -4.4193950000     0.4677580000
   24      H       0.9353140000    -1.4506280000     0.5399880000
 ----------------------------------------------------------------

   10   -1180.7541551654      4.88e-07  Convergence criterion met
 Total energy in the final basis set =    -1180.7541551654
        RIMP2         total energy =     -1182.7613696062 a.u.

                    Orbital Energies (a.u.)
 --------------------------------------------------------------

 Alpha MOs
 -- Occupied --
-91.9824 -91.9450 -11.2884 -11.2647 -11.2601 -11.2557 -11.2503 -11.2436
-11.2316 -11.2314 -11.2281 -11.2216  -8.9823  -8.9496  -6.6632  -6.6626
 -6.6620  -6.6310  -6.6300  -6.6287  -1.2010  -1.1524  -1.0591  -1.0267
 -1.0074  -0.9561  -0.9145  -0.9019  -0.8131  -0.7698  -0.7215  -0.7014
 -0.6625  -0.6453  -0.6109  -0.5868  -0.5812  -0.5735  -0.5683  -0.5535
 -0.5420  -0.5321  -0.5148  -0.5089  -0.4925  -0.4807  -0.4566  -0.4481
 -0.3574  -0.3420  -0.3235  -0.2659

          Ground-State Mulliken Net Atomic Charges

     Atom                 Charge (a.u.)
  ----------------------------------------
      1 C                    -0.073829
      2 C                    -0.321639
      3 C                    -0.031587
      4 H                     0.179076
      5 C                     0.071726
      6 S                    -0.177939
      7 C                    -0.296614
      8 H                     0.116183
      9 H                     0.114700
     10 H                     0.109542
     11 C                    -0.015026
     12 C                    -0.286761
     13 C                     0.032837
     14 H                     0.180138
     15 C                    -0.267169
     16 S                     0.008720
     17 C                    -0.271001
     18 H                     0.102716
     19 H                     0.108531
     20 H                     0.107536
     21 H                     0.196604
     22 H                     0.110648
     23 H                     0.113780
     24 H                     0.188827
  ----------------------------------------
  Sum of atomic charges =     0.000000

                    Cartesian Multipole Moments
 -----------------------------------------------------------------
    Charge (ESU x 10^10)
                -0.0000
    Dipole Moment (Debye)
         X       2.3645      Y      -0.2183      Z      -0.3451
       Tot       2.3995
    Quadrupole Moments (Debye-Ang)
        XX     -91.2594     XY      -0.6334     YY     -74.4831
        XZ       0.3010     YZ       3.5703     ZZ     -85.4147

 Total job time:  57.17s(wall), 1972.17s(cpu)
        *  Thank you very much for using Q-Chem.  Have a nice day.  *
