 Q-Chem 5.4, Q-Chem, Inc., Pleasanton, CA (2021)
 Q-Chem 5.4.0 for Intel X86 EM64T Linux

User input:
--------------------------------------------------------------
$molecule
0 1
C	0.681143	-3.887800	-0.246754
C	-0.620906	-3.701456	0.227093
C	-1.019618	-2.345170	0.371543
H	-1.284357	-4.545233	0.468992
C	-0.000000	-1.450135	-0.000000
S	1.435522	-2.321334	-0.522097
C	-2.378731	-1.934439	0.866035
H	-3.003272	-2.819799	1.093799
H	-2.924444	-1.326210	0.114688
H	-2.313987	-1.325374	1.791841
C	0.000000	0.000000	0.000000
C	0.215623	0.816623	1.113020
C	0.571102	2.161411	0.820578
H	0.116470	0.441406	2.142881
C	0.634696	2.401276	-0.563588
S	0.247646	0.938489	-1.464748
C	0.843182	3.190669	1.882380
H	0.728628	2.757614	2.894974
H	0.148095	4.052998	1.808137
H	1.873652	3.596752	1.808230
H	0.879464	3.327513	-1.097114
H	0.688686	-4.420219	-1.204454
H	1.302703	-4.419395	0.482482
H	-0.369395	-1.450628	-1.014863
$end

$rem
JOBTYPE		SP
EXCHANGE	HF
CORRELATION	pRIMP2
BASIS		cc-pvtz
METHOD		rimp2
AUX_BASIS	rimp2-cc-pvtz
SOLVENT_METHOD	PCM
PURECART	11111
SYMMETRY	false
MEM_TOTAL	110000
SCF_CONVERGENCE = 6
THRESH=10
GUI = 2
$end

$solvent
dielectric 4.90
$end
--------------------------------------------------------------

             Standard Nuclear Orientation (Angstroms)
    I     Atom           X                Y                Z
 ----------------------------------------------------------------
    1      C       0.6811430000    -3.8878000000    -0.2467540000
    2      C      -0.6209060000    -3.7014560000     0.2270930000
    3      C      -1.0196180000    -2.3451700000     0.3715430000
    4      H      -1.2843570000    -4.5452330000     0.4689920000
    5      C       0.0000000000    -1.4501350000     0.0000000000
    6      S       1.4355220000    -2.3213340000    -0.5220970000
    7      C      -2.3787310000    -1.9344390000     0.8660350000
    8      H      -3.0032720000    -2.8197990000     1.0937990000
    9      H      -2.9244440000    -1.3262100000     0.1146880000
   10      H      -2.3139870000    -1.3253740000     1.7918410000
   11      C       0.0000000000     0.0000000000     0.0000000000
   12      C       0.2156230000     0.8166230000     1.1130200000
   13      C       0.5711020000     2.1614110000     0.8205780000
   14      H       0.1164700000     0.4414060000     2.1428810000
   15      C       0.6346960000     2.4012760000    -0.5635880000
   16      S       0.2476460000     0.9384890000    -1.4647480000
   17      C       0.8431820000     3.1906690000     1.8823800000
   18      H       0.7286280000     2.7576140000     2.8949740000
   19      H       0.1480950000     4.0529980000     1.8081370000
   20      H       1.8736520000     3.5967520000     1.8082300000
   21      H       0.8794640000     3.3275130000    -1.0971140000
   22      H       0.6886860000    -4.4202190000    -1.2044540000
   23      H       1.3027030000    -4.4193950000     0.4824820000
   24      H      -0.3693950000    -1.4506280000    -1.0148630000
 ----------------------------------------------------------------

   10   -1180.7571927849      5.16e-07  Convergence criterion met
 Total energy in the final basis set =    -1180.7571927849
        RIMP2         total energy =     -1182.7618464512 a.u.

                    Orbital Energies (a.u.)
 --------------------------------------------------------------

 Alpha MOs
 -- Occupied --
-91.9862 -91.9416 -11.2780 -11.2664 -11.2623 -11.2553 -11.2509 -11.2411
-11.2384 -11.2315 -11.2288 -11.2185  -8.9858  -8.9462  -6.6667  -6.6662
 -6.6656  -6.6276  -6.6266  -6.6253  -1.1972  -1.1537  -1.0571  -1.0268
 -1.0016  -0.9630  -0.9124  -0.9006  -0.8131  -0.7592  -0.7426  -0.7028
 -0.6533  -0.6339  -0.6112  -0.5877  -0.5785  -0.5707  -0.5675  -0.5536
 -0.5425  -0.5298  -0.5113  -0.5056  -0.4921  -0.4814  -0.4633  -0.4495
 -0.3567  -0.3401  -0.3151  -0.2786

          Ground-State Mulliken Net Atomic Charges

     Atom                 Charge (a.u.)
  ----------------------------------------
      1 C                    -0.073958
      2 C                    -0.328664
      3 C                    -0.027288
      4 H                     0.176919
      5 C                     0.095618
      6 S                    -0.174670
      7 C                    -0.268292
      8 H                     0.112984
      9 H                     0.103688
     10 H                     0.103484
     11 C                    -0.113193
     12 C                    -0.214655
     13 C                     0.017106
     14 H                     0.186516
     15 C                    -0.237566
     16 S                     0.013225
     17 C                    -0.272257
     18 H                     0.102557
     19 H                     0.107438
     20 H                     0.108449
     21 H                     0.198802
     22 H                     0.109726
     23 H                     0.112888
     24 H                     0.161143
  ----------------------------------------
  Sum of atomic charges =     0.000000

                    Cartesian Multipole Moments
 -----------------------------------------------------------------
    Charge (ESU x 10^10)
                -0.0000
    Dipole Moment (Debye)
         X      -2.0283      Y       0.7129      Z       1.5947
       Tot       2.6768
    Quadrupole Moments (Debye-Ang)
        XX     -91.2239     XY       6.6898     YY     -74.3818
        XZ      -0.0010     YZ       1.0420     ZZ     -85.7033

 Total job time:  63.17s(wall), 2082.94s(cpu)
        *  Thank you very much for using Q-Chem.  Have a nice day.  *
