 Q-Chem 5.4, Q-Chem, Inc., Pleasanton, CA (2021)
 Q-Chem 5.4.0 for Intel X86 EM64T Linux

User input:
--------------------------------------------------------------
$molecule
0 1
C	0.361285	-3.887800	0.627947
C	-0.331462	-3.701456	-0.572038
C	-0.542953	-2.345170	-0.939610
H	-0.684893	-4.545233	-1.183405
C	-0.000000	-1.450135	-0.000000
S	0.763441	-2.321334	1.323052
C	-1.265941	-1.934439	-2.192207
H	-1.598695	-2.819799	-2.767709
H	-0.620770	-1.326210	-2.860100
H	-2.166438	-1.325374	-1.967682
C	0.000000	0.000000	0.000000
C	0.070542	0.841660	1.113020
C	0.187101	2.227746	0.820578
H	0.038051	0.454925	2.142881
C	0.208076	2.475009	-0.563588
S	0.080917	0.967235	-1.464748
C	0.276318	3.288613	1.882380
H	0.238704	2.842244	2.894974
H	-0.557951	4.017140	1.808137
H	1.220618	3.867466	1.808230
H	0.288286	3.429678	-1.097114
H	1.305744	-4.420219	0.469073
H	-0.248940	-4.419395	1.366694
H	0.935300	-1.450628	-0.540012
$end

$rem
JOBTYPE		SP
EXCHANGE	HF
CORRELATION	pRIMP2
BASIS		cc-pvtz
METHOD		rimp2
AUX_BASIS	rimp2-cc-pvtz
SOLVENT_METHOD	PCM
PURECART	11111
SYMMETRY	false
MEM_TOTAL	110000
SCF_CONVERGENCE = 6
THRESH=10
GUI = 2
$end

$solvent
dielectric 4.90
$end
--------------------------------------------------------------

             Standard Nuclear Orientation (Angstroms)
    I     Atom           X                Y                Z
 ----------------------------------------------------------------
    1      C       0.3612850000    -3.8878000000     0.6279470000
    2      C      -0.3314620000    -3.7014560000    -0.5720380000
    3      C      -0.5429530000    -2.3451700000    -0.9396100000
    4      H      -0.6848930000    -4.5452330000    -1.1834050000
    5      C       0.0000000000    -1.4501350000     0.0000000000
    6      S       0.7634410000    -2.3213340000     1.3230520000
    7      C      -1.2659410000    -1.9344390000    -2.1922070000
    8      H      -1.5986950000    -2.8197990000    -2.7677090000
    9      H      -0.6207700000    -1.3262100000    -2.8601000000
   10      H      -2.1664380000    -1.3253740000    -1.9676820000
   11      C       0.0000000000     0.0000000000     0.0000000000
   12      C       0.0705420000     0.8416600000     1.1130200000
   13      C       0.1871010000     2.2277460000     0.8205780000
   14      H       0.0380510000     0.4549250000     2.1428810000
   15      C       0.2080760000     2.4750090000    -0.5635880000
   16      S       0.0809170000     0.9672350000    -1.4647480000
   17      C       0.2763180000     3.2886130000     1.8823800000
   18      H       0.2387040000     2.8422440000     2.8949740000
   19      H      -0.5579510000     4.0171400000     1.8081370000
   20      H       1.2206180000     3.8674660000     1.8082300000
   21      H       0.2882860000     3.4296780000    -1.0971140000
   22      H       1.3057440000    -4.4202190000     0.4690730000
   23      H      -0.2489400000    -4.4193950000     1.3666940000
   24      H       0.9353000000    -1.4506280000    -0.5400120000
 ----------------------------------------------------------------

   10   -1180.7616545349      4.93e-07  Convergence criterion met
 Total energy in the final basis set =    -1180.7616545349
        RIMP2         total energy =     -1182.7658113751 a.u.

                    Orbital Energies (a.u.)
 --------------------------------------------------------------

 Alpha MOs
 -- Occupied --
-91.9827 -91.9464 -11.2883 -11.2645 -11.2612 -11.2572 -11.2501 -11.2439
-11.2327 -11.2321 -11.2278 -11.2226  -8.9827  -8.9508  -6.6637  -6.6631
 -6.6624  -6.6322  -6.6312  -6.6299  -1.2009  -1.1529  -1.0596  -1.0272
 -1.0060  -0.9582  -0.9158  -0.9014  -0.8140  -0.7705  -0.7227  -0.7044
 -0.6566  -0.6444  -0.6112  -0.5928  -0.5790  -0.5727  -0.5689  -0.5532
 -0.5420  -0.5332  -0.5144  -0.5076  -0.4888  -0.4869  -0.4598  -0.4471
 -0.3582  -0.3425  -0.3248  -0.2688

          Ground-State Mulliken Net Atomic Charges

     Atom                 Charge (a.u.)
  ----------------------------------------
      1 C                    -0.074539
      2 C                    -0.317452
      3 C                    -0.061761
      4 H                     0.179035
      5 C                     0.151613
      6 S                    -0.179090
      7 C                    -0.293369
      8 H                     0.117535
      9 H                     0.104966
     10 H                     0.117984
     11 C                    -0.058367
     12 C                    -0.294212
     13 C                     0.039398
     14 H                     0.182119
     15 C                    -0.266797
     16 S                     0.004576
     17 C                    -0.272830
     18 H                     0.103037
     19 H                     0.108070
     20 H                     0.108687
     21 H                     0.196933
     22 H                     0.112878
     23 H                     0.111985
     24 H                     0.179601
  ----------------------------------------
  Sum of atomic charges =     0.000000

                    Cartesian Multipole Moments
 -----------------------------------------------------------------
    Charge (ESU x 10^10)
                -0.0000
    Dipole Moment (Debye)
         X      -0.3843      Y      -0.1790      Z      -1.0859
       Tot       1.1658
    Quadrupole Moments (Debye-Ang)
        XX     -91.3898     XY       1.3601     YY     -73.0726
        XZ       0.5121     YZ       5.1481     ZZ     -86.0069

 Total job time:  56.74s(wall), 1865.46s(cpu)
        *  Thank you very much for using Q-Chem.  Have a nice day.  *
