 Q-Chem 5.4, Q-Chem, Inc., Pleasanton, CA (2021)
 Q-Chem 5.4.0 for Intel X86 EM64T Linux

User input:
--------------------------------------------------------------
$molecule
0 1
C	0.554267	-3.887800	0.466510
C	-0.507121	-3.701456	-0.424173
C	-0.831575	-2.345170	-0.697244
H	-1.048337	-4.545233	-0.877789
C	0.000000	-1.450135	0.000000
S	1.169911	-2.321334	0.982150
C	-1.939374	-1.934439	-1.627024
H	-2.448894	-2.819799	-2.054010
H	-1.561545	-1.326210	-2.475299
H	-2.708773	-1.325374	-1.108051
C	0.000000	0.000000	0.000000
C	0.285976	0.794723	1.113020
C	0.757308	2.103412	0.820578
H	0.154498	0.429575	2.142881
C	0.841565	2.336821	-0.563588
S	0.328498	0.913334	-1.464748
C	1.118059	3.105040	1.882380
H	0.966197	2.683616	2.894974
H	0.500773	4.024668	1.808137
H	2.180000	3.419766	1.808230
H	1.166129	3.238200	-1.097114
H	1.387431	-4.420219	-0.005807
H	0.233510	-4.419395	1.369415
H	0.694200	-1.450628	-0.827337
$end

$rem
JOBTYPE		SP
EXCHANGE	HF
CORRELATION	pRIMP2
BASIS		cc-pvtz
METHOD		rimp2
AUX_BASIS	rimp2-cc-pvtz
SOLVENT_METHOD	PCM
PURECART	11111
SYMMETRY	false
MEM_TOTAL	110000
SCF_CONVERGENCE = 6
THRESH=10
GUI = 2
$end

$solvent
dielectric 4.90
$end
--------------------------------------------------------------

             Standard Nuclear Orientation (Angstroms)
    I     Atom           X                Y                Z
 ----------------------------------------------------------------
    1      C       0.5542670000    -3.8878000000     0.4665100000
    2      C      -0.5071210000    -3.7014560000    -0.4241730000
    3      C      -0.8315750000    -2.3451700000    -0.6972440000
    4      H      -1.0483370000    -4.5452330000    -0.8777890000
    5      C       0.0000000000    -1.4501350000     0.0000000000
    6      S       1.1699110000    -2.3213340000     0.9821500000
    7      C      -1.9393740000    -1.9344390000    -1.6270240000
    8      H      -2.4488940000    -2.8197990000    -2.0540100000
    9      H      -1.5615450000    -1.3262100000    -2.4752990000
   10      H      -2.7087730000    -1.3253740000    -1.1080510000
   11      C       0.0000000000     0.0000000000     0.0000000000
   12      C       0.2859760000     0.7947230000     1.1130200000
   13      C       0.7573080000     2.1034120000     0.8205780000
   14      H       0.1544980000     0.4295750000     2.1428810000
   15      C       0.8415650000     2.3368210000    -0.5635880000
   16      S       0.3284980000     0.9133340000    -1.4647480000
   17      C       1.1180590000     3.1050400000     1.8823800000
   18      H       0.9661970000     2.6836160000     2.8949740000
   19      H       0.5007730000     4.0246680000     1.8081370000
   20      H       2.1800000000     3.4197660000     1.8082300000
   21      H       1.1661290000     3.2382000000    -1.0971140000
   22      H       1.3874310000    -4.4202190000    -0.0058070000
   23      H       0.2335100000    -4.4193950000     1.3694150000
   24      H       0.6942000000    -1.4506280000    -0.8273370000
 ----------------------------------------------------------------

   10   -1180.7552728720      5.03e-07  Convergence criterion met
 Total energy in the final basis set =    -1180.7552728720
        RIMP2         total energy =     -1182.7603003893 a.u.

                    Orbital Energies (a.u.)
 --------------------------------------------------------------

 Alpha MOs
 -- Occupied --
-91.9831 -91.9440 -11.2823 -11.2633 -11.2615 -11.2571 -11.2508 -11.2416
-11.2373 -11.2321 -11.2285 -11.2197  -8.9832  -8.9484  -6.6642  -6.6636
 -6.6629  -6.6297  -6.6287  -6.6274  -1.1995  -1.1535  -1.0586  -1.0261
 -1.0045  -0.9599  -0.9146  -0.9007  -0.8123  -0.7681  -0.7296  -0.7034
 -0.6547  -0.6387  -0.6113  -0.5906  -0.5766  -0.5744  -0.5689  -0.5528
 -0.5418  -0.5326  -0.5129  -0.5067  -0.4877  -0.4840  -0.4618  -0.4475
 -0.3560  -0.3431  -0.3214  -0.2720

          Ground-State Mulliken Net Atomic Charges

     Atom                 Charge (a.u.)
  ----------------------------------------
      1 C                    -0.075135
      2 C                    -0.321522
      3 C                    -0.050268
      4 H                     0.176787
      5 C                     0.108003
      6 S                    -0.177132
      7 C                    -0.274441
      8 H                     0.114956
      9 H                     0.101003
     10 H                     0.110571
     11 C                    -0.048355
     12 C                    -0.300553
     13 C                     0.050902
     14 H                     0.186122
     15 C                    -0.251850
     16 S                     0.008020
     17 C                    -0.271383
     18 H                     0.103163
     19 H                     0.108103
     20 H                     0.108694
     21 H                     0.197554
     22 H                     0.110947
     23 H                     0.109964
     24 H                     0.175848
  ----------------------------------------
  Sum of atomic charges =     0.000000

                    Cartesian Multipole Moments
 -----------------------------------------------------------------
    Charge (ESU x 10^10)
                 0.0000
    Dipole Moment (Debye)
         X      -0.7321      Y       0.3237      Z      -0.5950
       Tot       0.9974
    Quadrupole Moments (Debye-Ang)
        XX     -90.1254     XY       5.2623     YY     -74.7707
        XZ       0.5069     YZ       4.6018     ZZ     -86.1577

 Total job time:  53.41s(wall), 1875.23s(cpu)
        *  Thank you very much for using Q-Chem.  Have a nice day.  *
