 Q-Chem 5.4, Q-Chem, Inc., Pleasanton, CA (2021)
 Q-Chem 5.4.0 for Intel X86 EM64T Linux

User input:
--------------------------------------------------------------
$molecule
0 1
C	0.674034	-3.828925	0.724460
C	0.641731	-3.645403	-0.661131
C	0.406834	-2.309612	-1.085203
H	0.787861	-4.476429	-1.367305
C	0.251813	-1.428104	0.000000
S	0.402734	-2.286131	1.527517
C	0.335682	-1.905091	-2.531478
H	0.489007	-2.777074	-3.196254
H	1.109183	-1.151090	-2.787305
H	-0.648644	-1.460194	-2.787282
C	0.000000	0.000000	0.000000
C	0.143630	0.832309	1.113020
C	0.380550	2.202961	0.820578
H	0.077556	0.449877	2.142881
C	0.422995	2.447456	-0.563588
S	0.164909	0.956502	-1.464748
C	0.561888	3.252016	1.882380
H	0.485513	2.810624	2.894974
H	-0.205711	4.050482	1.808137
H	1.553045	3.746365	1.808230
H	0.586105	3.391501	-1.097114
H	1.650218	-4.197430	1.059101
H	-0.117859	-4.508353	1.059122
H	1.315491	-1.241050	-0.000014
$end

$rem
JOBTYPE		SP
EXCHANGE	HF
CORRELATION	pRIMP2
BASIS		cc-pvtz
METHOD		rimp2
AUX_BASIS	rimp2-cc-pvtz
SOLVENT_METHOD	PCM
PURECART	11111
SYMMETRY	false
MEM_TOTAL	110000
SCF_CONVERGENCE = 6
THRESH=10
GUI = 2
$end

$solvent
dielectric 4.90
$end
--------------------------------------------------------------

             Standard Nuclear Orientation (Angstroms)
    I     Atom           X                Y                Z
 ----------------------------------------------------------------
    1      C       0.6740340000    -3.8289250000     0.7244600000
    2      C       0.6417310000    -3.6454030000    -0.6611310000
    3      C       0.4068340000    -2.3096120000    -1.0852030000
    4      H       0.7878610000    -4.4764290000    -1.3673050000
    5      C       0.2518130000    -1.4281040000     0.0000000000
    6      S       0.4027340000    -2.2861310000     1.5275170000
    7      C       0.3356820000    -1.9050910000    -2.5314780000
    8      H       0.4890070000    -2.7770740000    -3.1962540000
    9      H       1.1091830000    -1.1510900000    -2.7873050000
   10      H      -0.6486440000    -1.4601940000    -2.7872820000
   11      C       0.0000000000     0.0000000000     0.0000000000
   12      C       0.1436300000     0.8323090000     1.1130200000
   13      C       0.3805500000     2.2029610000     0.8205780000
   14      H       0.0775560000     0.4498770000     2.1428810000
   15      C       0.4229950000     2.4474560000    -0.5635880000
   16      S       0.1649090000     0.9565020000    -1.4647480000
   17      C       0.5618880000     3.2520160000     1.8823800000
   18      H       0.4855130000     2.8106240000     2.8949740000
   19      H      -0.2057110000     4.0504820000     1.8081370000
   20      H       1.5530450000     3.7463650000     1.8082300000
   21      H       0.5861050000     3.3915010000    -1.0971140000
   22      H       1.6502180000    -4.1974300000     1.0591010000
   23      H      -0.1178590000    -4.5083530000     1.0591220000
   24      H       1.3154910000    -1.2410500000    -0.0000140000
 ----------------------------------------------------------------

   10   -1180.7535496818      4.86e-07  Convergence criterion met
 Total energy in the final basis set =    -1180.7535496818
        RIMP2         total energy =     -1182.7607084194 a.u.

                    Orbital Energies (a.u.)
 --------------------------------------------------------------

 Alpha MOs
 -- Occupied --
-91.9809 -91.9470 -11.2897 -11.2647 -11.2632 -11.2547 -11.2502 -11.2445
-11.2321 -11.2301 -11.2277 -11.2227  -8.9811  -8.9515  -6.6621  -6.6615
 -6.6608  -6.6328  -6.6318  -6.6306  -1.2028  -1.1525  -1.0602  -1.0282
 -1.0067  -0.9559  -0.9162  -0.9021  -0.8132  -0.7719  -0.7170  -0.7039
 -0.6608  -0.6484  -0.6117  -0.5907  -0.5821  -0.5718  -0.5687  -0.5536
 -0.5420  -0.5336  -0.5162  -0.5103  -0.4906  -0.4824  -0.4573  -0.4451
 -0.3591  -0.3415  -0.3273  -0.2648

          Ground-State Mulliken Net Atomic Charges

     Atom                 Charge (a.u.)
  ----------------------------------------
      1 C                    -0.074030
      2 C                    -0.314623
      3 C                    -0.053977
      4 H                     0.179439
      5 C                     0.115259
      6 S                    -0.188348
      7 C                    -0.311113
      8 H                     0.120854
      9 H                     0.110656
     10 H                     0.117013
     11 C                     0.013393
     12 C                    -0.333999
     13 C                     0.055275
     14 H                     0.175738
     15 C                    -0.285656
     16 S                     0.009642
     17 C                    -0.270272
     18 H                     0.102824
     19 H                     0.108499
     20 H                     0.108339
     21 H                     0.196709
     22 H                     0.111818
     23 H                     0.113028
     24 H                     0.193532
  ----------------------------------------
  Sum of atomic charges =     0.000000

                    Cartesian Multipole Moments
 -----------------------------------------------------------------
    Charge (ESU x 10^10)
                -0.0000
    Dipole Moment (Debye)
         X       1.4114      Y      -0.2438      Z      -1.0752
       Tot       1.7910
    Quadrupole Moments (Debye-Ang)
        XX     -90.6855     XY      -1.2254     YY     -74.2700
        XZ      -0.1386     YZ       4.8359     ZZ     -85.4974

 Total job time:  56.99s(wall), 1943.61s(cpu)
        *  Thank you very much for using Q-Chem.  Have a nice day.  *
