 Q-Chem 5.4, Q-Chem, Inc., Pleasanton, CA (2021)
 Q-Chem 5.4.0 for Intel X86 EM64T Linux

User input:
--------------------------------------------------------------
$molecule
0 1
C	0.363176	-3.887800	-0.626855
C	-0.329669	-3.701456	0.573074
C	-0.542250	-2.345170	0.940016
H	-0.682412	-4.545233	1.184837
C	0.000000	-1.450135	0.000000
S	0.764076	-2.321334	-1.322686
C	-1.265537	-1.934439	2.192440
H	-1.597559	-2.819799	2.768365
H	-2.166534	-1.326210	1.967653
H	-0.620843	-1.325374	2.860032
C	0.000000	0.000000	0.000000
C	0.729909	0.424971	1.113020
C	1.932179	1.124518	0.820578
H	0.394478	0.229765	2.142881
C	2.146756	1.249161	-0.563588
S	0.838724	0.488500	-1.464748
C	2.852364	1.659924	1.882380
H	2.465145	1.434710	2.894974
H	2.970621	2.761183	1.808137
H	3.868160	1.218416	1.808230
H	2.974781	1.731032	-1.097114
H	-0.246643	-4.420219	-1.365344
H	1.308062	-4.419395	-0.467758
H	-0.935314	-1.450628	-0.539988
$end

$rem
JOBTYPE		SP
EXCHANGE	HF
CORRELATION	pRIMP2
BASIS		cc-pvtz
METHOD		rimp2
AUX_BASIS	rimp2-cc-pvtz
SOLVENT_METHOD	PCM
PURECART	11111
SYMMETRY	false
MEM_TOTAL	110000
SCF_CONVERGENCE = 6
THRESH=10
GUI = 2
$end

$solvent
dielectric 4.90
$end
--------------------------------------------------------------

             Standard Nuclear Orientation (Angstroms)
    I     Atom           X                Y                Z
 ----------------------------------------------------------------
    1      C       0.3631760000    -3.8878000000    -0.6268550000
    2      C      -0.3296690000    -3.7014560000     0.5730740000
    3      C      -0.5422500000    -2.3451700000     0.9400160000
    4      H      -0.6824120000    -4.5452330000     1.1848370000
    5      C       0.0000000000    -1.4501350000     0.0000000000
    6      S       0.7640760000    -2.3213340000    -1.3226860000
    7      C      -1.2655370000    -1.9344390000     2.1924400000
    8      H      -1.5975590000    -2.8197990000     2.7683650000
    9      H      -2.1665340000    -1.3262100000     1.9676530000
   10      H      -0.6208430000    -1.3253740000     2.8600320000
   11      C       0.0000000000     0.0000000000     0.0000000000
   12      C       0.7299090000     0.4249710000     1.1130200000
   13      C       1.9321790000     1.1245180000     0.8205780000
   14      H       0.3944780000     0.2297650000     2.1428810000
   15      C       2.1467560000     1.2491610000    -0.5635880000
   16      S       0.8387240000     0.4885000000    -1.4647480000
   17      C       2.8523640000     1.6599240000     1.8823800000
   18      H       2.4651450000     1.4347100000     2.8949740000
   19      H       2.9706210000     2.7611830000     1.8081370000
   20      H       3.8681600000     1.2184160000     1.8082300000
   21      H       2.9747810000     1.7310320000    -1.0971140000
   22      H      -0.2466430000    -4.4202190000    -1.3653440000
   23      H       1.3080620000    -4.4193950000    -0.4677580000
   24      H      -0.9353140000    -1.4506280000    -0.5399880000
 ----------------------------------------------------------------

   11   -1180.6695721249      5.35e-07  Convergence criterion met
 Total energy in the final basis set =    -1180.6695721249
        RIMP2         total energy =     -1182.6944452269 a.u.

                    Orbital Energies (a.u.)
 --------------------------------------------------------------

 Alpha MOs
 -- Occupied --
-91.9812 -91.9362 -11.2872 -11.2581 -11.2576 -11.2530 -11.2482 -11.2454
-11.2324 -11.2309 -11.2306 -11.2106  -8.9821  -8.9408  -6.6629  -6.6620
 -6.6618  -6.6220  -6.6209  -6.6196  -1.2030  -1.1531  -1.0563  -1.0300
 -0.9972  -0.9669  -0.9087  -0.9023  -0.8122  -0.7563  -0.7414  -0.7069
 -0.6486  -0.6331  -0.6139  -0.5943  -0.5837  -0.5682  -0.5665  -0.5505
 -0.5422  -0.5340  -0.5151  -0.5055  -0.4833  -0.4790  -0.4478  -0.4334
 -0.3529  -0.3381  -0.3250  -0.2530

          Ground-State Mulliken Net Atomic Charges

     Atom                 Charge (a.u.)
  ----------------------------------------
      1 C                    -0.085670
      2 C                    -0.339406
      3 C                    -0.055768
      4 H                     0.172187
      5 C                     0.070928
      6 S                    -0.184577
      7 C                    -0.286355
      8 H                     0.116163
      9 H                     0.108966
     10 H                     0.097187
     11 C                    -0.168711
     12 C                    -0.105032
     13 C                    -0.031024
     14 H                     0.203378
     15 C                    -0.168096
     16 S                     0.019700
     17 C                    -0.269385
     18 H                     0.101393
     19 H                     0.107965
     20 H                     0.106460
     21 H                     0.203126
     22 H                     0.103794
     23 H                     0.105875
     24 H                     0.176900
  ----------------------------------------
  Sum of atomic charges =     0.000000

                    Cartesian Multipole Moments
 -----------------------------------------------------------------
    Charge (ESU x 10^10)
                -0.0000
    Dipole Moment (Debye)
         X       0.9573      Y       1.0793      Z       3.1920
       Tot       3.5029
    Quadrupole Moments (Debye-Ang)
        XX     -82.4564     XY       8.6126     YY     -84.9137
        XZ       0.4927     YZ      -1.9045     ZZ     -84.7209

 Total job time:  61.29s(wall), 2117.20s(cpu)
        *  Thank you very much for using Q-Chem.  Have a nice day.  *
