 Q-Chem 5.4, Q-Chem, Inc., Pleasanton, CA (2021)
 Q-Chem 5.4.0 for Intel X86 EM64T Linux

User input:
--------------------------------------------------------------
$molecule
0 1
C	0.554267	-3.887800	0.466510
C	-0.507121	-3.701456	-0.424173
C	-0.831575	-2.345170	-0.697244
H	-1.048337	-4.545233	-0.877789
C	-0.000000	-1.450135	-0.000000
S	1.169911	-2.321334	0.982150
C	-1.939374	-1.934439	-1.627024
H	-2.448894	-2.819799	-2.054010
H	-1.561545	-1.326210	-2.475299
H	-2.708773	-1.325374	-1.108051
C	0.000000	0.000000	0.000000
C	0.215623	0.816623	1.113020
C	0.571102	2.161411	0.820578
H	0.116470	0.441406	2.142881
C	0.634696	2.401276	-0.563588
S	0.247646	0.938489	-1.464748
C	0.843182	3.190669	1.882380
H	0.728628	2.757614	2.894974
H	0.148095	4.052998	1.808137
H	1.873652	3.596752	1.808230
H	0.879464	3.327513	-1.097114
H	1.387431	-4.420219	-0.005807
H	0.233510	-4.419395	1.369415
H	0.694200	-1.450628	-0.827337
$end

$rem
JOBTYPE		SP
EXCHANGE	HF
CORRELATION	pRIMP2
BASIS		cc-pvtz
METHOD		rimp2
AUX_BASIS	rimp2-cc-pvtz
SOLVENT_METHOD	PCM
PURECART	11111
SYMMETRY	false
MEM_TOTAL	110000
SCF_CONVERGENCE = 6
THRESH=10
GUI = 2
$end

$solvent
dielectric 4.90
$end
--------------------------------------------------------------

             Standard Nuclear Orientation (Angstroms)
    I     Atom           X                Y                Z
 ----------------------------------------------------------------
    1      C       0.5542670000    -3.8878000000     0.4665100000
    2      C      -0.5071210000    -3.7014560000    -0.4241730000
    3      C      -0.8315750000    -2.3451700000    -0.6972440000
    4      H      -1.0483370000    -4.5452330000    -0.8777890000
    5      C       0.0000000000    -1.4501350000     0.0000000000
    6      S       1.1699110000    -2.3213340000     0.9821500000
    7      C      -1.9393740000    -1.9344390000    -1.6270240000
    8      H      -2.4488940000    -2.8197990000    -2.0540100000
    9      H      -1.5615450000    -1.3262100000    -2.4752990000
   10      H      -2.7087730000    -1.3253740000    -1.1080510000
   11      C       0.0000000000     0.0000000000     0.0000000000
   12      C       0.2156230000     0.8166230000     1.1130200000
   13      C       0.5711020000     2.1614110000     0.8205780000
   14      H       0.1164700000     0.4414060000     2.1428810000
   15      C       0.6346960000     2.4012760000    -0.5635880000
   16      S       0.2476460000     0.9384890000    -1.4647480000
   17      C       0.8431820000     3.1906690000     1.8823800000
   18      H       0.7286280000     2.7576140000     2.8949740000
   19      H       0.1480950000     4.0529980000     1.8081370000
   20      H       1.8736520000     3.5967520000     1.8082300000
   21      H       0.8794640000     3.3275130000    -1.0971140000
   22      H       1.3874310000    -4.4202190000    -0.0058070000
   23      H       0.2335100000    -4.4193950000     1.3694150000
   24      H       0.6942000000    -1.4506280000    -0.8273370000
 ----------------------------------------------------------------

   10   -1180.7585280721      4.98e-07  Convergence criterion met
 Total energy in the final basis set =    -1180.7585280721
        RIMP2         total energy =     -1182.7628103155 a.u.

                    Orbital Energies (a.u.)
 --------------------------------------------------------------

 Alpha MOs
 -- Occupied --
-91.9837 -91.9443 -11.2833 -11.2623 -11.2622 -11.2577 -11.2507 -11.2420
-11.2362 -11.2321 -11.2284 -11.2202  -8.9837  -8.9487  -6.6646  -6.6641
 -6.6634  -6.6301  -6.6290  -6.6278  -1.1993  -1.1534  -1.0586  -1.0261
 -1.0047  -0.9599  -0.9146  -0.9007  -0.8127  -0.7681  -0.7294  -0.7036
 -0.6549  -0.6389  -0.6112  -0.5908  -0.5766  -0.5741  -0.5690  -0.5529
 -0.5418  -0.5323  -0.5130  -0.5064  -0.4882  -0.4853  -0.4617  -0.4479
 -0.3563  -0.3429  -0.3211  -0.2727

          Ground-State Mulliken Net Atomic Charges

     Atom                 Charge (a.u.)
  ----------------------------------------
      1 C                    -0.075346
      2 C                    -0.321213
      3 C                    -0.053285
      4 H                     0.177255
      5 C                     0.119572
      6 S                    -0.176385
      7 C                    -0.274182
      8 H                     0.114995
      9 H                     0.101022
     10 H                     0.110926
     11 C                    -0.063557
     12 C                    -0.286775
     13 C                     0.043969
     14 H                     0.186080
     15 C                    -0.253217
     16 S                     0.008538
     17 C                    -0.272128
     18 H                     0.103114
     19 H                     0.108072
     20 H                     0.108680
     21 H                     0.197597
     22 H                     0.111310
     23 H                     0.110483
     24 H                     0.174477
  ----------------------------------------
  Sum of atomic charges =     0.000000

                    Cartesian Multipole Moments
 -----------------------------------------------------------------
    Charge (ESU x 10^10)
                -0.0000
    Dipole Moment (Debye)
         X      -0.8954      Y       0.2945      Z      -0.6269
       Tot       1.1320
    Quadrupole Moments (Debye-Ang)
        XX     -90.6665     XY       4.4700     YY     -74.1462
        XZ       0.4227     YZ       4.6261     ZZ     -86.1787

 Total job time:  57.44s(wall), 1984.31s(cpu)
        *  Thank you very much for using Q-Chem.  Have a nice day.  *
