 Q-Chem 5.4, Q-Chem, Inc., Pleasanton, CA (2021)
 Q-Chem 5.4.0 for Intel X86 EM64T Linux

User input:
--------------------------------------------------------------
$molecule
0 1
C	0.126876	-3.887800	-0.713264
C	-0.113784	-3.701456	0.651267
C	-0.188043	-2.345170	1.068787
H	-0.236019	-4.545233	1.346782
C	0.000000	-1.450135	0.000000
S	0.265612	-2.321334	-1.504247
C	-0.439357	-1.934439	2.493059
H	-0.554378	-2.819799	3.147809
H	-1.362899	-1.326210	2.589987
H	0.394786	-1.325374	2.899892
C	0.000000	0.000000	0.000000
C	0.354153	0.766774	1.113020
C	0.937751	2.029404	0.820578
H	0.191350	0.414475	2.142881
C	1.042030	2.254581	-0.563588
S	0.406851	0.881228	-1.464748
C	1.384426	2.995779	1.882380
H	1.196413	2.589194	2.894974
H	0.849641	3.965707	1.808137
H	2.469756	3.216753	1.808230
H	1.443919	3.124243	-1.097114
H	-0.698744	-4.420219	-1.198647
H	1.069193	-4.419395	-0.886933
H	-1.063595	-1.450628	-0.187526
$end

$rem
JOBTYPE		SP
EXCHANGE	HF
CORRELATION	pRIMP2
BASIS		cc-pvtz
METHOD		rimp2
AUX_BASIS	rimp2-cc-pvtz
SOLVENT_METHOD	PCM
PURECART	11111
SYMMETRY	false
MEM_TOTAL	110000
SCF_CONVERGENCE = 6
THRESH=10
GUI = 2
$end

$solvent
dielectric 4.90
$end
--------------------------------------------------------------

             Standard Nuclear Orientation (Angstroms)
    I     Atom           X                Y                Z
 ----------------------------------------------------------------
    1      C       0.1268760000    -3.8878000000    -0.7132640000
    2      C      -0.1137840000    -3.7014560000     0.6512670000
    3      C      -0.1880430000    -2.3451700000     1.0687870000
    4      H      -0.2360190000    -4.5452330000     1.3467820000
    5      C       0.0000000000    -1.4501350000     0.0000000000
    6      S       0.2656120000    -2.3213340000    -1.5042470000
    7      C      -0.4393570000    -1.9344390000     2.4930590000
    8      H      -0.5543780000    -2.8197990000     3.1478090000
    9      H      -1.3628990000    -1.3262100000     2.5899870000
   10      H       0.3947860000    -1.3253740000     2.8998920000
   11      C       0.0000000000     0.0000000000     0.0000000000
   12      C       0.3541530000     0.7667740000     1.1130200000
   13      C       0.9377510000     2.0294040000     0.8205780000
   14      H       0.1913500000     0.4144750000     2.1428810000
   15      C       1.0420300000     2.2545810000    -0.5635880000
   16      S       0.4068510000     0.8812280000    -1.4647480000
   17      C       1.3844260000     2.9957790000     1.8823800000
   18      H       1.1964130000     2.5891940000     2.8949740000
   19      H       0.8496410000     3.9657070000     1.8081370000
   20      H       2.4697560000     3.2167530000     1.8082300000
   21      H       1.4439190000     3.1242430000    -1.0971140000
   22      H      -0.6987440000    -4.4202190000    -1.1986470000
   23      H       1.0691930000    -4.4193950000    -0.8869330000
   24      H      -1.0635950000    -1.4506280000    -0.1875260000
 ----------------------------------------------------------------

   10   -1180.7394244640      5.39e-07  Convergence criterion met
 Total energy in the final basis set =    -1180.7394244640
        RIMP2         total energy =     -1182.7497277314 a.u.

                    Orbital Energies (a.u.)
 --------------------------------------------------------------

 Alpha MOs
 -- Occupied --
-91.9834 -91.9458 -11.2839 -11.2654 -11.2588 -11.2583 -11.2501 -11.2436
-11.2338 -11.2319 -11.2284 -11.2214  -8.9832  -8.9504  -6.6642  -6.6636
 -6.6629  -6.6317  -6.6307  -6.6294  -1.2008  -1.1527  -1.0584  -1.0317
 -1.0004  -0.9626  -0.9158  -0.9000  -0.8165  -0.7610  -0.7311  -0.7071
 -0.6541  -0.6455  -0.6103  -0.5945  -0.5857  -0.5683  -0.5639  -0.5488
 -0.5463  -0.5344  -0.5229  -0.5018  -0.4854  -0.4772  -0.4686  -0.4429
 -0.3605  -0.3427  -0.3242  -0.2617

          Ground-State Mulliken Net Atomic Charges

     Atom                 Charge (a.u.)
  ----------------------------------------
      1 C                    -0.075472
      2 C                    -0.318915
      3 C                    -0.042627
      4 H                     0.178977
      5 C                     0.106570
      6 S                    -0.178151
      7 C                    -0.301049
      8 H                     0.122379
      9 H                     0.110513
     10 H                     0.103792
     11 C                    -0.051454
     12 C                    -0.268964
     13 C                     0.037835
     14 H                     0.191129
     15 C                    -0.265204
     16 S                     0.005980
     17 C                    -0.271072
     18 H                     0.100407
     19 H                     0.108478
     20 H                     0.108020
     21 H                     0.198105
     22 H                     0.111052
     23 H                     0.113628
     24 H                     0.176045
  ----------------------------------------
  Sum of atomic charges =     0.000000

                    Cartesian Multipole Moments
 -----------------------------------------------------------------
    Charge (ESU x 10^10)
                -0.0000
    Dipole Moment (Debye)
         X      -0.6002      Y      -0.1614      Z       3.6289
       Tot       3.6817
    Quadrupole Moments (Debye-Ang)
        XX     -90.0831     XY       5.9443     YY     -75.0582
        XZ       0.6402     YZ      -2.2114     ZZ     -85.5010

 Total job time:  54.39s(wall), 1926.04s(cpu)
        *  Thank you very much for using Q-Chem.  Have a nice day.  *
