 Q-Chem 5.4, Q-Chem, Inc., Pleasanton, CA (2021)
 Q-Chem 5.4.0 for Intel X86 EM64T Linux

User input:
--------------------------------------------------------------
$molecule
0 1
C	0.466510	-3.887800	-0.554267
C	-0.424173	-3.701456	0.507121
C	-0.697244	-2.345170	0.831575
H	-0.877789	-4.545233	1.048337
C	0.000000	-1.450135	0.000000
S	0.982150	-2.321334	-1.169911
C	-1.627024	-1.934439	1.939374
H	-2.054010	-2.819799	2.448894
H	-2.475299	-1.326210	1.561545
H	-1.108051	-1.325374	2.708773
C	0.000000	0.000000	0.000000
C	0.419634	0.732990	1.113020
C	1.111057	1.939951	0.820578
H	0.226746	0.396221	2.142881
C	1.234565	2.155183	-0.563588
S	0.482106	0.842416	-1.464748
C	1.640257	2.863718	1.882380
H	1.417524	2.475067	2.894974
H	1.192042	3.876565	1.808137
H	2.740717	2.989259	1.808230
H	1.710720	2.986508	-1.097114
H	-0.005807	-4.420219	-1.387431
H	1.369415	-4.419395	-0.233510
H	-0.827337	-1.450628	-0.694200
$end

$rem
JOBTYPE		SP
EXCHANGE	HF
CORRELATION	pRIMP2
BASIS		cc-pvtz
METHOD		rimp2
AUX_BASIS	rimp2-cc-pvtz
SOLVENT_METHOD	PCM
PURECART	11111
SYMMETRY	false
MEM_TOTAL	110000
SCF_CONVERGENCE = 6
THRESH=10
GUI = 2
$end

$solvent
dielectric 4.90
$end
--------------------------------------------------------------

             Standard Nuclear Orientation (Angstroms)
    I     Atom           X                Y                Z
 ----------------------------------------------------------------
    1      C       0.4665100000    -3.8878000000    -0.5542670000
    2      C      -0.4241730000    -3.7014560000     0.5071210000
    3      C      -0.6972440000    -2.3451700000     0.8315750000
    4      H      -0.8777890000    -4.5452330000     1.0483370000
    5      C       0.0000000000    -1.4501350000     0.0000000000
    6      S       0.9821500000    -2.3213340000    -1.1699110000
    7      C      -1.6270240000    -1.9344390000     1.9393740000
    8      H      -2.0540100000    -2.8197990000     2.4488940000
    9      H      -2.4752990000    -1.3262100000     1.5615450000
   10      H      -1.1080510000    -1.3253740000     2.7087730000
   11      C       0.0000000000     0.0000000000     0.0000000000
   12      C       0.4196340000     0.7329900000     1.1130200000
   13      C       1.1110570000     1.9399510000     0.8205780000
   14      H       0.2267460000     0.3962210000     2.1428810000
   15      C       1.2345650000     2.1551830000    -0.5635880000
   16      S       0.4821060000     0.8424160000    -1.4647480000
   17      C       1.6402570000     2.8637180000     1.8823800000
   18      H       1.4175240000     2.4750670000     2.8949740000
   19      H       1.1920420000     3.8765650000     1.8081370000
   20      H       2.7407170000     2.9892590000     1.8082300000
   21      H       1.7107200000     2.9865080000    -1.0971140000
   22      H      -0.0058070000    -4.4202190000    -1.3874310000
   23      H       1.3694150000    -4.4193950000    -0.2335100000
   24      H      -0.8273370000    -1.4506280000    -0.6942000000
 ----------------------------------------------------------------

   10   -1180.7391955297      5.51e-07  Convergence criterion met
 Total energy in the final basis set =    -1180.7391955297
        RIMP2         total energy =     -1182.7487633938 a.u.

                    Orbital Energies (a.u.)
 --------------------------------------------------------------

 Alpha MOs
 -- Occupied --
-91.9843 -91.9425 -11.2765 -11.2665 -11.2627 -11.2543 -11.2510 -11.2406
-11.2390 -11.2324 -11.2289 -11.2185  -8.9841  -8.9471  -6.6651  -6.6645
 -6.6639  -6.6284  -6.6274  -6.6261  -1.1986  -1.1536  -1.0570  -1.0291
 -0.9999  -0.9638  -0.9123  -0.9008  -0.8145  -0.7580  -0.7399  -0.7037
 -0.6528  -0.6370  -0.6108  -0.5904  -0.5822  -0.5681  -0.5666  -0.5527
 -0.5437  -0.5321  -0.5152  -0.5055  -0.4888  -0.4759  -0.4661  -0.4459
 -0.3551  -0.3422  -0.3225  -0.2661

          Ground-State Mulliken Net Atomic Charges

     Atom                 Charge (a.u.)
  ----------------------------------------
      1 C                    -0.078163
      2 C                    -0.327063
      3 C                    -0.041834
      4 H                     0.176400
      5 C                     0.081465
      6 S                    -0.171021
      7 C                    -0.281894
      8 H                     0.115961
      9 H                     0.107321
     10 H                     0.103121
     11 C                    -0.098034
     12 C                    -0.205872
     13 C                     0.012369
     14 H                     0.192669
     15 C                    -0.224973
     16 S                     0.000620
     17 C                    -0.271942
     18 H                     0.101215
     19 H                     0.107924
     20 H                     0.107944
     21 H                     0.199122
     22 H                     0.108962
     23 H                     0.112514
     24 H                     0.173188
  ----------------------------------------
  Sum of atomic charges =     0.000000

                    Cartesian Multipole Moments
 -----------------------------------------------------------------
    Charge (ESU x 10^10)
                -0.0000
    Dipole Moment (Debye)
         X      -1.1581      Y       0.5026      Z       2.7604
       Tot       3.0353
    Quadrupole Moments (Debye-Ang)
        XX     -89.3144     XY       8.1672     YY     -76.4213
        XZ       0.3897     YZ      -0.9686     ZZ     -85.4412

 Total job time:  54.11s(wall), 1880.79s(cpu)
        *  Thank you very much for using Q-Chem.  Have a nice day.  *
