 Q-Chem 5.4, Q-Chem, Inc., Pleasanton, CA (2021)
 Q-Chem 5.4.0 for Intel X86 EM64T Linux

User input:
--------------------------------------------------------------
$molecule
0 1
C	-0.246754	-3.887800	-0.681143
C	0.227093	-3.701456	0.620906
C	0.371543	-2.345170	1.019618
H	0.468992	-4.545233	1.284357
C	0.000000	-1.450135	0.000000
S	-0.522097	-2.321334	-1.435522
C	0.866035	-1.934439	2.378731
H	1.093799	-2.819799	3.003272
H	0.114688	-1.326210	2.924444
H	1.791841	-1.325374	2.313987
C	0.000000	0.000000	0.000000
C	0.419634	0.732990	1.113020
C	1.111057	1.939951	0.820578
H	0.226746	0.396221	2.142881
C	1.234565	2.155183	-0.563588
S	0.482106	0.842416	-1.464748
C	1.640257	2.863718	1.882380
H	1.417524	2.475067	2.894974
H	1.192042	3.876565	1.808137
H	2.740717	2.989259	1.808230
H	1.710720	2.986508	-1.097114
H	-1.204454	-4.420219	-0.688686
H	0.482482	-4.419395	-1.302703
H	-1.014863	-1.450628	0.369395
$end

$rem
JOBTYPE		SP
EXCHANGE	HF
CORRELATION	pRIMP2
BASIS		cc-pvtz
METHOD		rimp2
AUX_BASIS	rimp2-cc-pvtz
SOLVENT_METHOD	PCM
PURECART	11111
SYMMETRY	false
MEM_TOTAL	110000
SCF_CONVERGENCE = 6
THRESH=10
GUI = 2
$end

$solvent
dielectric 4.90
$end
--------------------------------------------------------------

             Standard Nuclear Orientation (Angstroms)
    I     Atom           X                Y                Z
 ----------------------------------------------------------------
    1      C      -0.2467540000    -3.8878000000    -0.6811430000
    2      C       0.2270930000    -3.7014560000     0.6209060000
    3      C       0.3715430000    -2.3451700000     1.0196180000
    4      H       0.4689920000    -4.5452330000     1.2843570000
    5      C       0.0000000000    -1.4501350000     0.0000000000
    6      S      -0.5220970000    -2.3213340000    -1.4355220000
    7      C       0.8660350000    -1.9344390000     2.3787310000
    8      H       1.0937990000    -2.8197990000     3.0032720000
    9      H       0.1146880000    -1.3262100000     2.9244440000
   10      H       1.7918410000    -1.3253740000     2.3139870000
   11      C       0.0000000000     0.0000000000     0.0000000000
   12      C       0.4196340000     0.7329900000     1.1130200000
   13      C       1.1110570000     1.9399510000     0.8205780000
   14      H       0.2267460000     0.3962210000     2.1428810000
   15      C       1.2345650000     2.1551830000    -0.5635880000
   16      S       0.4821060000     0.8424160000    -1.4647480000
   17      C       1.6402570000     2.8637180000     1.8823800000
   18      H       1.4175240000     2.4750670000     2.8949740000
   19      H       1.1920420000     3.8765650000     1.8081370000
   20      H       2.7407170000     2.9892590000     1.8082300000
   21      H       1.7107200000     2.9865080000    -1.0971140000
   22      H      -1.2044540000    -4.4202190000    -0.6886860000
   23      H       0.4824820000    -4.4193950000    -1.3027030000
   24      H      -1.0148630000    -1.4506280000     0.3693950000
 ----------------------------------------------------------------

   10   -1180.7338006940      6.10e-07  Convergence criterion met
 Total energy in the final basis set =    -1180.7338006940
        RIMP2         total energy =     -1182.7470083638 a.u.

                    Orbital Energies (a.u.)
 --------------------------------------------------------------

 Alpha MOs
 -- Occupied --
-91.9809 -91.9441 -11.2799 -11.2648 -11.2620 -11.2571 -11.2505 -11.2430
-11.2361 -11.2329 -11.2290 -11.2202  -8.9808  -8.9486  -6.6618  -6.6611
 -6.6606  -6.6301  -6.6291  -6.6278  -1.2003  -1.1528  -1.0580  -1.0307
 -1.0009  -0.9622  -0.9151  -0.9004  -0.8150  -0.7608  -0.7280  -0.7102
 -0.6538  -0.6463  -0.6109  -0.5936  -0.5892  -0.5698  -0.5589  -0.5512
 -0.5420  -0.5344  -0.5239  -0.5041  -0.4822  -0.4737  -0.4652  -0.4438
 -0.3588  -0.3417  -0.3234  -0.2632

          Ground-State Mulliken Net Atomic Charges

     Atom                 Charge (a.u.)
  ----------------------------------------
      1 C                    -0.073504
      2 C                    -0.323810
      3 C                    -0.061996
      4 H                     0.179402
      5 C                     0.112564
      6 S                    -0.182663
      7 C                    -0.296044
      8 H                     0.121476
      9 H                     0.097570
     10 H                     0.117159
     11 C                    -0.037149
     12 C                    -0.308337
     13 C                     0.055525
     14 H                     0.194756
     15 C                    -0.261498
     16 S                     0.017509
     17 C                    -0.271530
     18 H                     0.101096
     19 H                     0.109268
     20 H                     0.107995
     21 H                     0.195864
     22 H                     0.110840
     23 H                     0.112242
     24 H                     0.183267
  ----------------------------------------
  Sum of atomic charges =     0.000000

                    Cartesian Multipole Moments
 -----------------------------------------------------------------
    Charge (ESU x 10^10)
                -0.0000
    Dipole Moment (Debye)
         X       0.9151      Y       0.0117      Z       4.1061
       Tot       4.2069
    Quadrupole Moments (Debye-Ang)
        XX     -88.9354     XY       4.6548     YY     -76.2071
        XZ       0.9703     YZ      -2.8026     ZZ     -85.9180

 Total job time:  54.36s(wall), 1934.48s(cpu)
        *  Thank you very much for using Q-Chem.  Have a nice day.  *
