 Q-Chem 5.4, Q-Chem, Inc., Pleasanton, CA (2021)
 Q-Chem 5.4.0 for Intel X86 EM64T Linux

User input:
--------------------------------------------------------------
$molecule
0 1
C	-0.724460	-3.887800	-0.001092
C	0.661131	-3.701456	-0.001036
C	1.085203	-2.345170	-0.000406
H	1.367305	-4.545233	-0.001433
C	0.000000	-1.450135	0.000000
S	-1.527517	-2.321334	-0.000367
C	2.531478	-1.934439	-0.000233
H	3.196254	-2.819799	-0.000656
H	2.787305	-1.326210	0.892447
H	2.787282	-1.325374	-0.892350
C	0.000000	0.000000	0.000000
C	0.354153	0.766774	1.113020
C	0.937751	2.029404	0.820578
H	0.191350	0.414475	2.142881
C	1.042030	2.254581	-0.563588
S	0.406851	0.881228	-1.464748
C	1.384426	2.995779	1.882380
H	1.196413	2.589194	2.894974
H	0.849641	3.965707	1.808137
H	2.469756	3.216753	1.808230
H	1.443919	3.124243	-1.097114
H	-1.059101	-4.420219	0.896272
H	-1.059122	-4.419395	-0.898936
H	0.000014	-1.450628	1.080000
$end

$rem
JOBTYPE		SP
EXCHANGE	HF
CORRELATION	pRIMP2
BASIS		cc-pvtz
METHOD		rimp2
AUX_BASIS	rimp2-cc-pvtz
SOLVENT_METHOD	PCM
PURECART	11111
SYMMETRY	false
MEM_TOTAL	110000
SCF_CONVERGENCE = 6
THRESH=10
GUI = 2
$end

$solvent
dielectric 4.90
$end
--------------------------------------------------------------

             Standard Nuclear Orientation (Angstroms)
    I     Atom           X                Y                Z
 ----------------------------------------------------------------
    1      C      -0.7244600000    -3.8878000000    -0.0010920000
    2      C       0.6611310000    -3.7014560000    -0.0010360000
    3      C       1.0852030000    -2.3451700000    -0.0004060000
    4      H       1.3673050000    -4.5452330000    -0.0014330000
    5      C       0.0000000000    -1.4501350000     0.0000000000
    6      S      -1.5275170000    -2.3213340000    -0.0003670000
    7      C       2.5314780000    -1.9344390000    -0.0002330000
    8      H       3.1962540000    -2.8197990000    -0.0006560000
    9      H       2.7873050000    -1.3262100000     0.8924470000
   10      H       2.7872820000    -1.3253740000    -0.8923500000
   11      C       0.0000000000     0.0000000000     0.0000000000
   12      C       0.3541530000     0.7667740000     1.1130200000
   13      C       0.9377510000     2.0294040000     0.8205780000
   14      H       0.1913500000     0.4144750000     2.1428810000
   15      C       1.0420300000     2.2545810000    -0.5635880000
   16      S       0.4068510000     0.8812280000    -1.4647480000
   17      C       1.3844260000     2.9957790000     1.8823800000
   18      H       1.1964130000     2.5891940000     2.8949740000
   19      H       0.8496410000     3.9657070000     1.8081370000
   20      H       2.4697560000     3.2167530000     1.8082300000
   21      H       1.4439190000     3.1242430000    -1.0971140000
   22      H      -1.0591010000    -4.4202190000     0.8962720000
   23      H      -1.0591220000    -4.4193950000    -0.8989360000
   24      H       0.0000140000    -1.4506280000     1.0800000000
 ----------------------------------------------------------------

   10   -1180.7531396931      5.56e-07  Convergence criterion met
 Total energy in the final basis set =    -1180.7531396931
        RIMP2         total energy =     -1182.7609325381 a.u.

                    Orbital Energies (a.u.)
 --------------------------------------------------------------

 Alpha MOs
 -- Occupied --
-91.9807 -91.9382 -11.2769 -11.2698 -11.2620 -11.2545 -11.2519 -11.2471
-11.2397 -11.2303 -11.2303 -11.2187  -8.9808  -8.9430  -6.6617  -6.6611
 -6.6606  -6.6244  -6.6234  -6.6221  -1.1977  -1.1543  -1.0570  -1.0240
 -1.0066  -0.9605  -0.9110  -0.9019  -0.8124  -0.7606  -0.7372  -0.7027
 -0.6593  -0.6397  -0.6109  -0.5896  -0.5797  -0.5725  -0.5660  -0.5505
 -0.5411  -0.5279  -0.5175  -0.5042  -0.4933  -0.4748  -0.4598  -0.4470
 -0.3541  -0.3425  -0.3140  -0.2801

          Ground-State Mulliken Net Atomic Charges

     Atom                 Charge (a.u.)
  ----------------------------------------
      1 C                    -0.075809
      2 C                    -0.327989
      3 C                    -0.016329
      4 H                     0.176766
      5 C                     0.063065
      6 S                    -0.186157
      7 C                    -0.270386
      8 H                     0.115310
      9 H                     0.102141
     10 H                     0.109506
     11 C                    -0.057698
     12 C                    -0.258028
     13 C                     0.035480
     14 H                     0.182069
     15 C                    -0.231929
     16 S                     0.005229
     17 C                    -0.270020
     18 H                     0.102461
     19 H                     0.108624
     20 H                     0.107688
     21 H                     0.198238
     22 H                     0.109265
     23 H                     0.110286
     24 H                     0.168218
  ----------------------------------------
  Sum of atomic charges =     0.000000

                    Cartesian Multipole Moments
 -----------------------------------------------------------------
    Charge (ESU x 10^10)
                -0.0000
    Dipole Moment (Debye)
         X       3.3624      Y       0.8062      Z       2.3649
       Tot       4.1891
    Quadrupole Moments (Debye-Ang)
        XX     -89.9933     XY       0.3030     YY     -75.8993
        XZ       0.1636     YZ      -0.2868     ZZ     -85.9323

 Total job time:  54.32s(wall), 1909.73s(cpu)
        *  Thank you very much for using Q-Chem.  Have a nice day.  *
