 Q-Chem 5.4, Q-Chem, Inc., Pleasanton, CA (2021)
 Q-Chem 5.4.0 for Intel X86 EM64T Linux

User input:
--------------------------------------------------------------
$molecule
0 1
C	0.248806	-3.887800	-0.680396
C	-0.225147	-3.701456	0.621614
C	-0.370780	-2.345170	1.019896
H	-0.466300	-4.545233	1.285337
C	0.000000	-1.450135	0.000000
S	0.522786	-2.321334	-1.435271
C	-0.865597	-1.934439	2.378891
H	-1.092567	-2.819799	3.003720
H	-1.791940	-1.326210	2.313975
H	-0.114772	-1.325374	2.924390
C	0.000000	0.000000	0.000000
C	0.419634	0.732990	1.113020
C	1.111057	1.939951	0.820578
H	0.226746	0.396221	2.142881
C	1.234565	2.155183	-0.563588
S	0.482106	0.842416	-1.464748
C	1.640257	2.863718	1.882380
H	1.417524	2.475067	2.894974
H	1.192042	3.876565	1.808137
H	2.740717	2.989259	1.808230
H	1.710720	2.986508	-1.097114
H	-0.479986	-4.420219	-1.301772
H	1.206964	-4.419395	-0.687795
H	-1.014873	-1.450628	-0.369368
$end

$rem
JOBTYPE		SP
EXCHANGE	HF
CORRELATION	pRIMP2
BASIS		cc-pvtz
METHOD		rimp2
AUX_BASIS	rimp2-cc-pvtz
SOLVENT_METHOD	PCM
PURECART	11111
SYMMETRY	false
MEM_TOTAL	110000
SCF_CONVERGENCE = 6
THRESH=10
GUI = 2
$end

$solvent
dielectric 4.90
$end
--------------------------------------------------------------

             Standard Nuclear Orientation (Angstroms)
    I     Atom           X                Y                Z
 ----------------------------------------------------------------
    1      C       0.2488060000    -3.8878000000    -0.6803960000
    2      C      -0.2251470000    -3.7014560000     0.6216140000
    3      C      -0.3707800000    -2.3451700000     1.0198960000
    4      H      -0.4663000000    -4.5452330000     1.2853370000
    5      C       0.0000000000    -1.4501350000     0.0000000000
    6      S       0.5227860000    -2.3213340000    -1.4352710000
    7      C      -0.8655970000    -1.9344390000     2.3788910000
    8      H      -1.0925670000    -2.8197990000     3.0037200000
    9      H      -1.7919400000    -1.3262100000     2.3139750000
   10      H      -0.1147720000    -1.3253740000     2.9243900000
   11      C       0.0000000000     0.0000000000     0.0000000000
   12      C       0.4196340000     0.7329900000     1.1130200000
   13      C       1.1110570000     1.9399510000     0.8205780000
   14      H       0.2267460000     0.3962210000     2.1428810000
   15      C       1.2345650000     2.1551830000    -0.5635880000
   16      S       0.4821060000     0.8424160000    -1.4647480000
   17      C       1.6402570000     2.8637180000     1.8823800000
   18      H       1.4175240000     2.4750670000     2.8949740000
   19      H       1.1920420000     3.8765650000     1.8081370000
   20      H       2.7407170000     2.9892590000     1.8082300000
   21      H       1.7107200000     2.9865080000    -1.0971140000
   22      H      -0.4799860000    -4.4202190000    -1.3017720000
   23      H       1.2069640000    -4.4193950000    -0.6877950000
   24      H      -1.0148730000    -1.4506280000    -0.3693680000
 ----------------------------------------------------------------

   10   -1180.7340851082      5.75e-07  Convergence criterion met
 Total energy in the final basis set =    -1180.7340851082
        RIMP2         total energy =     -1182.7455889206 a.u.

                    Orbital Energies (a.u.)
 --------------------------------------------------------------

 Alpha MOs
 -- Occupied --
-91.9835 -91.9447 -11.2802 -11.2643 -11.2623 -11.2561 -11.2505 -11.2422
-11.2353 -11.2334 -11.2286 -11.2200  -8.9833  -8.9492  -6.6643  -6.6637
 -6.6631  -6.6306  -6.6296  -6.6282  -1.2001  -1.1531  -1.0578  -1.0311
 -0.9999  -0.9634  -0.9144  -0.9004  -0.8158  -0.7598  -0.7343  -0.7061
 -0.6533  -0.6424  -0.6104  -0.5935  -0.5848  -0.5681  -0.5656  -0.5502
 -0.5452  -0.5336  -0.5203  -0.5033  -0.4860  -0.4758  -0.4679  -0.4428
 -0.3588  -0.3424  -0.3242  -0.2616

          Ground-State Mulliken Net Atomic Charges

     Atom                 Charge (a.u.)
  ----------------------------------------
      1 C                    -0.077449
      2 C                    -0.322947
      3 C                    -0.040206
      4 H                     0.177885
      5 C                     0.094606
      6 S                    -0.175421
      7 C                    -0.298185
      8 H                     0.120626
      9 H                     0.112679
     10 H                     0.101839
     11 C                    -0.069045
     12 C                    -0.244114
     13 C                     0.027374
     14 H                     0.193112
     15 C                    -0.247812
     16 S                     0.003642
     17 C                    -0.271174
     18 H                     0.100508
     19 H                     0.108381
     20 H                     0.107772
     21 H                     0.198906
     22 H                     0.110257
     23 H                     0.113206
     24 H                     0.175561
  ----------------------------------------
  Sum of atomic charges =     0.000000

                    Cartesian Multipole Moments
 -----------------------------------------------------------------
    Charge (ESU x 10^10)
                -0.0000
    Dipole Moment (Debye)
         X      -0.7239      Y       0.0982      Z       3.3775
       Tot       3.4556
    Quadrupole Moments (Debye-Ang)
        XX     -89.3304     XY       7.1193     YY     -76.0762
        XZ       0.5741     YZ      -1.9097     ZZ     -85.4378

 Total job time:  55.01s(wall), 1896.83s(cpu)
        *  Thank you very much for using Q-Chem.  Have a nice day.  *
