 Q-Chem 5.4, Q-Chem, Inc., Pleasanton, CA (2021)
 Q-Chem 5.4.0 for Intel X86 EM64T Linux

User input:
--------------------------------------------------------------
$molecule
0 1
C	0.681143	-3.887800	-0.246754
C	-0.620906	-3.701456	0.227093
C	-1.019618	-2.345170	0.371543
H	-1.284357	-4.545233	0.468992
C	-0.000000	-1.450135	-0.000000
S	1.435522	-2.321334	-0.522097
C	-2.378731	-1.934439	0.866035
H	-3.003272	-2.819799	1.093799
H	-2.924444	-1.326210	0.114688
H	-2.313987	-1.325374	1.791841
C	0.000000	0.000000	0.000000
C	0.540541	0.648986	1.113020
C	1.431046	1.717546	0.820578
H	0.292104	0.350827	2.142881
C	1.590053	1.908061	-0.563588
S	0.621066	0.745901	-1.464748
C	2.112618	2.535384	1.882380
H	1.825779	2.191315	2.894974
H	1.847090	3.610676	1.808137
H	3.218159	2.467925	1.808230
H	2.203332	2.644073	-1.097114
H	0.688686	-4.420219	-1.204454
H	1.302703	-4.419395	0.482482
H	-0.369395	-1.450628	-1.014863
$end

$rem
JOBTYPE		SP
EXCHANGE	HF
CORRELATION	pRIMP2
BASIS		cc-pvtz
METHOD		rimp2
AUX_BASIS	rimp2-cc-pvtz
SOLVENT_METHOD	PCM
PURECART	11111
SYMMETRY	false
MEM_TOTAL	110000
SCF_CONVERGENCE = 6
THRESH=10
GUI = 2
$end

$solvent
dielectric 4.90
$end
--------------------------------------------------------------

             Standard Nuclear Orientation (Angstroms)
    I     Atom           X                Y                Z
 ----------------------------------------------------------------
    1      C       0.6811430000    -3.8878000000    -0.2467540000
    2      C      -0.6209060000    -3.7014560000     0.2270930000
    3      C      -1.0196180000    -2.3451700000     0.3715430000
    4      H      -1.2843570000    -4.5452330000     0.4689920000
    5      C       0.0000000000    -1.4501350000     0.0000000000
    6      S       1.4355220000    -2.3213340000    -0.5220970000
    7      C      -2.3787310000    -1.9344390000     0.8660350000
    8      H      -3.0032720000    -2.8197990000     1.0937990000
    9      H      -2.9244440000    -1.3262100000     0.1146880000
   10      H      -2.3139870000    -1.3253740000     1.7918410000
   11      C       0.0000000000     0.0000000000     0.0000000000
   12      C       0.5405410000     0.6489860000     1.1130200000
   13      C       1.4310460000     1.7175460000     0.8205780000
   14      H       0.2921040000     0.3508270000     2.1428810000
   15      C       1.5900530000     1.9080610000    -0.5635880000
   16      S       0.6210660000     0.7459010000    -1.4647480000
   17      C       2.1126180000     2.5353840000     1.8823800000
   18      H       1.8257790000     2.1913150000     2.8949740000
   19      H       1.8470900000     3.6106760000     1.8081370000
   20      H       3.2181590000     2.4679250000     1.8082300000
   21      H       2.2033320000     2.6440730000    -1.0971140000
   22      H       0.6886860000    -4.4202190000    -1.2044540000
   23      H       1.3027030000    -4.4193950000     0.4824820000
   24      H      -0.3693950000    -1.4506280000    -1.0148630000
 ----------------------------------------------------------------

   10   -1180.7300968411      6.18e-07  Convergence criterion met
 Total energy in the final basis set =    -1180.7300968411
        RIMP2         total energy =     -1182.7415307463 a.u.

                    Orbital Energies (a.u.)
 --------------------------------------------------------------

 Alpha MOs
 -- Occupied --
-91.9841 -91.9376 -11.2762 -11.2649 -11.2589 -11.2516 -11.2514 -11.2463
-11.2385 -11.2303 -11.2292 -11.2148  -8.9841  -8.9424  -6.6650  -6.6644
 -6.6639  -6.6238  -6.6228  -6.6215  -1.1979  -1.1539  -1.0563  -1.0260
 -0.9999  -0.9639  -0.9102  -0.9010  -0.8106  -0.7571  -0.7452  -0.7030
 -0.6510  -0.6302  -0.6123  -0.5868  -0.5793  -0.5723  -0.5660  -0.5518
 -0.5414  -0.5307  -0.5076  -0.5064  -0.4908  -0.4718  -0.4632  -0.4473
 -0.3573  -0.3354  -0.3155  -0.2754

          Ground-State Mulliken Net Atomic Charges

     Atom                 Charge (a.u.)
  ----------------------------------------
      1 C                    -0.075391
      2 C                    -0.328862
      3 C                    -0.043676
      4 H                     0.174769
      5 C                     0.056205
      6 S                    -0.175595
      7 C                    -0.271854
      8 H                     0.112765
      9 H                     0.103754
     10 H                     0.103133
     11 C                    -0.118064
     12 C                    -0.165436
     13 C                     0.007240
     14 H                     0.185768
     15 C                    -0.206441
     16 S                     0.012649
     17 C                    -0.269470
     18 H                     0.102505
     19 H                     0.107352
     20 H                     0.107492
     21 H                     0.200544
     22 H                     0.106866
     23 H                     0.110603
     24 H                     0.163143
  ----------------------------------------
  Sum of atomic charges =     0.000000

                    Cartesian Multipole Moments
 -----------------------------------------------------------------
    Charge (ESU x 10^10)
                -0.0000
    Dipole Moment (Debye)
         X      -0.8942      Y       1.0186      Z       1.6779
       Tot       2.1570
    Quadrupole Moments (Debye-Ang)
        XX     -87.2303     XY       9.7901     YY     -79.0489
        XZ       0.2837     YZ       0.7387     ZZ     -85.3853

 Total job time:  54.19s(wall), 1901.14s(cpu)
        *  Thank you very much for using Q-Chem.  Have a nice day.  *
