 Q-Chem 5.4, Q-Chem, Inc., Pleasanton, CA (2021)
 Q-Chem 5.4.0 for Intel X86 EM64T Linux

User input:
--------------------------------------------------------------
$molecule
0 1
C	-0.126876	-3.887800	0.713264
C	0.113784	-3.701456	-0.651267
C	0.188043	-2.345170	-1.068787
H	0.236019	-4.545233	-1.346782
C	-0.000000	-1.450135	-0.000000
S	-0.265612	-2.321334	1.504247
C	0.439357	-1.934439	-2.493059
H	0.554378	-2.819799	-3.147809
H	1.362899	-1.326210	-2.589987
H	-0.394786	-1.325374	-2.899892
C	0.000000	0.000000	0.000000
C	0.540541	0.648986	1.113020
C	1.431046	1.717546	0.820578
H	0.292104	0.350827	2.142881
C	1.590053	1.908061	-0.563588
S	0.621066	0.745901	-1.464748
C	2.112618	2.535384	1.882380
H	1.825779	2.191315	2.894974
H	1.847090	3.610676	1.808137
H	3.218159	2.467925	1.808230
H	2.203332	2.644073	-1.097114
H	0.698744	-4.420219	1.198647
H	-1.069193	-4.419395	0.886933
H	1.063595	-1.450628	0.187526
$end

$rem
JOBTYPE		SP
EXCHANGE	HF
CORRELATION	pRIMP2
BASIS		cc-pvtz
METHOD		rimp2
AUX_BASIS	rimp2-cc-pvtz
SOLVENT_METHOD	PCM
PURECART	11111
SYMMETRY	false
MEM_TOTAL	110000
SCF_CONVERGENCE = 6
THRESH=10
GUI = 2
$end

$solvent
dielectric 4.90
$end
--------------------------------------------------------------

             Standard Nuclear Orientation (Angstroms)
    I     Atom           X                Y                Z
 ----------------------------------------------------------------
    1      C      -0.1268760000    -3.8878000000     0.7132640000
    2      C       0.1137840000    -3.7014560000    -0.6512670000
    3      C       0.1880430000    -2.3451700000    -1.0687870000
    4      H       0.2360190000    -4.5452330000    -1.3467820000
    5      C       0.0000000000    -1.4501350000     0.0000000000
    6      S      -0.2656120000    -2.3213340000     1.5042470000
    7      C       0.4393570000    -1.9344390000    -2.4930590000
    8      H       0.5543780000    -2.8197990000    -3.1478090000
    9      H       1.3628990000    -1.3262100000    -2.5899870000
   10      H      -0.3947860000    -1.3253740000    -2.8998920000
   11      C       0.0000000000     0.0000000000     0.0000000000
   12      C       0.5405410000     0.6489860000     1.1130200000
   13      C       1.4310460000     1.7175460000     0.8205780000
   14      H       0.2921040000     0.3508270000     2.1428810000
   15      C       1.5900530000     1.9080610000    -0.5635880000
   16      S       0.6210660000     0.7459010000    -1.4647480000
   17      C       2.1126180000     2.5353840000     1.8823800000
   18      H       1.8257790000     2.1913150000     2.8949740000
   19      H       1.8470900000     3.6106760000     1.8081370000
   20      H       3.2181590000     2.4679250000     1.8082300000
   21      H       2.2033320000     2.6440730000    -1.0971140000
   22      H       0.6987440000    -4.4202190000     1.1986470000
   23      H      -1.0691930000    -4.4193950000     0.8869330000
   24      H       1.0635950000    -1.4506280000     0.1875260000
 ----------------------------------------------------------------

   10   -1180.7206789627      6.95e-07  Convergence criterion met
 Total energy in the final basis set =    -1180.7206789627
        RIMP2         total energy =     -1182.7376183086 a.u.

                    Orbital Energies (a.u.)
 --------------------------------------------------------------

 Alpha MOs
 -- Occupied --
-91.9789 -91.9436 -11.2809 -11.2629 -11.2623 -11.2599 -11.2510 -11.2425
-11.2349 -11.2289 -11.2284 -11.2193  -8.9798  -8.9483  -6.6606  -6.6600
 -6.6594  -6.6297  -6.6286  -6.6274  -1.2045  -1.1525  -1.0598  -1.0275
 -1.0066  -0.9551  -0.9140  -0.9036  -0.8087  -0.7721  -0.7194  -0.7023
 -0.6619  -0.6460  -0.6119  -0.5870  -0.5837  -0.5728  -0.5693  -0.5531
 -0.5411  -0.5328  -0.5170  -0.5147  -0.4908  -0.4703  -0.4533  -0.4420
 -0.3567  -0.3393  -0.3269  -0.2618

          Ground-State Mulliken Net Atomic Charges

     Atom                 Charge (a.u.)
  ----------------------------------------
      1 C                    -0.073392
      2 C                    -0.322351
      3 C                    -0.044543
      4 H                     0.178514
      5 C                     0.084682
      6 S                    -0.197941
      7 C                    -0.295820
      8 H                     0.113949
      9 H                     0.112992
     10 H                     0.113006
     11 C                    -0.027061
     12 C                    -0.268980
     13 C                     0.032849
     14 H                     0.179737
     15 C                    -0.262684
     16 S                     0.019061
     17 C                    -0.268795
     18 H                     0.103230
     19 H                     0.108470
     20 H                     0.106489
     21 H                     0.197936
     22 H                     0.110443
     23 H                     0.112594
     24 H                     0.187614
  ----------------------------------------
  Sum of atomic charges =     0.000000

                    Cartesian Multipole Moments
 -----------------------------------------------------------------
    Charge (ESU x 10^10)
                -0.0000
    Dipole Moment (Debye)
         X       2.4431      Y      -0.1402      Z      -0.9579
       Tot       2.6279
    Quadrupole Moments (Debye-Ang)
        XX     -87.4687     XY       3.0851     YY     -78.4367
        XZ       0.7915     YZ       4.0175     ZZ     -85.2606

 Total job time:  56.07s(wall), 1946.90s(cpu)
        *  Thank you very much for using Q-Chem.  Have a nice day.  *
