 Q-Chem 5.4, Q-Chem, Inc., Pleasanton, CA (2021)
 Q-Chem 5.4.0 for Intel X86 EM64T Linux

User input:
--------------------------------------------------------------
$molecule
0 1
C	-0.464838	-3.887800	-0.555670
C	0.425760	-3.701456	0.505790
C	0.697866	-2.345170	0.831053
H	0.879984	-4.545233	1.046496
C	0.000000	-1.450135	0.000000
S	-0.981588	-2.321334	-1.170382
C	1.627381	-1.934439	1.939074
H	2.055015	-2.819799	2.448051
H	1.107991	-1.326210	2.708853
H	2.475210	-1.325374	1.561590
C	0.000000	0.000000	0.000000
C	0.729909	0.424971	1.113020
C	1.932179	1.124518	0.820578
H	0.394478	0.229765	2.142881
C	2.146756	1.249161	-0.563588
S	0.838724	0.488500	-1.464748
C	2.852364	1.659924	1.882380
H	2.465145	1.434710	2.894974
H	2.970621	2.761183	1.808137
H	3.868160	1.218416	1.808230
H	2.974781	1.731032	-1.097114
H	-1.367361	-4.420219	-0.235206
H	0.007834	-4.419395	-1.389159
H	-0.827319	-1.450628	0.694221
$end

$rem
JOBTYPE		SP
EXCHANGE	HF
CORRELATION	pRIMP2
BASIS		cc-pvtz
METHOD		rimp2
AUX_BASIS	rimp2-cc-pvtz
SOLVENT_METHOD	PCM
PURECART	11111
SYMMETRY	false
MEM_TOTAL	110000
SCF_CONVERGENCE = 6
THRESH=10
GUI = 2
$end

$solvent
dielectric 4.90
$end
--------------------------------------------------------------

             Standard Nuclear Orientation (Angstroms)
    I     Atom           X                Y                Z
 ----------------------------------------------------------------
    1      C      -0.4648380000    -3.8878000000    -0.5556700000
    2      C       0.4257600000    -3.7014560000     0.5057900000
    3      C       0.6978660000    -2.3451700000     0.8310530000
    4      H       0.8799840000    -4.5452330000     1.0464960000
    5      C       0.0000000000    -1.4501350000     0.0000000000
    6      S      -0.9815880000    -2.3213340000    -1.1703820000
    7      C       1.6273810000    -1.9344390000     1.9390740000
    8      H       2.0550150000    -2.8197990000     2.4480510000
    9      H       1.1079910000    -1.3262100000     2.7088530000
   10      H       2.4752100000    -1.3253740000     1.5615900000
   11      C       0.0000000000     0.0000000000     0.0000000000
   12      C       0.7299090000     0.4249710000     1.1130200000
   13      C       1.9321790000     1.1245180000     0.8205780000
   14      H       0.3944780000     0.2297650000     2.1428810000
   15      C       2.1467560000     1.2491610000    -0.5635880000
   16      S       0.8387240000     0.4885000000    -1.4647480000
   17      C       2.8523640000     1.6599240000     1.8823800000
   18      H       2.4651450000     1.4347100000     2.8949740000
   19      H       2.9706210000     2.7611830000     1.8081370000
   20      H       3.8681600000     1.2184160000     1.8082300000
   21      H       2.9747810000     1.7310320000    -1.0971140000
   22      H      -1.3673610000    -4.4202190000    -0.2352060000
   23      H       0.0078340000    -4.4193950000    -1.3891590000
   24      H      -0.8273190000    -1.4506280000     0.6942210000
 ----------------------------------------------------------------

   11   -1180.6755101117      4.61e-07  Convergence criterion met
 Total energy in the final basis set =    -1180.6755101117
        RIMP2         total energy =     -1182.7030920105 a.u.

                    Orbital Energies (a.u.)
 --------------------------------------------------------------

 Alpha MOs
 -- Occupied --
-91.9748 -91.9359 -11.2878 -11.2621 -11.2594 -11.2533 -11.2509 -11.2501
-11.2378 -11.2324 -11.2303 -11.2144  -8.9759  -8.9406  -6.6567  -6.6558
 -6.6555  -6.6220  -6.6211  -6.6198  -1.2054  -1.1542  -1.0584  -1.0318
 -0.9999  -0.9648  -0.9129  -0.9036  -0.8087  -0.7601  -0.7391  -0.7131
 -0.6488  -0.6416  -0.6161  -0.5959  -0.5936  -0.5705  -0.5614  -0.5521
 -0.5391  -0.5316  -0.5250  -0.5103  -0.4798  -0.4655  -0.4432  -0.4407
 -0.3525  -0.3381  -0.3230  -0.2652

          Ground-State Mulliken Net Atomic Charges

     Atom                 Charge (a.u.)
  ----------------------------------------
      1 C                    -0.068338
      2 C                    -0.339950
      3 C                    -0.051693
      4 H                     0.175949
      5 C                     0.100708
      6 S                    -0.201648
      7 C                    -0.294247
      8 H                     0.120117
      9 H                     0.098549
     10 H                     0.115237
     11 C                    -0.179126
     12 C                    -0.120662
     13 C                    -0.039052
     14 H                     0.193378
     15 C                    -0.167874
     16 S                     0.014960
     17 C                    -0.282469
     18 H                     0.106269
     19 H                     0.122986
     20 H                     0.108637
     21 H                     0.201012
     22 H                     0.105550
     23 H                     0.108534
     24 H                     0.173173
  ----------------------------------------
  Sum of atomic charges =     0.000000

                    Cartesian Multipole Moments
 -----------------------------------------------------------------
    Charge (ESU x 10^10)
                -0.0000
    Dipole Moment (Debye)
         X       3.6979      Y       0.6936      Z       4.3268
       Tot       5.7338
    Quadrupole Moments (Debye-Ang)
        XX     -82.1368     XY       4.2221     YY     -83.2628
        XZ       0.9542     YZ      -3.0251     ZZ     -85.7427

 Total job time:  64.72s(wall), 2207.80s(cpu)
        *  Thank you very much for using Q-Chem.  Have a nice day.  *
