 Q-Chem 5.4, Q-Chem, Inc., Pleasanton, CA (2021)
 Q-Chem 5.4.0 for Intel X86 EM64T Linux

User input:
--------------------------------------------------------------
$molecule
0 1
C	0.126876	-3.887800	-0.713264
C	-0.113784	-3.701456	0.651267
C	-0.188043	-2.345170	1.068787
H	-0.236019	-4.545233	1.346782
C	0.000000	-1.450135	0.000000
S	0.265612	-2.321334	-1.504247
C	-0.439357	-1.934439	2.493059
H	-0.554378	-2.819799	3.147809
H	-1.362899	-1.326210	2.589987
H	0.394786	-1.325374	2.899892
C	0.000000	0.000000	0.000000
C	0.645024	0.545262	1.113020
C	1.707554	1.442954	0.820578
H	0.348587	0.294774	2.142881
C	1.897227	1.602964	-0.563588
S	0.741155	0.626722	-1.464748
C	2.520787	2.130014	1.882380
H	2.178559	1.840981	2.894974
H	2.446016	3.235078	1.808137
H	3.597818	1.871604	1.808230
H	2.628997	2.221299	-1.097114
H	-0.698744	-4.420219	-1.198647
H	1.069193	-4.419395	-0.886933
H	-1.063595	-1.450628	-0.187526
$end

$rem
JOBTYPE		SP
EXCHANGE	HF
CORRELATION	pRIMP2
BASIS		cc-pvtz
METHOD		rimp2
AUX_BASIS	rimp2-cc-pvtz
SOLVENT_METHOD	PCM
PURECART	11111
SYMMETRY	false
MEM_TOTAL	110000
SCF_CONVERGENCE = 6
THRESH=10
GUI = 2
$end

$solvent
dielectric 4.90
$end
--------------------------------------------------------------

             Standard Nuclear Orientation (Angstroms)
    I     Atom           X                Y                Z
 ----------------------------------------------------------------
    1      C       0.1268760000    -3.8878000000    -0.7132640000
    2      C      -0.1137840000    -3.7014560000     0.6512670000
    3      C      -0.1880430000    -2.3451700000     1.0687870000
    4      H      -0.2360190000    -4.5452330000     1.3467820000
    5      C       0.0000000000    -1.4501350000     0.0000000000
    6      S       0.2656120000    -2.3213340000    -1.5042470000
    7      C      -0.4393570000    -1.9344390000     2.4930590000
    8      H      -0.5543780000    -2.8197990000     3.1478090000
    9      H      -1.3628990000    -1.3262100000     2.5899870000
   10      H       0.3947860000    -1.3253740000     2.8998920000
   11      C       0.0000000000     0.0000000000     0.0000000000
   12      C       0.6450240000     0.5452620000     1.1130200000
   13      C       1.7075540000     1.4429540000     0.8205780000
   14      H       0.3485870000     0.2947740000     2.1428810000
   15      C       1.8972270000     1.6029640000    -0.5635880000
   16      S       0.7411550000     0.6267220000    -1.4647480000
   17      C       2.5207870000     2.1300140000     1.8823800000
   18      H       2.1785590000     1.8409810000     2.8949740000
   19      H       2.4460160000     3.2350780000     1.8081370000
   20      H       3.5978180000     1.8716040000     1.8082300000
   21      H       2.6289970000     2.2212990000    -1.0971140000
   22      H      -0.6987440000    -4.4202190000    -1.1986470000
   23      H       1.0691930000    -4.4193950000    -0.8869330000
   24      H      -1.0635950000    -1.4506280000    -0.1875260000
 ----------------------------------------------------------------

   11   -1180.6896946404      5.17e-07  Convergence criterion met
 Total energy in the final basis set =    -1180.6896946404
        RIMP2         total energy =     -1182.7127121068 a.u.

                    Orbital Energies (a.u.)
 --------------------------------------------------------------

 Alpha MOs
 -- Occupied --
-91.9801 -91.9411 -11.2741 -11.2637 -11.2616 -11.2509 -11.2495 -11.2452
-11.2386 -11.2324 -11.2295 -11.2147  -8.9807  -8.9456  -6.6615  -6.6608
 -6.6604  -6.6269  -6.6259  -6.6246  -1.2010  -1.1530  -1.0567  -1.0318
 -0.9976  -0.9649  -0.9131  -0.9010  -0.8131  -0.7584  -0.7339  -0.7096
 -0.6499  -0.6411  -0.6112  -0.5957  -0.5867  -0.5681  -0.5655  -0.5480
 -0.5439  -0.5338  -0.5210  -0.5040  -0.4813  -0.4746  -0.4551  -0.4365
 -0.3606  -0.3392  -0.3228  -0.2540

          Ground-State Mulliken Net Atomic Charges

     Atom                 Charge (a.u.)
  ----------------------------------------
      1 C                    -0.078536
      2 C                    -0.335498
      3 C                    -0.033288
      4 H                     0.175670
      5 C                     0.074892
      6 S                    -0.184725
      7 C                    -0.292361
      8 H                     0.120090
      9 H                     0.109523
     10 H                     0.099876
     11 C                    -0.107144
     12 C                    -0.196941
     13 C                     0.007574
     14 H                     0.196344
     15 C                    -0.215193
     16 S                     0.018026
     17 C                    -0.269658
     18 H                     0.100741
     19 H                     0.108581
     20 H                     0.106506
     21 H                     0.199824
     22 H                     0.108400
     23 H                     0.110413
     24 H                     0.176885
  ----------------------------------------
  Sum of atomic charges =     0.000000

                    Cartesian Multipole Moments
 -----------------------------------------------------------------
    Charge (ESU x 10^10)
                -0.0000
    Dipole Moment (Debye)
         X       0.6670      Y       0.4822      Z       3.7277
       Tot       3.8175
    Quadrupole Moments (Debye-Ang)
        XX     -85.1410     XY       7.5447     YY     -81.2626
        XZ       0.7696     YZ      -2.5300     ZZ     -85.1599

 Total job time:  67.29s(wall), 2538.39s(cpu)
        *  Thank you very much for using Q-Chem.  Have a nice day.  *
