 Q-Chem 5.4, Q-Chem, Inc., Pleasanton, CA (2021)
 Q-Chem 5.4.0 for Intel X86 EM64T Linux

User input:
--------------------------------------------------------------
$molecule
0 1
C	0.001092	-3.887800	-0.724460
C	0.001036	-3.701456	0.661131
C	0.000406	-2.345170	1.085203
H	0.001433	-4.545233	1.367305
C	0.000000	-1.450135	0.000000
S	0.000367	-2.321334	-1.527517
C	0.000233	-1.934439	2.531478
H	0.000656	-2.819799	3.196254
H	-0.892447	-1.326210	2.787305
H	0.892350	-1.325374	2.787282
C	0.000000	0.000000	0.000000
C	-0.003081	0.844605	1.113020
C	-0.007772	2.235575	0.820578
H	-0.001743	0.456510	2.142881
C	-0.008427	2.483726	-0.563588
S	-0.003691	0.970607	-1.464748
C	-0.011355	3.300181	1.882380
H	-0.009922	2.852233	2.894974
H	-0.905944	3.953225	1.808137
H	0.878901	3.959133	1.808230
H	-0.011727	3.441752	-1.097114
H	-0.896272	-4.420219	-1.059101
H	0.898936	-4.419395	-1.059122
H	-1.080000	-1.450628	0.000014
$end

$rem
JOBTYPE		SP
EXCHANGE	HF
CORRELATION	pRIMP2
BASIS		cc-pvtz
METHOD		rimp2
AUX_BASIS	rimp2-cc-pvtz
SOLVENT_METHOD	PCM
PURECART	11111
SYMMETRY	false
MEM_TOTAL	110000
SCF_CONVERGENCE = 6
THRESH=10
GUI = 2
$end

$solvent
dielectric 4.90
$end
--------------------------------------------------------------

             Standard Nuclear Orientation (Angstroms)
    I     Atom           X                Y                Z
 ----------------------------------------------------------------
    1      C       0.0010920000    -3.8878000000    -0.7244600000
    2      C       0.0010360000    -3.7014560000     0.6611310000
    3      C       0.0004060000    -2.3451700000     1.0852030000
    4      H       0.0014330000    -4.5452330000     1.3673050000
    5      C       0.0000000000    -1.4501350000     0.0000000000
    6      S       0.0003670000    -2.3213340000    -1.5275170000
    7      C       0.0002330000    -1.9344390000     2.5314780000
    8      H       0.0006560000    -2.8197990000     3.1962540000
    9      H      -0.8924470000    -1.3262100000     2.7873050000
   10      H       0.8923500000    -1.3253740000     2.7872820000
   11      C       0.0000000000     0.0000000000     0.0000000000
   12      C      -0.0030810000     0.8446050000     1.1130200000
   13      C      -0.0077720000     2.2355750000     0.8205780000
   14      H      -0.0017430000     0.4565100000     2.1428810000
   15      C      -0.0084270000     2.4837260000    -0.5635880000
   16      S      -0.0036910000     0.9706070000    -1.4647480000
   17      C      -0.0113550000     3.3001810000     1.8823800000
   18      H      -0.0099220000     2.8522330000     2.8949740000
   19      H      -0.9059440000     3.9532250000     1.8081370000
   20      H       0.8789010000     3.9591330000     1.8082300000
   21      H      -0.0117270000     3.4417520000    -1.0971140000
   22      H      -0.8962720000    -4.4202190000    -1.0591010000
   23      H       0.8989360000    -4.4193950000    -1.0591220000
   24      H      -1.0800000000    -1.4506280000     0.0000140000
 ----------------------------------------------------------------

   10   -1180.7573923369      5.04e-07  Convergence criterion met
 Total energy in the final basis set =    -1180.7573923369
        RIMP2         total energy =     -1182.7627222961 a.u.

                    Orbital Energies (a.u.)
 --------------------------------------------------------------

 Alpha MOs
 -- Occupied --
-91.9845 -91.9470 -11.2911 -11.2668 -11.2632 -11.2531 -11.2497 -11.2454
-11.2344 -11.2281 -11.2264 -11.2244  -8.9840  -8.9516  -6.6650  -6.6644
 -6.6638  -6.6330  -6.6320  -6.6307  -1.2021  -1.1523  -1.0597  -1.0323
 -1.0015  -0.9612  -0.9172  -0.8997  -0.8178  -0.7629  -0.7278  -0.7066
 -0.6574  -0.6488  -0.6109  -0.5948  -0.5857  -0.5687  -0.5603  -0.5509
 -0.5458  -0.5356  -0.5248  -0.4995  -0.4876  -0.4831  -0.4685  -0.4444
 -0.3614  -0.3438  -0.3247  -0.2643

          Ground-State Mulliken Net Atomic Charges

     Atom                 Charge (a.u.)
  ----------------------------------------
      1 C                    -0.071522
      2 C                    -0.309729
      3 C                    -0.061727
      4 H                     0.180354
      5 C                     0.137052
      6 S                    -0.180250
      7 C                    -0.303751
      8 H                     0.124131
      9 H                     0.105117
     10 H                     0.110214
     11 C                    -0.058427
     12 C                    -0.267188
     13 C                     0.032153
     14 H                     0.190841
     15 C                    -0.285867
     16 S                     0.003978
     17 C                    -0.273161
     18 H                     0.100264
     19 H                     0.108485
     20 H                     0.108469
     21 H                     0.197291
     22 H                     0.111536
     23 H                     0.113669
     24 H                     0.188069
  ----------------------------------------
  Sum of atomic charges =     0.000000

                    Cartesian Multipole Moments
 -----------------------------------------------------------------
    Charge (ESU x 10^10)
                 0.0000
    Dipole Moment (Debye)
         X      -0.8911      Y      -0.5721      Z       3.7888
       Tot       3.9340
    Quadrupole Moments (Debye-Ang)
        XX     -91.7941     XY       1.4738     YY     -72.7353
        XZ       0.2422     YZ      -2.3929     ZZ     -85.6779

 Total job time:  54.98s(wall), 1884.02s(cpu)
        *  Thank you very much for using Q-Chem.  Have a nice day.  *
