 Q-Chem 5.4, Q-Chem, Inc., Pleasanton, CA (2021)
 Q-Chem 5.4.0 for Intel X86 EM64T Linux

User input:
--------------------------------------------------------------
$molecule
0 1
C	0.248806	-3.887800	-0.680396
C	-0.225147	-3.701456	0.621614
C	-0.370780	-2.345170	1.019896
H	-0.466300	-4.545233	1.285337
C	-0.000000	-1.450135	-0.000000
S	0.522786	-2.321334	-1.435271
C	-0.865597	-1.934439	2.378891
H	-1.092567	-2.819799	3.003720
H	-1.791940	-1.326210	2.313975
H	-0.114772	-1.325374	2.924390
C	0.000000	0.000000	0.000000
C	0.070542	0.841660	1.113020
C	0.187101	2.227746	0.820578
H	0.038051	0.454925	2.142881
C	0.208076	2.475009	-0.563588
S	0.080917	0.967235	-1.464748
C	0.276318	3.288613	1.882380
H	0.238704	2.842244	2.894974
H	-0.557951	4.017140	1.808137
H	1.220618	3.867466	1.808230
H	0.288286	3.429678	-1.097114
H	-0.479986	-4.420219	-1.301772
H	1.206964	-4.419395	-0.687795
H	-1.014873	-1.450628	-0.369368
$end

$rem
JOBTYPE		SP
EXCHANGE	HF
CORRELATION	pRIMP2
BASIS		cc-pvtz
METHOD		rimp2
AUX_BASIS	rimp2-cc-pvtz
SOLVENT_METHOD	PCM
PURECART	11111
SYMMETRY	false
MEM_TOTAL	110000
SCF_CONVERGENCE = 6
THRESH=10
GUI = 2
$end

$solvent
dielectric 4.90
$end
--------------------------------------------------------------

             Standard Nuclear Orientation (Angstroms)
    I     Atom           X                Y                Z
 ----------------------------------------------------------------
    1      C       0.2488060000    -3.8878000000    -0.6803960000
    2      C      -0.2251470000    -3.7014560000     0.6216140000
    3      C      -0.3707800000    -2.3451700000     1.0198960000
    4      H      -0.4663000000    -4.5452330000     1.2853370000
    5      C       0.0000000000    -1.4501350000     0.0000000000
    6      S       0.5227860000    -2.3213340000    -1.4352710000
    7      C      -0.8655970000    -1.9344390000     2.3788910000
    8      H      -1.0925670000    -2.8197990000     3.0037200000
    9      H      -1.7919400000    -1.3262100000     2.3139750000
   10      H      -0.1147720000    -1.3253740000     2.9243900000
   11      C       0.0000000000     0.0000000000     0.0000000000
   12      C       0.0705420000     0.8416600000     1.1130200000
   13      C       0.1871010000     2.2277460000     0.8205780000
   14      H       0.0380510000     0.4549250000     2.1428810000
   15      C       0.2080760000     2.4750090000    -0.5635880000
   16      S       0.0809170000     0.9672350000    -1.4647480000
   17      C       0.2763180000     3.2886130000     1.8823800000
   18      H       0.2387040000     2.8422440000     2.8949740000
   19      H      -0.5579510000     4.0171400000     1.8081370000
   20      H       1.2206180000     3.8674660000     1.8082300000
   21      H       0.2882860000     3.4296780000    -1.0971140000
   22      H      -0.4799860000    -4.4202190000    -1.3017720000
   23      H       1.2069640000    -4.4193950000    -0.6877950000
   24      H      -1.0148730000    -1.4506280000    -0.3693680000
 ----------------------------------------------------------------

   10   -1180.7574001749      5.07e-07  Convergence criterion met
 Total energy in the final basis set =    -1180.7574001749
        RIMP2         total energy =     -1182.7624331945 a.u.

                    Orbital Energies (a.u.)
 --------------------------------------------------------------

 Alpha MOs
 -- Occupied --
-91.9843 -91.9465 -11.2890 -11.2661 -11.2616 -11.2557 -11.2500 -11.2447
-11.2339 -11.2293 -11.2282 -11.2236  -8.9840  -8.9511  -6.6649  -6.6644
 -6.6637  -6.6325  -6.6314  -6.6302  -1.2013  -1.1527  -1.0593  -1.0314
 -1.0012  -0.9621  -0.9161  -0.9000  -0.8172  -0.7621  -0.7329  -0.7051
 -0.6555  -0.6457  -0.6108  -0.5940  -0.5835  -0.5686  -0.5642  -0.5511
 -0.5463  -0.5342  -0.5221  -0.5011  -0.4882  -0.4828  -0.4674  -0.4461
 -0.3597  -0.3432  -0.3248  -0.2658

          Ground-State Mulliken Net Atomic Charges

     Atom                 Charge (a.u.)
  ----------------------------------------
      1 C                    -0.071869
      2 C                    -0.319914
      3 C                    -0.032519
      4 H                     0.179710
      5 C                     0.123229
      6 S                    -0.177677
      7 C                    -0.299350
      8 H                     0.120986
      9 H                     0.113970
     10 H                     0.103737
     11 C                    -0.081127
     12 C                    -0.251670
     13 C                     0.025715
     14 H                     0.193346
     15 C                    -0.270971
     16 S                    -0.000652
     17 C                    -0.273406
     18 H                     0.100631
     19 H                     0.108379
     20 H                     0.108887
     21 H                     0.197579
     22 H                     0.110882
     23 H                     0.114689
     24 H                     0.177413
  ----------------------------------------
  Sum of atomic charges =     0.000000

                    Cartesian Multipole Moments
 -----------------------------------------------------------------
    Charge (ESU x 10^10)
                -0.0000
    Dipole Moment (Debye)
         X      -1.5293      Y      -0.3307      Z       3.3593
       Tot       3.7058
    Quadrupole Moments (Debye-Ang)
        XX     -91.8924     XY       3.4342     YY     -72.8031
        XZ       0.1413     YZ      -1.6750     ZZ     -85.6067

 Total job time:  55.12s(wall), 1901.86s(cpu)
        *  Thank you very much for using Q-Chem.  Have a nice day.  *
