 Q-Chem 5.4, Q-Chem, Inc., Pleasanton, CA (2021)
 Q-Chem 5.4.0 for Intel X86 EM64T Linux

User input:
--------------------------------------------------------------
$molecule
0 1
C	0.724460	-3.887800	0.001092
C	-0.661131	-3.701456	0.001036
C	-1.085203	-2.345170	0.000406
H	-1.367305	-4.545233	0.001433
C	-0.000000	-1.450135	-0.000000
S	1.527517	-2.321334	0.000367
C	-2.531478	-1.934439	0.000233
H	-3.196254	-2.819799	0.000656
H	-2.787305	-1.326210	-0.892447
H	-2.787282	-1.325374	0.892350
C	0.000000	0.000000	0.000000
C	0.540541	0.648986	1.113020
C	1.431046	1.717546	0.820578
H	0.292104	0.350827	2.142881
C	1.590053	1.908061	-0.563588
S	0.621066	0.745901	-1.464748
C	2.112618	2.535384	1.882380
H	1.825779	2.191315	2.894974
H	1.847090	3.610676	1.808137
H	3.218159	2.467925	1.808230
H	2.203332	2.644073	-1.097114
H	1.059101	-4.420219	-0.896272
H	1.059122	-4.419395	0.898936
H	-0.000014	-1.450628	-1.080000
$end

$rem
JOBTYPE		SP
EXCHANGE	HF
CORRELATION	pRIMP2
BASIS		cc-pvtz
METHOD		rimp2
AUX_BASIS	rimp2-cc-pvtz
SOLVENT_METHOD	PCM
PURECART	11111
SYMMETRY	false
MEM_TOTAL	110000
SCF_CONVERGENCE = 6
THRESH=10
GUI = 2
$end

$solvent
dielectric 4.90
$end
--------------------------------------------------------------

             Standard Nuclear Orientation (Angstroms)
    I     Atom           X                Y                Z
 ----------------------------------------------------------------
    1      C       0.7244600000    -3.8878000000     0.0010920000
    2      C      -0.6611310000    -3.7014560000     0.0010360000
    3      C      -1.0852030000    -2.3451700000     0.0004060000
    4      H      -1.3673050000    -4.5452330000     0.0014330000
    5      C       0.0000000000    -1.4501350000     0.0000000000
    6      S       1.5275170000    -2.3213340000     0.0003670000
    7      C      -2.5314780000    -1.9344390000     0.0002330000
    8      H      -3.1962540000    -2.8197990000     0.0006560000
    9      H      -2.7873050000    -1.3262100000    -0.8924470000
   10      H      -2.7872820000    -1.3253740000     0.8923500000
   11      C       0.0000000000     0.0000000000     0.0000000000
   12      C       0.5405410000     0.6489860000     1.1130200000
   13      C       1.4310460000     1.7175460000     0.8205780000
   14      H       0.2921040000     0.3508270000     2.1428810000
   15      C       1.5900530000     1.9080610000    -0.5635880000
   16      S       0.6210660000     0.7459010000    -1.4647480000
   17      C       2.1126180000     2.5353840000     1.8823800000
   18      H       1.8257790000     2.1913150000     2.8949740000
   19      H       1.8470900000     3.6106760000     1.8081370000
   20      H       3.2181590000     2.4679250000     1.8082300000
   21      H       2.2033320000     2.6440730000    -1.0971140000
   22      H       1.0591010000    -4.4202190000    -0.8962720000
   23      H       1.0591220000    -4.4193950000     0.8989360000
   24      H      -0.0000140000    -1.4506280000    -1.0800000000
 ----------------------------------------------------------------

   10   -1180.7308169518      6.15e-07  Convergence criterion met
 Total energy in the final basis set =    -1180.7308169518
        RIMP2         total energy =     -1182.7418722574 a.u.

                    Orbital Energies (a.u.)
 --------------------------------------------------------------

 Alpha MOs
 -- Occupied --
-91.9836 -91.9383 -11.2760 -11.2653 -11.2579 -11.2515 -11.2514 -11.2471
-11.2389 -11.2299 -11.2292 -11.2141  -8.9838  -8.9431  -6.6646  -6.6640
 -6.6635  -6.6244  -6.6234  -6.6222  -1.1985  -1.1538  -1.0569  -1.0250
 -1.0010  -0.9630  -0.9112  -0.9005  -0.8094  -0.7611  -0.7424  -0.7029
 -0.6510  -0.6300  -0.6127  -0.5865  -0.5779  -0.5741  -0.5664  -0.5516
 -0.5411  -0.5308  -0.5072  -0.5066  -0.4894  -0.4723  -0.4637  -0.4469
 -0.3581  -0.3355  -0.3132  -0.2789

          Ground-State Mulliken Net Atomic Charges

     Atom                 Charge (a.u.)
  ----------------------------------------
      1 C                    -0.073098
      2 C                    -0.330718
      3 C                    -0.043658
      4 H                     0.174689
      5 C                     0.061171
      6 S                    -0.179582
      7 C                    -0.271774
      8 H                     0.112683
      9 H                     0.102445
     10 H                     0.104911
     11 C                    -0.097930
     12 C                    -0.202472
     13 C                     0.029462
     14 H                     0.181901
     15 C                    -0.215403
     16 S                     0.013923
     17 C                    -0.268656
     18 H                     0.102979
     19 H                     0.107515
     20 H                     0.107478
     21 H                     0.200709
     22 H                     0.107800
     23 H                     0.109881
     24 H                     0.165744
  ----------------------------------------
  Sum of atomic charges =     0.000000

                    Cartesian Multipole Moments
 -----------------------------------------------------------------
    Charge (ESU x 10^10)
                -0.0000
    Dipole Moment (Debye)
         X      -0.7945      Y       1.0161      Z       0.8889
       Tot       1.5665
    Quadrupole Moments (Debye-Ang)
        XX     -87.0692     XY       9.4395     YY     -79.1045
        XZ       0.2981     YZ       2.1067     ZZ     -85.5579

 Total job time:  54.28s(wall), 1900.86s(cpu)
        *  Thank you very much for using Q-Chem.  Have a nice day.  *
