 Q-Chem 5.4, Q-Chem, Inc., Pleasanton, CA (2021)
 Q-Chem 5.4.0 for Intel X86 EM64T Linux

User input:
--------------------------------------------------------------
$molecule
0 1
C	0.248806	-3.887800	-0.680396
C	-0.225147	-3.701456	0.621614
C	-0.370780	-2.345170	1.019896
H	-0.466300	-4.545233	1.285337
C	0.000000	-1.450135	0.000000
S	0.522786	-2.321334	-1.435271
C	-0.865597	-1.934439	2.378891
H	-1.092567	-2.819799	3.003720
H	-1.791940	-1.326210	2.313975
H	-0.114772	-1.325374	2.924390
C	0.000000	0.000000	0.000000
C	0.729909	0.424971	1.113020
C	1.932179	1.124518	0.820578
H	0.394478	0.229765	2.142881
C	2.146756	1.249161	-0.563588
S	0.838724	0.488500	-1.464748
C	2.852364	1.659924	1.882380
H	2.465145	1.434710	2.894974
H	2.970621	2.761183	1.808137
H	3.868160	1.218416	1.808230
H	2.974781	1.731032	-1.097114
H	-0.479986	-4.420219	-1.301772
H	1.206964	-4.419395	-0.687795
H	-1.014873	-1.450628	-0.369368
$end

$rem
JOBTYPE		SP
EXCHANGE	HF
CORRELATION	pRIMP2
BASIS		cc-pvtz
METHOD		rimp2
AUX_BASIS	rimp2-cc-pvtz
SOLVENT_METHOD	PCM
PURECART	11111
SYMMETRY	false
MEM_TOTAL	110000
SCF_CONVERGENCE = 6
THRESH=10
GUI = 2
$end

$solvent
dielectric 4.90
$end
--------------------------------------------------------------

             Standard Nuclear Orientation (Angstroms)
    I     Atom           X                Y                Z
 ----------------------------------------------------------------
    1      C       0.2488060000    -3.8878000000    -0.6803960000
    2      C      -0.2251470000    -3.7014560000     0.6216140000
    3      C      -0.3707800000    -2.3451700000     1.0198960000
    4      H      -0.4663000000    -4.5452330000     1.2853370000
    5      C       0.0000000000    -1.4501350000     0.0000000000
    6      S       0.5227860000    -2.3213340000    -1.4352710000
    7      C      -0.8655970000    -1.9344390000     2.3788910000
    8      H      -1.0925670000    -2.8197990000     3.0037200000
    9      H      -1.7919400000    -1.3262100000     2.3139750000
   10      H      -0.1147720000    -1.3253740000     2.9243900000
   11      C       0.0000000000     0.0000000000     0.0000000000
   12      C       0.7299090000     0.4249710000     1.1130200000
   13      C       1.9321790000     1.1245180000     0.8205780000
   14      H       0.3944780000     0.2297650000     2.1428810000
   15      C       2.1467560000     1.2491610000    -0.5635880000
   16      S       0.8387240000     0.4885000000    -1.4647480000
   17      C       2.8523640000     1.6599240000     1.8823800000
   18      H       2.4651450000     1.4347100000     2.8949740000
   19      H       2.9706210000     2.7611830000     1.8081370000
   20      H       3.8681600000     1.2184160000     1.8082300000
   21      H       2.9747810000     1.7310320000    -1.0971140000
   22      H      -0.4799860000    -4.4202190000    -1.3017720000
   23      H       1.2069640000    -4.4193950000    -0.6877950000
   24      H      -1.0148730000    -1.4506280000    -0.3693680000
 ----------------------------------------------------------------

   11   -1180.6639694455      6.35e-07  Convergence criterion met
 Total energy in the final basis set =    -1180.6639694455
        RIMP2         total energy =     -1182.6909439939 a.u.

                    Orbital Energies (a.u.)
 --------------------------------------------------------------

 Alpha MOs
 -- Occupied --
-91.9801 -91.9377 -11.2853 -11.2586 -11.2562 -11.2523 -11.2495 -11.2455
-11.2338 -11.2315 -11.2305 -11.2109  -8.9811  -8.9422  -6.6619  -6.6610
 -6.6608  -6.6235  -6.6224  -6.6211  -1.2032  -1.1530  -1.0564  -1.0315
 -0.9968  -0.9667  -0.9103  -0.9020  -0.8124  -0.7574  -0.7381  -0.7088
 -0.6485  -0.6363  -0.6134  -0.5965  -0.5851  -0.5677  -0.5671  -0.5495
 -0.5424  -0.5341  -0.5175  -0.5053  -0.4819  -0.4782  -0.4461  -0.4322
 -0.3581  -0.3371  -0.3237  -0.2509

          Ground-State Mulliken Net Atomic Charges

     Atom                 Charge (a.u.)
  ----------------------------------------
      1 C                    -0.082782
      2 C                    -0.341777
      3 C                    -0.042036
      4 H                     0.172975
      5 C                     0.067249
      6 S                    -0.185377
      7 C                    -0.290264
      8 H                     0.118077
      9 H                     0.111237
     10 H                     0.095901
     11 C                    -0.161300
     12 C                    -0.123067
     13 C                    -0.026918
     14 H                     0.202240
     15 C                    -0.176231
     16 S                     0.022586
     17 C                    -0.269109
     18 H                     0.101298
     19 H                     0.108094
     20 H                     0.106151
     21 H                     0.202143
     22 H                     0.105163
     23 H                     0.106911
     24 H                     0.178835
  ----------------------------------------
  Sum of atomic charges =     0.000000

                    Cartesian Multipole Moments
 -----------------------------------------------------------------
    Charge (ESU x 10^10)
                -0.0000
    Dipole Moment (Debye)
         X       1.1673      Y       0.8852      Z       3.4909
       Tot       3.7858
    Quadrupole Moments (Debye-Ang)
        XX     -82.5385     XY       7.9185     YY     -84.6202
        XZ       0.5469     YZ      -2.2939     ZZ     -84.7654

 Total job time:  61.20s(wall), 2144.78s(cpu)
        *  Thank you very much for using Q-Chem.  Have a nice day.  *
