 Q-Chem 5.4, Q-Chem, Inc., Pleasanton, CA (2021)
 Q-Chem 5.4.0 for Intel X86 EM64T Linux

User input:
--------------------------------------------------------------
$molecule
0 1
C	0.555670	-3.887800	-0.464838
C	-0.505790	-3.701456	0.425760
C	-0.831053	-2.345170	0.697866
H	-1.046496	-4.545233	0.879984
C	0.000000	-1.450135	0.000000
S	1.170382	-2.321334	-0.981588
C	-1.939074	-1.934439	1.627381
H	-2.448051	-2.819799	2.055015
H	-2.708853	-1.326210	1.107991
H	-1.561590	-1.325374	2.475210
C	0.000000	0.000000	0.000000
C	0.419634	0.732990	1.113020
C	1.111057	1.939951	0.820578
H	0.226746	0.396221	2.142881
C	1.234565	2.155183	-0.563588
S	0.482106	0.842416	-1.464748
C	1.640257	2.863718	1.882380
H	1.417524	2.475067	2.894974
H	1.192042	3.876565	1.808137
H	2.740717	2.989259	1.808230
H	1.710720	2.986508	-1.097114
H	0.235206	-4.420219	-1.367361
H	1.389159	-4.419395	0.007834
H	-0.694221	-1.450628	-0.827319
$end

$rem
JOBTYPE		SP
EXCHANGE	HF
CORRELATION	pRIMP2
BASIS		cc-pvtz
METHOD		rimp2
AUX_BASIS	rimp2-cc-pvtz
SOLVENT_METHOD	PCM
PURECART	11111
SYMMETRY	false
MEM_TOTAL	110000
SCF_CONVERGENCE = 6
THRESH=10
GUI = 2
$end

$solvent
dielectric 4.90
$end
--------------------------------------------------------------

             Standard Nuclear Orientation (Angstroms)
    I     Atom           X                Y                Z
 ----------------------------------------------------------------
    1      C       0.5556700000    -3.8878000000    -0.4648380000
    2      C      -0.5057900000    -3.7014560000     0.4257600000
    3      C      -0.8310530000    -2.3451700000     0.6978660000
    4      H      -1.0464960000    -4.5452330000     0.8799840000
    5      C       0.0000000000    -1.4501350000     0.0000000000
    6      S       1.1703820000    -2.3213340000    -0.9815880000
    7      C      -1.9390740000    -1.9344390000     1.6273810000
    8      H      -2.4480510000    -2.8197990000     2.0550150000
    9      H      -2.7088530000    -1.3262100000     1.1079910000
   10      H      -1.5615900000    -1.3253740000     2.4752100000
   11      C       0.0000000000     0.0000000000     0.0000000000
   12      C       0.4196340000     0.7329900000     1.1130200000
   13      C       1.1110570000     1.9399510000     0.8205780000
   14      H       0.2267460000     0.3962210000     2.1428810000
   15      C       1.2345650000     2.1551830000    -0.5635880000
   16      S       0.4821060000     0.8424160000    -1.4647480000
   17      C       1.6402570000     2.8637180000     1.8823800000
   18      H       1.4175240000     2.4750670000     2.8949740000
   19      H       1.1920420000     3.8765650000     1.8081370000
   20      H       2.7407170000     2.9892590000     1.8082300000
   21      H       1.7107200000     2.9865080000    -1.0971140000
   22      H       0.2352060000    -4.4202190000    -1.3673610000
   23      H       1.3891590000    -4.4193950000     0.0078340000
   24      H      -0.6942210000    -1.4506280000    -0.8273190000
 ----------------------------------------------------------------

   10   -1180.7413101135      5.48e-07  Convergence criterion met
 Total energy in the final basis set =    -1180.7413101135
        RIMP2         total energy =     -1182.7501569498 a.u.

                    Orbital Energies (a.u.)
 --------------------------------------------------------------

 Alpha MOs
 -- Occupied --
-91.9846 -91.9413 -11.2744 -11.2685 -11.2619 -11.2537 -11.2510 -11.2404
-11.2401 -11.2317 -11.2289 -11.2177  -8.9844  -8.9459  -6.6654  -6.6648
 -6.6642  -6.6272  -6.6262  -6.6249  -1.1979  -1.1537  -1.0567  -1.0280
 -1.0001  -0.9638  -0.9116  -0.9009  -0.8136  -0.7573  -0.7421  -0.7031
 -0.6525  -0.6347  -0.6111  -0.5890  -0.5810  -0.5691  -0.5666  -0.5530
 -0.5429  -0.5313  -0.5128  -0.5060  -0.4900  -0.4759  -0.4648  -0.4474
 -0.3550  -0.3408  -0.3203  -0.2695

          Ground-State Mulliken Net Atomic Charges

     Atom                 Charge (a.u.)
  ----------------------------------------
      1 C                    -0.077160
      2 C                    -0.327854
      3 C                    -0.038364
      4 H                     0.175904
      5 C                     0.072850
      6 S                    -0.170891
      7 C                    -0.275726
      8 H                     0.114395
      9 H                     0.105335
     10 H                     0.103355
     11 C                    -0.105964
     12 C                    -0.196718
     13 C                     0.010224
     14 H                     0.191761
     15 C                    -0.219656
     16 S                     0.003489
     17 C                    -0.271660
     18 H                     0.101724
     19 H                     0.107640
     20 H                     0.107952
     21 H                     0.199090
     22 H                     0.108467
     23 H                     0.112140
     24 H                     0.169667
  ----------------------------------------
  Sum of atomic charges =     0.000000

                    Cartesian Multipole Moments
 -----------------------------------------------------------------
    Charge (ESU x 10^10)
                -0.0000
    Dipole Moment (Debye)
         X      -1.2917      Y       0.6801      Z       2.4139
       Tot       2.8210
    Quadrupole Moments (Debye-Ang)
        XX     -89.2914     XY       8.5376     YY     -76.6062
        XZ       0.3159     YZ      -0.4104     ZZ     -85.4550

 Total job time:  60.17s(wall), 2021.39s(cpu)
        *  Thank you very much for using Q-Chem.  Have a nice day.  *
