 Q-Chem 5.4, Q-Chem, Inc., Pleasanton, CA (2021)
 Q-Chem 5.4.0 for Intel X86 EM64T Linux

User input:
--------------------------------------------------------------
$molecule
0 1
C	-0.555670	-3.887800	0.464838
C	0.505790	-3.701456	-0.425760
C	0.831053	-2.345170	-0.697866
H	1.046496	-4.545233	-0.879984
C	0.000000	-1.450135	0.000000
S	-1.170382	-2.321334	0.981588
C	1.939074	-1.934439	-1.627381
H	2.448051	-2.819799	-2.055015
H	2.708853	-1.326210	-1.107991
H	1.561590	-1.325374	-2.475210
C	0.000000	0.000000	0.000000
C	0.729909	0.424971	1.113020
C	1.932179	1.124518	0.820578
H	0.394478	0.229765	2.142881
C	2.146756	1.249161	-0.563588
S	0.838724	0.488500	-1.464748
C	2.852364	1.659924	1.882380
H	2.465145	1.434710	2.894974
H	2.970621	2.761183	1.808137
H	3.868160	1.218416	1.808230
H	2.974781	1.731032	-1.097114
H	-0.235206	-4.420219	1.367361
H	-1.389159	-4.419395	-0.007834
H	0.694221	-1.450628	0.827319
$end

$rem
JOBTYPE		SP
EXCHANGE	HF
CORRELATION	pRIMP2
BASIS		cc-pvtz
METHOD		rimp2
AUX_BASIS	rimp2-cc-pvtz
SOLVENT_METHOD	PCM
PURECART	11111
SYMMETRY	false
MEM_TOTAL	110000
SCF_CONVERGENCE = 6
THRESH=10
GUI = 2
$end

$solvent
dielectric 4.90
$end
--------------------------------------------------------------

             Standard Nuclear Orientation (Angstroms)
    I     Atom           X                Y                Z
 ----------------------------------------------------------------
    1      C      -0.5556700000    -3.8878000000     0.4648380000
    2      C       0.5057900000    -3.7014560000    -0.4257600000
    3      C       0.8310530000    -2.3451700000    -0.6978660000
    4      H       1.0464960000    -4.5452330000    -0.8799840000
    5      C       0.0000000000    -1.4501350000     0.0000000000
    6      S      -1.1703820000    -2.3213340000     0.9815880000
    7      C       1.9390740000    -1.9344390000    -1.6273810000
    8      H       2.4480510000    -2.8197990000    -2.0550150000
    9      H       2.7088530000    -1.3262100000    -1.1079910000
   10      H       1.5615900000    -1.3253740000    -2.4752100000
   11      C       0.0000000000     0.0000000000     0.0000000000
   12      C       0.7299090000     0.4249710000     1.1130200000
   13      C       1.9321790000     1.1245180000     0.8205780000
   14      H       0.3944780000     0.2297650000     2.1428810000
   15      C       2.1467560000     1.2491610000    -0.5635880000
   16      S       0.8387240000     0.4885000000    -1.4647480000
   17      C       2.8523640000     1.6599240000     1.8823800000
   18      H       2.4651450000     1.4347100000     2.8949740000
   19      H       2.9706210000     2.7611830000     1.8081370000
   20      H       3.8681600000     1.2184160000     1.8082300000
   21      H       2.9747810000     1.7310320000    -1.0971140000
   22      H      -0.2352060000    -4.4202190000     1.3673610000
   23      H      -1.3891590000    -4.4193950000    -0.0078340000
   24      H       0.6942210000    -1.4506280000     0.8273190000
 ----------------------------------------------------------------

   11   -1180.6444635425      7.55e-07  Convergence criterion met
 Total energy in the final basis set =    -1180.6444635425
        RIMP2         total energy =     -1182.6806452443 a.u.

                    Orbital Energies (a.u.)
 --------------------------------------------------------------

 Alpha MOs
 -- Occupied --
-91.9808 -91.9331 -11.2837 -11.2599 -11.2558 -11.2539 -11.2526 -11.2485
-11.2369 -11.2312 -11.2235 -11.2132  -8.9824  -8.9381  -6.6628  -6.6622
 -6.6620  -6.6195  -6.6184  -6.6172  -1.2100  -1.1522  -1.0597  -1.0278
 -1.0092  -0.9562  -0.9084  -0.9071  -0.8027  -0.7691  -0.7387  -0.6999
 -0.6626  -0.6375  -0.6106  -0.5898  -0.5848  -0.5771  -0.5658  -0.5594
 -0.5427  -0.5258  -0.5204  -0.5138  -0.4929  -0.4528  -0.4456  -0.4359
 -0.3502  -0.3382  -0.3198  -0.2562

          Ground-State Mulliken Net Atomic Charges

     Atom                 Charge (a.u.)
  ----------------------------------------
      1 C                    -0.068009
      2 C                    -0.345969
      3 C                    -0.035730
      4 H                     0.176420
      5 C                     0.076459
      6 S                    -0.220895
      7 C                    -0.275834
      8 H                     0.107968
      9 H                     0.107362
     10 H                     0.117904
     11 C                    -0.156222
     12 C                    -0.143875
     13 C                    -0.014947
     14 H                     0.193065
     15 C                    -0.211082
     16 S                     0.050033
     17 C                    -0.266914
     18 H                     0.103816
     19 H                     0.108276
     20 H                     0.103511
     21 H                     0.202764
     22 H                     0.106481
     23 H                     0.108577
     24 H                     0.176838
  ----------------------------------------
  Sum of atomic charges =     0.000000

                    Cartesian Multipole Moments
 -----------------------------------------------------------------
    Charge (ESU x 10^10)
                -0.0000
    Dipole Moment (Debye)
         X       5.0707      Y       0.6452      Z       0.1733
       Tot       5.1146
    Quadrupole Moments (Debye-Ang)
        XX     -83.3465     XY       1.5884     YY     -85.0069
        XZ       0.4628     YZ       2.0480     ZZ     -84.2536

 Total job time:  63.24s(wall), 2210.74s(cpu)
        *  Thank you very much for using Q-Chem.  Have a nice day.  *
