 Q-Chem 5.4, Q-Chem, Inc., Pleasanton, CA (2021)
 Q-Chem 5.4.0 for Intel X86 EM64T Linux

User input:
--------------------------------------------------------------
$molecule
0 1
C	0.466510	-3.887800	-0.554267
C	-0.424173	-3.701456	0.507121
C	-0.697244	-2.345170	0.831575
H	-0.877789	-4.545233	1.048337
C	0.000000	-1.450135	0.000000
S	0.982150	-2.321334	-1.169911
C	-1.627024	-1.934439	1.939374
H	-2.054010	-2.819799	2.448894
H	-2.475299	-1.326210	1.561545
H	-1.108051	-1.325374	2.708773
C	0.000000	0.000000	0.000000
C	0.285976	0.794723	1.113020
C	0.757308	2.103412	0.820578
H	0.154498	0.429575	2.142881
C	0.841565	2.336821	-0.563588
S	0.328498	0.913334	-1.464748
C	1.118059	3.105040	1.882380
H	0.966197	2.683616	2.894974
H	0.500773	4.024668	1.808137
H	2.180000	3.419766	1.808230
H	1.166129	3.238200	-1.097114
H	-0.005807	-4.420219	-1.387431
H	1.369415	-4.419395	-0.233510
H	-0.827337	-1.450628	-0.694200
$end

$rem
JOBTYPE		SP
EXCHANGE	HF
CORRELATION	pRIMP2
BASIS		cc-pvtz
METHOD		rimp2
AUX_BASIS	rimp2-cc-pvtz
SOLVENT_METHOD	PCM
PURECART	11111
SYMMETRY	false
MEM_TOTAL	110000
SCF_CONVERGENCE = 6
THRESH=10
GUI = 2
$end

$solvent
dielectric 4.90
$end
--------------------------------------------------------------

             Standard Nuclear Orientation (Angstroms)
    I     Atom           X                Y                Z
 ----------------------------------------------------------------
    1      C       0.4665100000    -3.8878000000    -0.5542670000
    2      C      -0.4241730000    -3.7014560000     0.5071210000
    3      C      -0.6972440000    -2.3451700000     0.8315750000
    4      H      -0.8777890000    -4.5452330000     1.0483370000
    5      C       0.0000000000    -1.4501350000     0.0000000000
    6      S       0.9821500000    -2.3213340000    -1.1699110000
    7      C      -1.6270240000    -1.9344390000     1.9393740000
    8      H      -2.0540100000    -2.8197990000     2.4488940000
    9      H      -2.4752990000    -1.3262100000     1.5615450000
   10      H      -1.1080510000    -1.3253740000     2.7087730000
   11      C       0.0000000000     0.0000000000     0.0000000000
   12      C       0.2859760000     0.7947230000     1.1130200000
   13      C       0.7573080000     2.1034120000     0.8205780000
   14      H       0.1544980000     0.4295750000     2.1428810000
   15      C       0.8415650000     2.3368210000    -0.5635880000
   16      S       0.3284980000     0.9133340000    -1.4647480000
   17      C       1.1180590000     3.1050400000     1.8823800000
   18      H       0.9661970000     2.6836160000     2.8949740000
   19      H       0.5007730000     4.0246680000     1.8081370000
   20      H       2.1800000000     3.4197660000     1.8082300000
   21      H       1.1661290000     3.2382000000    -1.0971140000
   22      H      -0.0058070000    -4.4202190000    -1.3874310000
   23      H       1.3694150000    -4.4193950000    -0.2335100000
   24      H      -0.8273370000    -1.4506280000    -0.6942000000
 ----------------------------------------------------------------

   10   -1180.7507407518      5.14e-07  Convergence criterion met
 Total energy in the final basis set =    -1180.7507407518
        RIMP2         total energy =     -1182.7572631966 a.u.

                    Orbital Energies (a.u.)
 --------------------------------------------------------------

 Alpha MOs
 -- Occupied --
-91.9848 -91.9439 -11.2816 -11.2639 -11.2628 -11.2567 -11.2507 -11.2421
-11.2359 -11.2327 -11.2287 -11.2203  -8.9845  -8.9485  -6.6654  -6.6649
 -6.6643  -6.6298  -6.6288  -6.6275  -1.1989  -1.1534  -1.0577  -1.0293
 -1.0007  -0.9633  -0.9133  -0.9006  -0.8154  -0.7592  -0.7391  -0.7035
 -0.6538  -0.6387  -0.6108  -0.5908  -0.5818  -0.5682  -0.5664  -0.5532
 -0.5443  -0.5322  -0.5162  -0.5046  -0.4897  -0.4795  -0.4658  -0.4475
 -0.3563  -0.3425  -0.3225  -0.2682

          Ground-State Mulliken Net Atomic Charges

     Atom                 Charge (a.u.)
  ----------------------------------------
      1 C                    -0.076196
      2 C                    -0.325839
      3 C                    -0.036796
      4 H                     0.177521
      5 C                     0.098426
      6 S                    -0.172271
      7 C                    -0.280847
      8 H                     0.115968
      9 H                     0.107860
     10 H                     0.103310
     11 C                    -0.098206
     12 C                    -0.219134
     13 C                     0.013644
     14 H                     0.192085
     15 C                    -0.236783
     16 S                    -0.000250
     17 C                    -0.273291
     18 H                     0.101295
     19 H                     0.108033
     20 H                     0.108505
     21 H                     0.198437
     22 H                     0.110217
     23 H                     0.113657
     24 H                     0.170656
  ----------------------------------------
  Sum of atomic charges =     0.000000

                    Cartesian Multipole Moments
 -----------------------------------------------------------------
    Charge (ESU x 10^10)
                -0.0000
    Dipole Moment (Debye)
         X      -1.5657      Y       0.2952      Z       2.7417
       Tot       3.1710
    Quadrupole Moments (Debye-Ang)
        XX     -90.7993     XY       6.8309     YY     -74.5484
        XZ       0.2540     YZ      -0.8284     ZZ     -85.5448

 Total job time:  67.91s(wall), 2566.87s(cpu)
        *  Thank you very much for using Q-Chem.  Have a nice day.  *
