 Q-Chem 5.4, Q-Chem, Inc., Pleasanton, CA (2021)
 Q-Chem 5.4.0 for Intel X86 EM64T Linux

User input:
--------------------------------------------------------------
$molecule
0 1
C	-0.724460	-3.887800	-0.001092
C	0.661131	-3.701456	-0.001036
C	1.085203	-2.345170	-0.000406
H	1.367305	-4.545233	-0.001433
C	-0.000000	-1.450135	-0.000000
S	-1.527517	-2.321334	-0.000367
C	2.531478	-1.934439	-0.000233
H	3.196254	-2.819799	-0.000656
H	2.787305	-1.326210	0.892447
H	2.787282	-1.325374	-0.892350
C	0.000000	0.000000	0.000000
C	0.540541	0.648986	1.113020
C	1.431046	1.717546	0.820578
H	0.292104	0.350827	2.142881
C	1.590053	1.908061	-0.563588
S	0.621066	0.745901	-1.464748
C	2.112618	2.535384	1.882380
H	1.825779	2.191315	2.894974
H	1.847090	3.610676	1.808137
H	3.218159	2.467925	1.808230
H	2.203332	2.644073	-1.097114
H	-1.059101	-4.420219	0.896272
H	-1.059122	-4.419395	-0.898936
H	0.000014	-1.450628	1.080000
$end

$rem
JOBTYPE		SP
EXCHANGE	HF
CORRELATION	pRIMP2
BASIS		cc-pvtz
METHOD		rimp2
AUX_BASIS	rimp2-cc-pvtz
SOLVENT_METHOD	PCM
PURECART	11111
SYMMETRY	false
MEM_TOTAL	110000
SCF_CONVERGENCE = 6
THRESH=10
GUI = 2
$end

$solvent
dielectric 4.90
$end
--------------------------------------------------------------

             Standard Nuclear Orientation (Angstroms)
    I     Atom           X                Y                Z
 ----------------------------------------------------------------
    1      C      -0.7244600000    -3.8878000000    -0.0010920000
    2      C       0.6611310000    -3.7014560000    -0.0010360000
    3      C       1.0852030000    -2.3451700000    -0.0004060000
    4      H       1.3673050000    -4.5452330000    -0.0014330000
    5      C       0.0000000000    -1.4501350000     0.0000000000
    6      S      -1.5275170000    -2.3213340000    -0.0003670000
    7      C       2.5314780000    -1.9344390000    -0.0002330000
    8      H       3.1962540000    -2.8197990000    -0.0006560000
    9      H       2.7873050000    -1.3262100000     0.8924470000
   10      H       2.7872820000    -1.3253740000    -0.8923500000
   11      C       0.0000000000     0.0000000000     0.0000000000
   12      C       0.5405410000     0.6489860000     1.1130200000
   13      C       1.4310460000     1.7175460000     0.8205780000
   14      H       0.2921040000     0.3508270000     2.1428810000
   15      C       1.5900530000     1.9080610000    -0.5635880000
   16      S       0.6210660000     0.7459010000    -1.4647480000
   17      C       2.1126180000     2.5353840000     1.8823800000
   18      H       1.8257790000     2.1913150000     2.8949740000
   19      H       1.8470900000     3.6106760000     1.8081370000
   20      H       3.2181590000     2.4679250000     1.8082300000
   21      H       2.2033320000     2.6440730000    -1.0971140000
   22      H      -1.0591010000    -4.4202190000     0.8962720000
   23      H      -1.0591220000    -4.4193950000    -0.8989360000
   24      H       0.0000140000    -1.4506280000     1.0800000000
 ----------------------------------------------------------------

   10   -1180.7323993084      6.93e-07  Convergence criterion met
 Total energy in the final basis set =    -1180.7323993084
        RIMP2         total energy =     -1182.7460441088 a.u.

                    Orbital Energies (a.u.)
 --------------------------------------------------------------

 Alpha MOs
 -- Occupied --
-91.9802 -91.9348 -11.2764 -11.2691 -11.2605 -11.2532 -11.2522 -11.2521
-11.2379 -11.2312 -11.2291 -11.2172  -8.9805  -8.9398  -6.6614  -6.6607
 -6.6603  -6.6211  -6.6201  -6.6189  -1.1994  -1.1544  -1.0573  -1.0228
 -1.0072  -0.9609  -0.9102  -0.9024  -0.8099  -0.7601  -0.7404  -0.7025
 -0.6579  -0.6382  -0.6115  -0.5905  -0.5804  -0.5732  -0.5660  -0.5506
 -0.5412  -0.5264  -0.5205  -0.5033  -0.4928  -0.4669  -0.4588  -0.4445
 -0.3522  -0.3434  -0.3156  -0.2767

          Ground-State Mulliken Net Atomic Charges

     Atom                 Charge (a.u.)
  ----------------------------------------
      1 C                    -0.073777
      2 C                    -0.328184
      3 C                    -0.025659
      4 H                     0.176312
      5 C                     0.069023
      6 S                    -0.201787
      7 C                    -0.285200
      8 H                     0.119967
      9 H                     0.103629
     10 H                     0.112590
     11 C                    -0.068553
     12 C                    -0.245808
     13 C                     0.039696
     14 H                     0.184331
     15 C                    -0.214843
     16 S                     0.005751
     17 C                    -0.268540
     18 H                     0.102894
     19 H                     0.109854
     20 H                     0.106861
     21 H                     0.199413
     22 H                     0.107096
     23 H                     0.108324
     24 H                     0.166610
  ----------------------------------------
  Sum of atomic charges =     0.000000

                    Cartesian Multipole Moments
 -----------------------------------------------------------------
    Charge (ESU x 10^10)
                -0.0000
    Dipole Moment (Debye)
         X       4.1021      Y       0.9881      Z       2.4312
       Tot       4.8698
    Quadrupole Moments (Debye-Ang)
        XX     -87.3542     XY       1.6811     YY     -79.0231
        XZ       0.3368     YZ      -0.4486     ZZ     -85.7342

 Total job time:  56.24s(wall), 1957.25s(cpu)
        *  Thank you very much for using Q-Chem.  Have a nice day.  *
