 Q-Chem 5.4, Q-Chem, Inc., Pleasanton, CA (2021)
 Q-Chem 5.4.0 for Intel X86 EM64T Linux

User input:
--------------------------------------------------------------
$molecule
0 1
C	0.713644	-3.887800	-0.124726
C	-0.650907	-3.701456	0.115824
C	-1.068646	-2.345170	0.188844
H	-1.346284	-4.545233	0.238841
C	0.000000	-1.450135	0.000000
S	1.504375	-2.321334	-0.264890
C	-2.492978	-1.934439	0.439816
H	-3.147582	-2.819799	0.555669
H	-2.899931	-1.326210	-0.394879
H	-2.589982	-1.325374	1.362799
C	0.000000	0.000000	0.000000
C	0.645024	0.545262	1.113020
C	1.707554	1.442954	0.820578
H	0.348587	0.294774	2.142881
C	1.897227	1.602964	-0.563588
S	0.741155	0.626722	-1.464748
C	2.520787	2.130014	1.882380
H	2.178559	1.840981	2.894974
H	2.446016	3.235078	1.808137
H	3.597818	1.871604	1.808230
H	2.628997	2.221299	-1.097114
H	0.887375	-4.420219	-1.066566
H	1.199130	-4.419395	0.701364
H	-0.187554	-1.450628	-1.063590
$end

$rem
JOBTYPE		SP
EXCHANGE	HF
CORRELATION	pRIMP2
BASIS		cc-pvtz
METHOD		rimp2
AUX_BASIS	rimp2-cc-pvtz
SOLVENT_METHOD	PCM
PURECART	11111
SYMMETRY	false
MEM_TOTAL	110000
SCF_CONVERGENCE = 6
THRESH=10
GUI = 2
$end

$solvent
dielectric 4.90
$end
--------------------------------------------------------------

             Standard Nuclear Orientation (Angstroms)
    I     Atom           X                Y                Z
 ----------------------------------------------------------------
    1      C       0.7136440000    -3.8878000000    -0.1247260000
    2      C      -0.6509070000    -3.7014560000     0.1158240000
    3      C      -1.0686460000    -2.3451700000     0.1888440000
    4      H      -1.3462840000    -4.5452330000     0.2388410000
    5      C       0.0000000000    -1.4501350000     0.0000000000
    6      S       1.5043750000    -2.3213340000    -0.2648900000
    7      C      -2.4929780000    -1.9344390000     0.4398160000
    8      H      -3.1475820000    -2.8197990000     0.5556690000
    9      H      -2.8999310000    -1.3262100000    -0.3948790000
   10      H      -2.5899820000    -1.3253740000     1.3627990000
   11      C       0.0000000000     0.0000000000     0.0000000000
   12      C       0.6450240000     0.5452620000     1.1130200000
   13      C       1.7075540000     1.4429540000     0.8205780000
   14      H       0.3485870000     0.2947740000     2.1428810000
   15      C       1.8972270000     1.6029640000    -0.5635880000
   16      S       0.7411550000     0.6267220000    -1.4647480000
   17      C       2.5207870000     2.1300140000     1.8823800000
   18      H       2.1785590000     1.8409810000     2.8949740000
   19      H       2.4460160000     3.2350780000     1.8081370000
   20      H       3.5978180000     1.8716040000     1.8082300000
   21      H       2.6289970000     2.2212990000    -1.0971140000
   22      H       0.8873750000    -4.4202190000    -1.0665660000
   23      H       1.1991300000    -4.4193950000     0.7013640000
   24      H      -0.1875540000    -1.4506280000    -1.0635900000
 ----------------------------------------------------------------

   10   -1180.7123489574      7.23e-07  Convergence criterion met
 Total energy in the final basis set =    -1180.7123489574
        RIMP2         total energy =     -1182.7275676045 a.u.

                    Orbital Energies (a.u.)
 --------------------------------------------------------------

 Alpha MOs
 -- Occupied --
-91.9823 -91.9351 -11.2828 -11.2567 -11.2565 -11.2528 -11.2514 -11.2502
-11.2375 -11.2296 -11.2291 -11.2125  -8.9828  -8.9401  -6.6637  -6.6629
 -6.6625  -6.6214  -6.6204  -6.6192  -1.2002  -1.1537  -1.0569  -1.0249
 -1.0000  -0.9640  -0.9098  -0.9009  -0.8085  -0.7589  -0.7459  -0.7031
 -0.6498  -0.6280  -0.6141  -0.5866  -0.5785  -0.5744  -0.5654  -0.5508
 -0.5408  -0.5315  -0.5060  -0.5052  -0.4898  -0.4682  -0.4613  -0.4453
 -0.3595  -0.3310  -0.3144  -0.2765

          Ground-State Mulliken Net Atomic Charges

     Atom                 Charge (a.u.)
  ----------------------------------------
      1 C                    -0.077471
      2 C                    -0.330859
      3 C                    -0.055321
      4 H                     0.174131
      5 C                     0.056567
      6 S                    -0.183807
      7 C                    -0.271859
      8 H                     0.112124
      9 H                     0.102855
     10 H                     0.103404
     11 C                    -0.135830
     12 C                    -0.137698
     13 C                     0.000616
     14 H                     0.184429
     15 C                    -0.188815
     16 S                     0.017647
     17 C                    -0.268653
     18 H                     0.102832
     19 H                     0.107591
     20 H                     0.107067
     21 H                     0.201601
     22 H                     0.106753
     23 H                     0.110095
     24 H                     0.162602
  ----------------------------------------
  Sum of atomic charges =     0.000000

                    Cartesian Multipole Moments
 -----------------------------------------------------------------
    Charge (ESU x 10^10)
                -0.0000
    Dipole Moment (Debye)
         X      -0.2911      Y       1.1045      Z       1.3378
       Tot       1.7591
    Quadrupole Moments (Debye-Ang)
        XX     -84.9255     XY      10.0056     YY     -81.6284
        XZ       0.2774     YZ       1.2999     ZZ     -85.2165

 Total job time:  56.73s(wall), 2002.54s(cpu)
        *  Thank you very much for using Q-Chem.  Have a nice day.  *
