 Q-Chem 5.4, Q-Chem, Inc., Pleasanton, CA (2021)
 Q-Chem 5.4.0 for Intel X86 EM64T Linux

User input:
--------------------------------------------------------------
$molecule
0 1
C	0.248806	-3.887800	-0.680396
C	-0.225147	-3.701456	0.621614
C	-0.370780	-2.345170	1.019896
H	-0.466300	-4.545233	1.285337
C	-0.000000	-1.450135	-0.000000
S	0.522786	-2.321334	-1.435271
C	-0.865597	-1.934439	2.378891
H	-1.092567	-2.819799	3.003720
H	-1.791940	-1.326210	2.313975
H	-0.114772	-1.325374	2.924390
C	0.000000	0.000000	0.000000
C	0.540541	0.648986	1.113020
C	1.431046	1.717546	0.820578
H	0.292104	0.350827	2.142881
C	1.590053	1.908061	-0.563588
S	0.621066	0.745901	-1.464748
C	2.112618	2.535384	1.882380
H	1.825779	2.191315	2.894974
H	1.847090	3.610676	1.808137
H	3.218159	2.467925	1.808230
H	2.203332	2.644073	-1.097114
H	-0.479986	-4.420219	-1.301772
H	1.206964	-4.419395	-0.687795
H	-1.014873	-1.450628	-0.369368
$end

$rem
JOBTYPE		SP
EXCHANGE	HF
CORRELATION	pRIMP2
BASIS		cc-pvtz
METHOD		rimp2
AUX_BASIS	rimp2-cc-pvtz
SOLVENT_METHOD	PCM
PURECART	11111
SYMMETRY	false
MEM_TOTAL	110000
SCF_CONVERGENCE = 6
THRESH=10
GUI = 2
$end

$solvent
dielectric 4.90
$end
--------------------------------------------------------------

             Standard Nuclear Orientation (Angstroms)
    I     Atom           X                Y                Z
 ----------------------------------------------------------------
    1      C       0.2488060000    -3.8878000000    -0.6803960000
    2      C      -0.2251470000    -3.7014560000     0.6216140000
    3      C      -0.3707800000    -2.3451700000     1.0198960000
    4      H      -0.4663000000    -4.5452330000     1.2853370000
    5      C       0.0000000000    -1.4501350000     0.0000000000
    6      S       0.5227860000    -2.3213340000    -1.4352710000
    7      C      -0.8655970000    -1.9344390000     2.3788910000
    8      H      -1.0925670000    -2.8197990000     3.0037200000
    9      H      -1.7919400000    -1.3262100000     2.3139750000
   10      H      -0.1147720000    -1.3253740000     2.9243900000
   11      C       0.0000000000     0.0000000000     0.0000000000
   12      C       0.5405410000     0.6489860000     1.1130200000
   13      C       1.4310460000     1.7175460000     0.8205780000
   14      H       0.2921040000     0.3508270000     2.1428810000
   15      C       1.5900530000     1.9080610000    -0.5635880000
   16      S       0.6210660000     0.7459010000    -1.4647480000
   17      C       2.1126180000     2.5353840000     1.8823800000
   18      H       1.8257790000     2.1913150000     2.8949740000
   19      H       1.8470900000     3.6106760000     1.8081370000
   20      H       3.2181590000     2.4679250000     1.8082300000
   21      H       2.2033320000     2.6440730000    -1.0971140000
   22      H      -0.4799860000    -4.4202190000    -1.3017720000
   23      H       1.2069640000    -4.4193950000    -0.6877950000
   24      H      -1.0148730000    -1.4506280000    -0.3693680000
 ----------------------------------------------------------------

   10   -1180.7162821335      7.52e-07  Convergence criterion met
 Total energy in the final basis set =    -1180.7162821335
        RIMP2         total energy =     -1182.7324785077 a.u.

                    Orbital Energies (a.u.)
 --------------------------------------------------------------

 Alpha MOs
 -- Occupied --
-91.9824 -91.9429 -11.2730 -11.2678 -11.2628 -11.2527 -11.2509 -11.2402
-11.2401 -11.2329 -11.2290 -11.2175  -8.9826  -8.9474  -6.6635  -6.6628
 -6.6623  -6.6287  -6.6277  -6.6264  -1.2000  -1.1532  -1.0570  -1.0309
 -0.9988  -0.9643  -0.9132  -0.9007  -0.8145  -0.7586  -0.7353  -0.7068
 -0.6518  -0.6404  -0.6107  -0.5936  -0.5852  -0.5679  -0.5661  -0.5498
 -0.5445  -0.5335  -0.5194  -0.5043  -0.4845  -0.4744  -0.4639  -0.4403
 -0.3583  -0.3413  -0.3239  -0.2587

          Ground-State Mulliken Net Atomic Charges

     Atom                 Charge (a.u.)
  ----------------------------------------
      1 C                    -0.079075
      2 C                    -0.327896
      3 C                    -0.040199
      4 H                     0.176617
      5 C                     0.083987
      6 S                    -0.177633
      7 C                    -0.295940
      8 H                     0.119927
      9 H                     0.112018
     10 H                     0.100249
     11 C                    -0.085473
     12 C                    -0.220550
     13 C                     0.018553
     14 H                     0.195230
     15 C                    -0.230942
     16 S                     0.008433
     17 C                    -0.270250
     18 H                     0.100585
     19 H                     0.108294
     20 H                     0.107183
     21 H                     0.199699
     22 H                     0.108967
     23 H                     0.111854
     24 H                     0.176361
  ----------------------------------------
  Sum of atomic charges =     0.000000

                    Cartesian Multipole Moments
 -----------------------------------------------------------------
    Charge (ESU x 10^10)
                -0.0000
    Dipole Moment (Debye)
         X      -0.2402      Y       0.3647      Z       3.4080
       Tot       3.4358
    Quadrupole Moments (Debye-Ang)
        XX     -87.4031     XY       7.9398     YY     -78.5239
        XZ       0.6535     YZ      -2.0585     ZZ     -85.3149

 Total job time:  55.29s(wall), 1969.13s(cpu)
        *  Thank you very much for using Q-Chem.  Have a nice day.  *
