 Q-Chem 5.4, Q-Chem, Inc., Pleasanton, CA (2021)
 Q-Chem 5.4.0 for Intel X86 EM64T Linux

User input:
--------------------------------------------------------------
$molecule
0 1
C	0.124726	-3.887800	0.713644
C	-0.115824	-3.701456	-0.650907
C	-0.188844	-2.345170	-1.068646
H	-0.238841	-4.545233	-1.346284
C	-0.000000	-1.450135	-0.000000
S	0.264890	-2.321334	1.504375
C	-0.439816	-1.934439	-2.492978
H	-0.555669	-2.819799	-3.147582
H	0.394879	-1.326210	-2.899931
H	-1.362799	-1.325374	-2.589982
C	0.000000	0.000000	0.000000
C	0.070542	0.841660	1.113020
C	0.187101	2.227746	0.820578
H	0.038051	0.454925	2.142881
C	0.208076	2.475009	-0.563588
S	0.080917	0.967235	-1.464748
C	0.276318	3.288613	1.882380
H	0.238704	2.842244	2.894974
H	-0.557951	4.017140	1.808137
H	1.220618	3.867466	1.808230
H	0.288286	3.429678	-1.097114
H	1.066566	-4.420219	0.887375
H	-0.701364	-4.419395	1.199130
H	1.063590	-1.450628	-0.187554
$end

$rem
JOBTYPE		SP
EXCHANGE	HF
CORRELATION	pRIMP2
BASIS		cc-pvtz
METHOD		rimp2
AUX_BASIS	rimp2-cc-pvtz
SOLVENT_METHOD	PCM
PURECART	11111
SYMMETRY	false
MEM_TOTAL	110000
SCF_CONVERGENCE = 6
THRESH=10
GUI = 2
$end

$solvent
dielectric 4.90
$end
--------------------------------------------------------------

             Standard Nuclear Orientation (Angstroms)
    I     Atom           X                Y                Z
 ----------------------------------------------------------------
    1      C       0.1247260000    -3.8878000000     0.7136440000
    2      C      -0.1158240000    -3.7014560000    -0.6509070000
    3      C      -0.1888440000    -2.3451700000    -1.0686460000
    4      H      -0.2388410000    -4.5452330000    -1.3462840000
    5      C       0.0000000000    -1.4501350000     0.0000000000
    6      S       0.2648900000    -2.3213340000     1.5043750000
    7      C      -0.4398160000    -1.9344390000    -2.4929780000
    8      H      -0.5556690000    -2.8197990000    -3.1475820000
    9      H       0.3948790000    -1.3262100000    -2.8999310000
   10      H      -1.3627990000    -1.3253740000    -2.5899820000
   11      C       0.0000000000     0.0000000000     0.0000000000
   12      C       0.0705420000     0.8416600000     1.1130200000
   13      C       0.1871010000     2.2277460000     0.8205780000
   14      H       0.0380510000     0.4549250000     2.1428810000
   15      C       0.2080760000     2.4750090000    -0.5635880000
   16      S       0.0809170000     0.9672350000    -1.4647480000
   17      C       0.2763180000     3.2886130000     1.8823800000
   18      H       0.2387040000     2.8422440000     2.8949740000
   19      H      -0.5579510000     4.0171400000     1.8081370000
   20      H       1.2206180000     3.8674660000     1.8082300000
   21      H       0.2882860000     3.4296780000    -1.0971140000
   22      H       1.0665660000    -4.4202190000     0.8873750000
   23      H      -0.7013640000    -4.4193950000     1.1991300000
   24      H       1.0635900000    -1.4506280000    -0.1875540000
 ----------------------------------------------------------------

   10   -1180.7608419517      5.02e-07  Convergence criterion met
 Total energy in the final basis set =    -1180.7608419517
        RIMP2         total energy =     -1182.7656161718 a.u.

                    Orbital Energies (a.u.)
 --------------------------------------------------------------

 Alpha MOs
 -- Occupied --
-91.9818 -91.9477 -11.2910 -11.2656 -11.2633 -11.2537 -11.2499 -11.2449
-11.2329 -11.2298 -11.2275 -11.2234  -8.9819  -8.9521  -6.6628  -6.6623
 -6.6615  -6.6335  -6.6325  -6.6312  -1.2021  -1.1525  -1.0602  -1.0283
 -1.0067  -0.9567  -0.9167  -0.9017  -0.8146  -0.7718  -0.7177  -0.7049
 -0.6590  -0.6483  -0.6114  -0.5926  -0.5814  -0.5716  -0.5685  -0.5536
 -0.5420  -0.5337  -0.5159  -0.5087  -0.4888  -0.4875  -0.4584  -0.4461
 -0.3595  -0.3419  -0.3270  -0.2661

          Ground-State Mulliken Net Atomic Charges

     Atom                 Charge (a.u.)
  ----------------------------------------
      1 C                    -0.072909
      2 C                    -0.315742
      3 C                    -0.061394
      4 H                     0.179989
      5 C                     0.155257
      6 S                    -0.184339
      7 C                    -0.309809
      8 H                     0.121916
      9 H                     0.107488
     10 H                     0.119446
     11 C                    -0.027616
     12 C                    -0.318639
     13 C                     0.047070
     14 H                     0.177076
     15 C                    -0.281893
     16 S                     0.006488
     17 C                    -0.272277
     18 H                     0.102829
     19 H                     0.108203
     20 H                     0.108714
     21 H                     0.196820
     22 H                     0.112343
     23 H                     0.112691
     24 H                     0.188289
  ----------------------------------------
  Sum of atomic charges =     0.000000

                    Cartesian Multipole Moments
 -----------------------------------------------------------------
    Charge (ESU x 10^10)
                -0.0000
    Dipole Moment (Debye)
         X       0.5325      Y      -0.4892      Z      -1.1800
       Tot       1.3839
    Quadrupole Moments (Debye-Ang)
        XX     -91.6304     XY      -0.0272     YY     -72.9976
        XZ       0.5197     YZ       5.1227     ZZ     -85.6308

 Total job time:  59.95s(wall), 2287.59s(cpu)
        *  Thank you very much for using Q-Chem.  Have a nice day.  *
