 Q-Chem 5.4, Q-Chem, Inc., Pleasanton, CA (2021)
 Q-Chem 5.4.0 for Intel X86 EM64T Linux

User input:
--------------------------------------------------------------
$molecule
0 1
C	0.464838	-3.887800	0.555670
C	-0.425760	-3.701456	-0.505790
C	-0.697866	-2.345170	-0.831053
H	-0.879984	-4.545233	-1.046496
C	0.000000	-1.450135	0.000000
S	0.981588	-2.321334	1.170382
C	-1.627381	-1.934439	-1.939074
H	-2.055015	-2.819799	-2.448051
H	-1.107991	-1.326210	-2.708853
H	-2.475210	-1.325374	-1.561590
C	0.000000	0.000000	0.000000
C	0.729909	0.424971	1.113020
C	1.932179	1.124518	0.820578
H	0.394478	0.229765	2.142881
C	2.146756	1.249161	-0.563588
S	0.838724	0.488500	-1.464748
C	2.852364	1.659924	1.882380
H	2.465145	1.434710	2.894974
H	2.970621	2.761183	1.808137
H	3.868160	1.218416	1.808230
H	2.974781	1.731032	-1.097114
H	1.367361	-4.420219	0.235206
H	-0.007834	-4.419395	1.389159
H	0.827319	-1.450628	-0.694221
$end

$rem
JOBTYPE		SP
EXCHANGE	HF
CORRELATION	pRIMP2
BASIS		cc-pvtz
METHOD		rimp2
AUX_BASIS	rimp2-cc-pvtz
SOLVENT_METHOD	PCM
PURECART	11111
SYMMETRY	false
MEM_TOTAL	110000
SCF_CONVERGENCE = 6
THRESH=10
GUI = 2
$end

$solvent
dielectric 4.90
$end
--------------------------------------------------------------

             Standard Nuclear Orientation (Angstroms)
    I     Atom           X                Y                Z
 ----------------------------------------------------------------
    1      C       0.4648380000    -3.8878000000     0.5556700000
    2      C      -0.4257600000    -3.7014560000    -0.5057900000
    3      C      -0.6978660000    -2.3451700000    -0.8310530000
    4      H      -0.8799840000    -4.5452330000    -1.0464960000
    5      C       0.0000000000    -1.4501350000     0.0000000000
    6      S       0.9815880000    -2.3213340000     1.1703820000
    7      C      -1.6273810000    -1.9344390000    -1.9390740000
    8      H      -2.0550150000    -2.8197990000    -2.4480510000
    9      H      -1.1079910000    -1.3262100000    -2.7088530000
   10      H      -2.4752100000    -1.3253740000    -1.5615900000
   11      C       0.0000000000     0.0000000000     0.0000000000
   12      C       0.7299090000     0.4249710000     1.1130200000
   13      C       1.9321790000     1.1245180000     0.8205780000
   14      H       0.3944780000     0.2297650000     2.1428810000
   15      C       2.1467560000     1.2491610000    -0.5635880000
   16      S       0.8387240000     0.4885000000    -1.4647480000
   17      C       2.8523640000     1.6599240000     1.8823800000
   18      H       2.4651450000     1.4347100000     2.8949740000
   19      H       2.9706210000     2.7611830000     1.8081370000
   20      H       3.8681600000     1.2184160000     1.8082300000
   21      H       2.9747810000     1.7310320000    -1.0971140000
   22      H       1.3673610000    -4.4202190000     0.2352060000
   23      H      -0.0078340000    -4.4193950000     1.3891590000
   24      H       0.8273190000    -1.4506280000    -0.6942210000
 ----------------------------------------------------------------

   10   -1180.6800145194      9.23e-07  Convergence criterion met
 Total energy in the final basis set =    -1180.6800145194
        RIMP2         total energy =     -1182.7026063757 a.u.

                    Orbital Energies (a.u.)
 --------------------------------------------------------------

 Alpha MOs
 -- Occupied --
-91.9745 -91.9389 -11.2846 -11.2611 -11.2582 -11.2537 -11.2536 -11.2483
-11.2370 -11.2304 -11.2300 -11.2144  -8.9767  -8.9435  -6.6575  -6.6566
 -6.6563  -6.6249  -6.6238  -6.6225  -1.2101  -1.1533  -1.0608  -1.0251
 -1.0061  -0.9592  -0.9146  -0.9011  -0.8064  -0.7727  -0.7318  -0.7040
 -0.6517  -0.6388  -0.6151  -0.5893  -0.5820  -0.5750  -0.5689  -0.5505
 -0.5415  -0.5360  -0.5159  -0.5071  -0.4880  -0.4631  -0.4599  -0.4367
 -0.3560  -0.3440  -0.3276  -0.2562

          Ground-State Mulliken Net Atomic Charges

     Atom                 Charge (a.u.)
  ----------------------------------------
      1 C                    -0.087932
      2 C                    -0.320524
      3 C                    -0.080217
      4 H                     0.174176
      5 C                     0.109821
      6 S                    -0.196487
      7 C                    -0.283397
      8 H                     0.115003
      9 H                     0.105051
     10 H                     0.108664
     11 C                    -0.120440
     12 C                    -0.164335
     13 C                    -0.000274
     14 H                     0.195156
     15 C                    -0.187365
     16 S                    -0.008026
     17 C                    -0.268619
     18 H                     0.104452
     19 H                     0.111078
     20 H                     0.108164
     21 H                     0.201897
     22 H                     0.107647
     23 H                     0.107169
     24 H                     0.169338
  ----------------------------------------
  Sum of atomic charges =     0.000000

                    Cartesian Multipole Moments
 -----------------------------------------------------------------
    Charge (ESU x 10^10)
                -0.0000
    Dipole Moment (Debye)
         X       1.5189      Y       0.4942      Z      -0.3671
       Tot       1.6389
    Quadrupole Moments (Debye-Ang)
        XX     -82.0233     XY       6.7983     YY     -83.3659
        XZ       0.9736     YZ       4.6486     ZZ     -85.7401

 Total job time:  56.14s(wall), 1981.13s(cpu)
        *  Thank you very much for using Q-Chem.  Have a nice day.  *
