 Q-Chem 5.4, Q-Chem, Inc., Pleasanton, CA (2021)
 Q-Chem 5.4.0 for Intel X86 EM64T Linux

User input:
--------------------------------------------------------------
$molecule
0 1
C	-0.626855	-3.887800	-0.363176
C	0.573074	-3.701456	0.329669
C	0.940016	-2.345170	0.542250
H	1.184837	-4.545233	0.682412
C	0.000000	-1.450135	0.000000
S	-1.322686	-2.321334	-0.764076
C	2.192440	-1.934439	1.265537
H	2.768365	-2.819799	1.597559
H	1.967653	-1.326210	2.166534
H	2.860032	-1.325374	0.620843
C	0.000000	0.000000	0.000000
C	0.645024	0.545262	1.113020
C	1.707554	1.442954	0.820578
H	0.348587	0.294774	2.142881
C	1.897227	1.602964	-0.563588
S	0.741155	0.626722	-1.464748
C	2.520787	2.130014	1.882380
H	2.178559	1.840981	2.894974
H	2.446016	3.235078	1.808137
H	3.597818	1.871604	1.808230
H	2.628997	2.221299	-1.097114
H	-1.365344	-4.420219	0.246643
H	-0.467758	-4.419395	-1.308062
H	-0.539988	-1.450628	0.935314
$end

$rem
JOBTYPE		SP
EXCHANGE	HF
CORRELATION	pRIMP2
BASIS		cc-pvtz
METHOD		rimp2
AUX_BASIS	rimp2-cc-pvtz
SOLVENT_METHOD	PCM
PURECART	11111
SYMMETRY	false
MEM_TOTAL	110000
SCF_CONVERGENCE = 6
THRESH=10
GUI = 2
$end

$solvent
dielectric 4.90
$end
--------------------------------------------------------------

             Standard Nuclear Orientation (Angstroms)
    I     Atom           X                Y                Z
 ----------------------------------------------------------------
    1      C      -0.6268550000    -3.8878000000    -0.3631760000
    2      C       0.5730740000    -3.7014560000     0.3296690000
    3      C       0.9400160000    -2.3451700000     0.5422500000
    4      H       1.1848370000    -4.5452330000     0.6824120000
    5      C       0.0000000000    -1.4501350000     0.0000000000
    6      S      -1.3226860000    -2.3213340000    -0.7640760000
    7      C       2.1924400000    -1.9344390000     1.2655370000
    8      H       2.7683650000    -2.8197990000     1.5975590000
    9      H       1.9676530000    -1.3262100000     2.1665340000
   10      H       2.8600320000    -1.3253740000     0.6208430000
   11      C       0.0000000000     0.0000000000     0.0000000000
   12      C       0.6450240000     0.5452620000     1.1130200000
   13      C       1.7075540000     1.4429540000     0.8205780000
   14      H       0.3485870000     0.2947740000     2.1428810000
   15      C       1.8972270000     1.6029640000    -0.5635880000
   16      S       0.7411550000     0.6267220000    -1.4647480000
   17      C       2.5207870000     2.1300140000     1.8823800000
   18      H       2.1785590000     1.8409810000     2.8949740000
   19      H       2.4460160000     3.2350780000     1.8081370000
   20      H       3.5978180000     1.8716040000     1.8082300000
   21      H       2.6289970000     2.2212990000    -1.0971140000
   22      H      -1.3653440000    -4.4202190000     0.2466430000
   23      H      -0.4677580000    -4.4193950000    -1.3080620000
   24      H      -0.5399880000    -1.4506280000     0.9353140000
 ----------------------------------------------------------------

   10   -1180.7137571983      8.19e-07  Convergence criterion met
 Total energy in the final basis set =    -1180.7137571983
        RIMP2         total energy =     -1182.7331252264 a.u.

                    Orbital Energies (a.u.)
 --------------------------------------------------------------

 Alpha MOs
 -- Occupied --
-91.9773 -91.9354 -11.2818 -11.2610 -11.2596 -11.2574 -11.2531 -11.2522
-11.2378 -11.2318 -11.2298 -11.2167  -8.9780  -8.9402  -6.6589  -6.6581
 -6.6577  -6.6216  -6.6206  -6.6193  -1.2016  -1.1545  -1.0577  -1.0262
 -1.0035  -0.9630  -0.9113  -0.9025  -0.8096  -0.7586  -0.7401  -0.7075
 -0.6533  -0.6394  -0.6137  -0.5924  -0.5863  -0.5715  -0.5620  -0.5548
 -0.5400  -0.5280  -0.5226  -0.5085  -0.4850  -0.4645  -0.4528  -0.4437
 -0.3516  -0.3412  -0.3191  -0.2740

          Ground-State Mulliken Net Atomic Charges

     Atom                 Charge (a.u.)
  ----------------------------------------
      1 C                    -0.072000
      2 C                    -0.327311
      3 C                    -0.043280
      4 H                     0.176815
      5 C                     0.094597
      6 S                    -0.200385
      7 C                    -0.296318
      8 H                     0.121789
      9 H                     0.102340
     10 H                     0.116295
     11 C                    -0.125124
     12 C                    -0.198937
     13 C                     0.010452
     14 H                     0.194892
     15 C                    -0.190401
     16 S                     0.006463
     17 C                    -0.273708
     18 H                     0.103545
     19 H                     0.115865
     20 H                     0.107306
     21 H                     0.200796
     22 H                     0.105556
     23 H                     0.108030
     24 H                     0.162724
  ----------------------------------------
  Sum of atomic charges =     0.000000

                    Cartesian Multipole Moments
 -----------------------------------------------------------------
    Charge (ESU x 10^10)
                -0.0000
    Dipole Moment (Debye)
         X       3.9031      Y       0.8714      Z       3.7447
       Tot       5.4787
    Quadrupole Moments (Debye-Ang)
        XX     -84.5942     XY       3.3569     YY     -80.8870
        XZ       0.6707     YZ      -2.4000     ZZ     -86.0596

 Total job time:  63.15s(wall), 2204.61s(cpu)
        *  Thank you very much for using Q-Chem.  Have a nice day.  *
