 Q-Chem 5.4, Q-Chem, Inc., Pleasanton, CA (2021)
 Q-Chem 5.4.0 for Intel X86 EM64T Linux

User input:
--------------------------------------------------------------
$molecule
0 1
C	-0.554267	-3.887800	-0.466510
C	0.507121	-3.701456	0.424173
C	0.831575	-2.345170	0.697244
H	1.048337	-4.545233	0.877789
C	-0.000000	-1.450135	-0.000000
S	-1.169911	-2.321334	-0.982150
C	1.939374	-1.934439	1.627024
H	2.448894	-2.819799	2.054010
H	1.561545	-1.326210	2.475299
H	2.708773	-1.325374	1.108051
C	0.000000	0.000000	0.000000
C	0.070542	0.841660	1.113020
C	0.187101	2.227746	0.820578
H	0.038051	0.454925	2.142881
C	0.208076	2.475009	-0.563588
S	0.080917	0.967235	-1.464748
C	0.276318	3.288613	1.882380
H	0.238704	2.842244	2.894974
H	-0.557951	4.017140	1.808137
H	1.220618	3.867466	1.808230
H	0.288286	3.429678	-1.097114
H	-1.387431	-4.420219	0.005807
H	-0.233510	-4.419395	-1.369415
H	-0.694200	-1.450628	0.827337
$end

$rem
JOBTYPE		SP
EXCHANGE	HF
CORRELATION	pRIMP2
BASIS		cc-pvtz
METHOD		rimp2
AUX_BASIS	rimp2-cc-pvtz
SOLVENT_METHOD	PCM
PURECART	11111
SYMMETRY	false
MEM_TOTAL	110000
SCF_CONVERGENCE = 6
THRESH=10
GUI = 2
$end

$solvent
dielectric 4.90
$end
--------------------------------------------------------------

             Standard Nuclear Orientation (Angstroms)
    I     Atom           X                Y                Z
 ----------------------------------------------------------------
    1      C      -0.5542670000    -3.8878000000    -0.4665100000
    2      C       0.5071210000    -3.7014560000     0.4241730000
    3      C       0.8315750000    -2.3451700000     0.6972440000
    4      H       1.0483370000    -4.5452330000     0.8777890000
    5      C       0.0000000000    -1.4501350000     0.0000000000
    6      S      -1.1699110000    -2.3213340000    -0.9821500000
    7      C       1.9393740000    -1.9344390000     1.6270240000
    8      H       2.4488940000    -2.8197990000     2.0540100000
    9      H       1.5615450000    -1.3262100000     2.4752990000
   10      H       2.7087730000    -1.3253740000     1.1080510000
   11      C       0.0000000000     0.0000000000     0.0000000000
   12      C       0.0705420000     0.8416600000     1.1130200000
   13      C       0.1871010000     2.2277460000     0.8205780000
   14      H       0.0380510000     0.4549250000     2.1428810000
   15      C       0.2080760000     2.4750090000    -0.5635880000
   16      S       0.0809170000     0.9672350000    -1.4647480000
   17      C       0.2763180000     3.2886130000     1.8823800000
   18      H       0.2387040000     2.8422440000     2.8949740000
   19      H      -0.5579510000     4.0171400000     1.8081370000
   20      H       1.2206180000     3.8674660000     1.8082300000
   21      H       0.2882860000     3.4296780000    -1.0971140000
   22      H      -1.3874310000    -4.4202190000     0.0058070000
   23      H      -0.2335100000    -4.4193950000    -1.3694150000
   24      H      -0.6942000000    -1.4506280000     0.8273370000
 ----------------------------------------------------------------

   10   -1180.7624642274      4.98e-07  Convergence criterion met
 Total energy in the final basis set =    -1180.7624642274
        RIMP2         total energy =     -1182.7675662068 a.u.

                    Orbital Energies (a.u.)
 --------------------------------------------------------------

 Alpha MOs
 -- Occupied --
-91.9822 -91.9439 -11.2852 -11.2640 -11.2605 -11.2583 -11.2511 -11.2425
-11.2378 -11.2320 -11.2292 -11.2207  -8.9819  -8.9485  -6.6628  -6.6623
 -6.6617  -6.6299  -6.6289  -6.6276  -1.1988  -1.1533  -1.0579  -1.0278
 -1.0037  -0.9611  -0.9129  -0.9009  -0.8162  -0.7602  -0.7306  -0.7056
 -0.6597  -0.6439  -0.6110  -0.5906  -0.5839  -0.5705  -0.5611  -0.5534
 -0.5416  -0.5312  -0.5168  -0.5053  -0.4879  -0.4832  -0.4629  -0.4477
 -0.3566  -0.3421  -0.3198  -0.2733

          Ground-State Mulliken Net Atomic Charges

     Atom                 Charge (a.u.)
  ----------------------------------------
      1 C                    -0.075032
      2 C                    -0.324566
      3 C                    -0.044042
      4 H                     0.178143
      5 C                     0.105682
      6 S                    -0.176677
      7 C                    -0.271097
      8 H                     0.116901
      9 H                     0.097575
     10 H                     0.112449
     11 C                    -0.072624
     12 C                    -0.257465
     13 C                     0.019918
     14 H                     0.188862
     15 C                    -0.251033
     16 S                     0.008313
     17 C                    -0.272717
     18 H                     0.101516
     19 H                     0.108859
     20 H                     0.108328
     21 H                     0.196841
     22 H                     0.112141
     23 H                     0.111490
     24 H                     0.178235
  ----------------------------------------
  Sum of atomic charges =     0.000000

                    Cartesian Multipole Moments
 -----------------------------------------------------------------
    Charge (ESU x 10^10)
                -0.0000
    Dipole Moment (Debye)
         X       1.4694      Y       0.2011      Z       3.6516
       Tot       3.9413
    Quadrupole Moments (Debye-Ang)
        XX     -91.3185     XY      -0.8859     YY     -73.5874
        XZ       0.1572     YZ      -2.1922     ZZ     -86.3033

 Total job time:  58.31s(wall), 1885.16s(cpu)
        *  Thank you very much for using Q-Chem.  Have a nice day.  *
