 Q-Chem 5.4, Q-Chem, Inc., Pleasanton, CA (2021)
 Q-Chem 5.4.0 for Intel X86 EM64T Linux

User input:
--------------------------------------------------------------
$molecule
0 1
C	0.674034	-3.828925	0.724460
C	0.641731	-3.645403	-0.661131
C	0.406834	-2.309612	-1.085203
H	0.787861	-4.476429	-1.367305
C	0.251813	-1.428104	0.000000
S	0.402734	-2.286131	1.527517
C	0.335682	-1.905091	-2.531478
H	0.489007	-2.777074	-3.196254
H	1.109183	-1.151090	-2.787305
H	-0.648644	-1.460194	-2.787282
C	0.000000	0.000000	0.000000
C	-0.003081	0.844605	1.113020
C	-0.007772	2.235575	0.820578
H	-0.001743	0.456510	2.142881
C	-0.008427	2.483726	-0.563588
S	-0.003691	0.970607	-1.464748
C	-0.011355	3.300181	1.882380
H	-0.009922	2.852233	2.894974
H	-0.905944	3.953225	1.808137
H	0.878901	3.959133	1.808230
H	-0.011727	3.441752	-1.097114
H	1.650218	-4.197430	1.059101
H	-0.117859	-4.508353	1.059122
H	1.315491	-1.241050	-0.000014
$end

$rem
JOBTYPE		SP
EXCHANGE	HF
CORRELATION	pRIMP2
BASIS		cc-pvtz
METHOD		rimp2
AUX_BASIS	rimp2-cc-pvtz
SOLVENT_METHOD	PCM
PURECART	11111
SYMMETRY	false
MEM_TOTAL	110000
SCF_CONVERGENCE = 6
THRESH=10
GUI = 2
$end

$solvent
dielectric 4.90
$end
--------------------------------------------------------------

             Standard Nuclear Orientation (Angstroms)
    I     Atom           X                Y                Z
 ----------------------------------------------------------------
    1      C       0.6740340000    -3.8289250000     0.7244600000
    2      C       0.6417310000    -3.6454030000    -0.6611310000
    3      C       0.4068340000    -2.3096120000    -1.0852030000
    4      H       0.7878610000    -4.4764290000    -1.3673050000
    5      C       0.2518130000    -1.4281040000     0.0000000000
    6      S       0.4027340000    -2.2861310000     1.5275170000
    7      C       0.3356820000    -1.9050910000    -2.5314780000
    8      H       0.4890070000    -2.7770740000    -3.1962540000
    9      H       1.1091830000    -1.1510900000    -2.7873050000
   10      H      -0.6486440000    -1.4601940000    -2.7872820000
   11      C       0.0000000000     0.0000000000     0.0000000000
   12      C      -0.0030810000     0.8446050000     1.1130200000
   13      C      -0.0077720000     2.2355750000     0.8205780000
   14      H      -0.0017430000     0.4565100000     2.1428810000
   15      C      -0.0084270000     2.4837260000    -0.5635880000
   16      S      -0.0036910000     0.9706070000    -1.4647480000
   17      C      -0.0113550000     3.3001810000     1.8823800000
   18      H      -0.0099220000     2.8522330000     2.8949740000
   19      H      -0.9059440000     3.9532250000     1.8081370000
   20      H       0.8789010000     3.9591330000     1.8082300000
   21      H      -0.0117270000     3.4417520000    -1.0971140000
   22      H       1.6502180000    -4.1974300000     1.0591010000
   23      H      -0.1178590000    -4.5083530000     1.0591220000
   24      H       1.3154910000    -1.2410500000    -0.0000140000
 ----------------------------------------------------------------

   10   -1180.7592356365      4.99e-07  Convergence criterion met
 Total energy in the final basis set =    -1180.7592356365
        RIMP2         total energy =     -1182.7646270040 a.u.

                    Orbital Energies (a.u.)
 --------------------------------------------------------------

 Alpha MOs
 -- Occupied --
-91.9817 -91.9476 -11.2913 -11.2656 -11.2636 -11.2531 -11.2500 -11.2450
-11.2327 -11.2292 -11.2275 -11.2233  -8.9817  -8.9521  -6.6626  -6.6621
 -6.6614  -6.6335  -6.6325  -6.6312  -1.2025  -1.1524  -1.0602  -1.0284
 -1.0069  -0.9561  -0.9167  -0.9019  -0.8144  -0.7719  -0.7167  -0.7044
 -0.6606  -0.6487  -0.6115  -0.5914  -0.5820  -0.5717  -0.5684  -0.5539
 -0.5421  -0.5337  -0.5163  -0.5091  -0.4902  -0.4856  -0.4578  -0.4459
 -0.3595  -0.3417  -0.3272  -0.2653

          Ground-State Mulliken Net Atomic Charges

     Atom                 Charge (a.u.)
  ----------------------------------------
      1 C                    -0.073496
      2 C                    -0.315040
      3 C                    -0.055015
      4 H                     0.179965
      5 C                     0.132541
      6 S                    -0.185820
      7 C                    -0.313092
      8 H                     0.122414
      9 H                     0.110526
     10 H                     0.116630
     11 C                    -0.003795
     12 C                    -0.326919
     13 C                     0.049781
     14 H                     0.175668
     15 C                    -0.286271
     16 S                     0.009021
     17 C                    -0.271419
     18 H                     0.102803
     19 H                     0.108300
     20 H                     0.108544
     21 H                     0.196781
     22 H                     0.111773
     23 H                     0.113192
     24 H                     0.192926
  ----------------------------------------
  Sum of atomic charges =     0.000000

                    Cartesian Multipole Moments
 -----------------------------------------------------------------
    Charge (ESU x 10^10)
                -0.0000
    Dipole Moment (Debye)
         X       1.1804      Y      -0.3383      Z      -1.0852
       Tot       1.6388
    Quadrupole Moments (Debye-Ang)
        XX     -91.0015     XY      -2.9677     YY     -73.8413
        XZ      -0.3379     YZ       4.8966     ZZ     -85.4911

 Total job time:  53.98s(wall), 1919.28s(cpu)
        *  Thank you very much for using Q-Chem.  Have a nice day.  *
