 Q-Chem 5.4, Q-Chem, Inc., Pleasanton, CA (2021)
 Q-Chem 5.4.0 for Intel X86 EM64T Linux

User input:
--------------------------------------------------------------
$molecule
0 1
C	0.626855	-3.887800	0.363176
C	-0.573074	-3.701456	-0.329669
C	-0.940016	-2.345170	-0.542250
H	-1.184837	-4.545233	-0.682412
C	0.000000	-1.450135	0.000000
S	1.322686	-2.321334	0.764076
C	-2.192440	-1.934439	-1.265537
H	-2.768365	-2.819799	-1.597559
H	-1.967653	-1.326210	-2.166534
H	-2.860032	-1.325374	-0.620843
C	0.000000	0.000000	0.000000
C	0.285976	0.794723	1.113020
C	0.757308	2.103412	0.820578
H	0.154498	0.429575	2.142881
C	0.841565	2.336821	-0.563588
S	0.328498	0.913334	-1.464748
C	1.118059	3.105040	1.882380
H	0.966197	2.683616	2.894974
H	0.500773	4.024668	1.808137
H	2.180000	3.419766	1.808230
H	1.166129	3.238200	-1.097114
H	1.365344	-4.420219	-0.246643
H	0.467758	-4.419395	1.308062
H	0.539988	-1.450628	-0.935314
$end

$rem
JOBTYPE		SP
EXCHANGE	HF
CORRELATION	pRIMP2
BASIS		cc-pvtz
METHOD		rimp2
AUX_BASIS	rimp2-cc-pvtz
SOLVENT_METHOD	PCM
PURECART	11111
SYMMETRY	false
MEM_TOTAL	110000
SCF_CONVERGENCE = 6
THRESH=10
GUI = 2
$end

$solvent
dielectric 4.90
$end
--------------------------------------------------------------

             Standard Nuclear Orientation (Angstroms)
    I     Atom           X                Y                Z
 ----------------------------------------------------------------
    1      C       0.6268550000    -3.8878000000     0.3631760000
    2      C      -0.5730740000    -3.7014560000    -0.3296690000
    3      C      -0.9400160000    -2.3451700000    -0.5422500000
    4      H      -1.1848370000    -4.5452330000    -0.6824120000
    5      C       0.0000000000    -1.4501350000     0.0000000000
    6      S       1.3226860000    -2.3213340000     0.7640760000
    7      C      -2.1924400000    -1.9344390000    -1.2655370000
    8      H      -2.7683650000    -2.8197990000    -1.5975590000
    9      H      -1.9676530000    -1.3262100000    -2.1665340000
   10      H      -2.8600320000    -1.3253740000    -0.6208430000
   11      C       0.0000000000     0.0000000000     0.0000000000
   12      C       0.2859760000     0.7947230000     1.1130200000
   13      C       0.7573080000     2.1034120000     0.8205780000
   14      H       0.1544980000     0.4295750000     2.1428810000
   15      C       0.8415650000     2.3368210000    -0.5635880000
   16      S       0.3284980000     0.9133340000    -1.4647480000
   17      C       1.1180590000     3.1050400000     1.8823800000
   18      H       0.9661970000     2.6836160000     2.8949740000
   19      H       0.5007730000     4.0246680000     1.8081370000
   20      H       2.1800000000     3.4197660000     1.8082300000
   21      H       1.1661290000     3.2382000000    -1.0971140000
   22      H       1.3653440000    -4.4202190000    -0.2466430000
   23      H       0.4677580000    -4.4193950000     1.3080620000
   24      H       0.5399880000    -1.4506280000    -0.9353140000
 ----------------------------------------------------------------

   10   -1180.7547118448      5.08e-07  Convergence criterion met
 Total energy in the final basis set =    -1180.7547118448
        RIMP2         total energy =     -1182.7597749467 a.u.

                    Orbital Energies (a.u.)
 --------------------------------------------------------------

 Alpha MOs
 -- Occupied --
-91.9841 -91.9431 -11.2799 -11.2651 -11.2610 -11.2558 -11.2509 -11.2411
-11.2385 -11.2316 -11.2286 -11.2185  -8.9841  -8.9475  -6.6650  -6.6645
 -6.6638  -6.6289  -6.6279  -6.6266  -1.1986  -1.1536  -1.0580  -1.0257
 -1.0039  -0.9607  -0.9139  -0.9005  -0.8119  -0.7665  -0.7328  -0.7033
 -0.6540  -0.6362  -0.6113  -0.5895  -0.5765  -0.5739  -0.5687  -0.5527
 -0.5417  -0.5317  -0.5122  -0.5063  -0.4880  -0.4832  -0.4625  -0.4479
 -0.3557  -0.3424  -0.3187  -0.2749

          Ground-State Mulliken Net Atomic Charges

     Atom                 Charge (a.u.)
  ----------------------------------------
      1 C                    -0.074952
      2 C                    -0.324833
      3 C                    -0.047252
      4 H                     0.176195
      5 C                     0.103863
      6 S                    -0.175455
      7 C                    -0.269973
      8 H                     0.113736
      9 H                     0.099560
     10 H                     0.109177
     11 C                    -0.066032
     12 C                    -0.278075
     13 C                     0.045732
     14 H                     0.186129
     15 C                    -0.246379
     16 S                     0.009744
     17 C                    -0.271282
     18 H                     0.103138
     19 H                     0.107946
     20 H                     0.108490
     21 H                     0.198421
     22 H                     0.110417
     23 H                     0.109893
     24 H                     0.171793
  ----------------------------------------
  Sum of atomic charges =     0.000000

                    Cartesian Multipole Moments
 -----------------------------------------------------------------
    Charge (ESU x 10^10)
                -0.0000
    Dipole Moment (Debye)
         X      -1.0535      Y       0.5374      Z      -0.3120
       Tot       1.2232
    Quadrupole Moments (Debye-Ang)
        XX     -90.1728     XY       5.8850     YY     -75.0296
        XZ       0.3501     YZ       4.1467     ZZ     -86.1094

 Total job time:  57.32s(wall), 1884.73s(cpu)
        *  Thank you very much for using Q-Chem.  Have a nice day.  *
