 Q-Chem 5.4, Q-Chem, Inc., Pleasanton, CA (2021)
 Q-Chem 5.4.0 for Intel X86 EM64T Linux

User input:
--------------------------------------------------------------
$molecule
0 1
C	0.724460	-3.887800	0.001092
C	-0.661131	-3.701456	0.001036
C	-1.085203	-2.345170	0.000406
H	-1.367305	-4.545233	0.001433
C	-0.000000	-1.450135	-0.000000
S	1.527517	-2.321334	0.000367
C	-2.531478	-1.934439	0.000233
H	-3.196254	-2.819799	0.000656
H	-2.787305	-1.326210	-0.892447
H	-2.787282	-1.325374	0.892350
C	0.000000	0.000000	0.000000
C	0.215623	0.816623	1.113020
C	0.571102	2.161411	0.820578
H	0.116470	0.441406	2.142881
C	0.634696	2.401276	-0.563588
S	0.247646	0.938489	-1.464748
C	0.843182	3.190669	1.882380
H	0.728628	2.757614	2.894974
H	0.148095	4.052998	1.808137
H	1.873652	3.596752	1.808230
H	0.879464	3.327513	-1.097114
H	1.059101	-4.420219	-0.896272
H	1.059122	-4.419395	0.898936
H	-0.000014	-1.450628	-1.080000
$end

$rem
JOBTYPE		SP
EXCHANGE	HF
CORRELATION	pRIMP2
BASIS		cc-pvtz
METHOD		rimp2
AUX_BASIS	rimp2-cc-pvtz
SOLVENT_METHOD	PCM
PURECART	11111
SYMMETRY	false
MEM_TOTAL	110000
SCF_CONVERGENCE = 6
THRESH=10
GUI = 2
$end

$solvent
dielectric 4.90
$end
--------------------------------------------------------------

             Standard Nuclear Orientation (Angstroms)
    I     Atom           X                Y                Z
 ----------------------------------------------------------------
    1      C       0.7244600000    -3.8878000000     0.0010920000
    2      C      -0.6611310000    -3.7014560000     0.0010360000
    3      C      -1.0852030000    -2.3451700000     0.0004060000
    4      H      -1.3673050000    -4.5452330000     0.0014330000
    5      C       0.0000000000    -1.4501350000     0.0000000000
    6      S       1.5275170000    -2.3213340000     0.0003670000
    7      C      -2.5314780000    -1.9344390000     0.0002330000
    8      H      -3.1962540000    -2.8197990000     0.0006560000
    9      H      -2.7873050000    -1.3262100000    -0.8924470000
   10      H      -2.7872820000    -1.3253740000     0.8923500000
   11      C       0.0000000000     0.0000000000     0.0000000000
   12      C       0.2156230000     0.8166230000     1.1130200000
   13      C       0.5711020000     2.1614110000     0.8205780000
   14      H       0.1164700000     0.4414060000     2.1428810000
   15      C       0.6346960000     2.4012760000    -0.5635880000
   16      S       0.2476460000     0.9384890000    -1.4647480000
   17      C       0.8431820000     3.1906690000     1.8823800000
   18      H       0.7286280000     2.7576140000     2.8949740000
   19      H       0.1480950000     4.0529980000     1.8081370000
   20      H       1.8736520000     3.5967520000     1.8082300000
   21      H       0.8794640000     3.3275130000    -1.0971140000
   22      H       1.0591010000    -4.4202190000    -0.8962720000
   23      H       1.0591220000    -4.4193950000     0.8989360000
   24      H      -0.0000140000    -1.4506280000    -1.0800000000
 ----------------------------------------------------------------

   10   -1180.7575578499      5.11e-07  Convergence criterion met
 Total energy in the final basis set =    -1180.7575578499
        RIMP2         total energy =     -1182.7620993454 a.u.

                    Orbital Energies (a.u.)
 --------------------------------------------------------------

 Alpha MOs
 -- Occupied --
-91.9866 -91.9416 -11.2772 -11.2670 -11.2614 -11.2550 -11.2510 -11.2408
-11.2390 -11.2311 -11.2288 -11.2178  -8.9862  -8.9462  -6.6671  -6.6666
 -6.6659  -6.6275  -6.6265  -6.6252  -1.1970  -1.1538  -1.0572  -1.0258
 -1.0025  -0.9624  -0.9127  -0.9005  -0.8122  -0.7618  -0.7403  -0.7032
 -0.6532  -0.6331  -0.6113  -0.5874  -0.5773  -0.5723  -0.5681  -0.5531
 -0.5419  -0.5296  -0.5105  -0.5057  -0.4912  -0.4822  -0.4635  -0.4489
 -0.3567  -0.3398  -0.3124  -0.2822

          Ground-State Mulliken Net Atomic Charges

     Atom                 Charge (a.u.)
  ----------------------------------------
      1 C                    -0.073409
      2 C                    -0.327778
      3 C                    -0.037339
      4 H                     0.176517
      5 C                     0.103547
      6 S                    -0.174185
      7 C                    -0.267876
      8 H                     0.112112
      9 H                     0.102117
     10 H                     0.105265
     11 C                    -0.105959
     12 C                    -0.223609
     13 C                     0.025469
     14 H                     0.183745
     15 C                    -0.242664
     16 S                     0.014865
     17 C                    -0.271641
     18 H                     0.102995
     19 H                     0.107469
     20 H                     0.108298
     21 H                     0.199377
     22 H                     0.109558
     23 H                     0.111635
     24 H                     0.161493
  ----------------------------------------
  Sum of atomic charges =     0.000000

                    Cartesian Multipole Moments
 -----------------------------------------------------------------
    Charge (ESU x 10^10)
                -0.0000
    Dipole Moment (Debye)
         X      -1.8964      Y       0.7955      Z       0.7634
       Tot       2.1936
    Quadrupole Moments (Debye-Ang)
        XX     -91.0205     XY       6.4209     YY     -74.5092
        XZ      -0.0086     YZ       2.3948     ZZ     -85.8691

 Total job time:  55.93s(wall), 1906.49s(cpu)
        *  Thank you very much for using Q-Chem.  Have a nice day.  *
