 Q-Chem 5.4, Q-Chem, Inc., Pleasanton, CA (2021)
 Q-Chem 5.4.0 for Intel X86 EM64T Linux

User input:
--------------------------------------------------------------
$molecule
0 1
C	-0.680396	-3.887800	-0.248806
C	0.621614	-3.701456	0.225147
C	1.019896	-2.345170	0.370780
H	1.285337	-4.545233	0.466300
C	0.000000	-1.450135	0.000000
S	-1.435271	-2.321334	-0.522786
C	2.378891	-1.934439	0.865597
H	3.003720	-2.819799	1.092567
H	2.313975	-1.326210	1.791940
H	2.924390	-1.325374	0.114772
C	0.000000	0.000000	0.000000
C	0.143630	0.832309	1.113020
C	0.380550	2.202961	0.820578
H	0.077556	0.449877	2.142881
C	0.422995	2.447456	-0.563588
S	0.164909	0.956502	-1.464748
C	0.561888	3.252016	1.882380
H	0.485513	2.810624	2.894974
H	-0.205711	4.050482	1.808137
H	1.553045	3.746365	1.808230
H	0.586105	3.391501	-1.097114
H	-1.301772	-4.420219	0.479986
H	-0.687795	-4.419395	-1.206964
H	-0.369368	-1.450628	1.014873
$end

$rem
JOBTYPE		SP
EXCHANGE	HF
CORRELATION	pRIMP2
BASIS		cc-pvtz
METHOD		rimp2
AUX_BASIS	rimp2-cc-pvtz
SOLVENT_METHOD	PCM
PURECART	11111
SYMMETRY	false
MEM_TOTAL	110000
SCF_CONVERGENCE = 6
THRESH=10
GUI = 2
$end

$solvent
dielectric 4.90
$end
--------------------------------------------------------------

             Standard Nuclear Orientation (Angstroms)
    I     Atom           X                Y                Z
 ----------------------------------------------------------------
    1      C      -0.6803960000    -3.8878000000    -0.2488060000
    2      C       0.6216140000    -3.7014560000     0.2251470000
    3      C       1.0198960000    -2.3451700000     0.3707800000
    4      H       1.2853370000    -4.5452330000     0.4663000000
    5      C       0.0000000000    -1.4501350000     0.0000000000
    6      S      -1.4352710000    -2.3213340000    -0.5227860000
    7      C       2.3788910000    -1.9344390000     0.8655970000
    8      H       3.0037200000    -2.8197990000     1.0925670000
    9      H       2.3139750000    -1.3262100000     1.7919400000
   10      H       2.9243900000    -1.3253740000     0.1147720000
   11      C       0.0000000000     0.0000000000     0.0000000000
   12      C       0.1436300000     0.8323090000     1.1130200000
   13      C       0.3805500000     2.2029610000     0.8205780000
   14      H       0.0775560000     0.4498770000     2.1428810000
   15      C       0.4229950000     2.4474560000    -0.5635880000
   16      S       0.1649090000     0.9565020000    -1.4647480000
   17      C       0.5618880000     3.2520160000     1.8823800000
   18      H       0.4855130000     2.8106240000     2.8949740000
   19      H      -0.2057110000     4.0504820000     1.8081370000
   20      H       1.5530450000     3.7463650000     1.8082300000
   21      H       0.5861050000     3.3915010000    -1.0971140000
   22      H      -1.3017720000    -4.4202190000     0.4799860000
   23      H      -0.6877950000    -4.4193950000    -1.2069640000
   24      H      -0.3693680000    -1.4506280000     1.0148730000
 ----------------------------------------------------------------

   10   -1180.7636896015      5.06e-07  Convergence criterion met
 Total energy in the final basis set =    -1180.7636896015
        RIMP2         total energy =     -1182.7685385578 a.u.

                    Orbital Energies (a.u.)
 --------------------------------------------------------------

 Alpha MOs
 -- Occupied --
-91.9809 -91.9417 -11.2817 -11.2651 -11.2629 -11.2567 -11.2512 -11.2429
-11.2413 -11.2313 -11.2297 -11.2197  -8.9808  -8.9464  -6.6617  -6.6612
 -6.6606  -6.6277  -6.6267  -6.6255  -1.1976  -1.1539  -1.0572  -1.0260
 -1.0051  -0.9609  -0.9119  -0.9014  -0.8149  -0.7597  -0.7344  -0.7042
 -0.6598  -0.6415  -0.6109  -0.5899  -0.5814  -0.5713  -0.5640  -0.5515
 -0.5412  -0.5294  -0.5155  -0.5058  -0.4908  -0.4811  -0.4606  -0.4483
 -0.3557  -0.3414  -0.3153  -0.2801

          Ground-State Mulliken Net Atomic Charges

     Atom                 Charge (a.u.)
  ----------------------------------------
      1 C                    -0.076615
      2 C                    -0.328754
      3 C                    -0.020287
      4 H                     0.177365
      5 C                     0.078683
      6 S                    -0.176538
      7 C                    -0.268117
      8 H                     0.115185
      9 H                     0.099528
     10 H                     0.110761
     11 C                    -0.073061
     12 C                    -0.248269
     13 C                     0.019880
     14 H                     0.184242
     15 C                    -0.238580
     16 S                     0.005151
     17 C                    -0.271638
     18 H                     0.101936
     19 H                     0.108799
     20 H                     0.108157
     21 H                     0.197578
     22 H                     0.111404
     23 H                     0.111633
     24 H                     0.171559
  ----------------------------------------
  Sum of atomic charges =     0.000000

                    Cartesian Multipole Moments
 -----------------------------------------------------------------
    Charge (ESU x 10^10)
                -0.0000
    Dipole Moment (Debye)
         X       2.3388      Y       0.5482      Z       3.1098
       Tot       3.9296
    Quadrupole Moments (Debye-Ang)
        XX     -91.2391     XY      -1.1654     YY     -73.9369
        XZ       0.0156     YZ      -1.3829     ZZ     -86.2703

 Total job time:  54.86s(wall), 1886.55s(cpu)
        *  Thank you very much for using Q-Chem.  Have a nice day.  *
