 Q-Chem 5.4, Q-Chem, Inc., Pleasanton, CA (2021)
 Q-Chem 5.4.0 for Intel X86 EM64T Linux

User input:
--------------------------------------------------------------
$molecule
0 1
C	-3.684787	-1.436027	-0.000188
C	-3.759824	-0.039977	-0.000191
C	-2.506278	0.629331	-0.000375
H	-4.720382	0.496651	-0.000077
C	-1.424751	-0.270142	-0.000479
S	-1.996142	-1.933214	-0.000391
C	-2.372160	2.126803	-0.000421
H	-3.365861	2.615011	-0.000295
H	-1.821944	2.491507	-0.892902
H	-1.821700	2.491541	0.891895
C	0.000000	0.000000	0.000000
C	1.036945	-0.936443	0.000292
C	2.349226	-0.390310	0.000454
H	0.847234	-2.020529	0.000188
C	2.335515	1.015857	0.000342
S	0.681144	1.619759	0.000570
C	3.592802	-1.235497	0.000531
H	3.341070	-2.313754	0.000529
H	4.223499	-1.040534	0.892988
H	4.223590	-1.040556	-0.891867
H	3.177555	1.718313	0.000533
H	-4.145255	-1.863943	-0.897725
H	-4.145026	-1.863910	0.897482
H	-1.424886	-0.270160	-1.080479
$end

$rem
JOBTYPE		SP
EXCHANGE	HF
CORRELATION	pRIMP2
BASIS		cc-pvtz
METHOD		rimp2
AUX_BASIS	rimp2-cc-pvtz
SOLVENT_METHOD	PCM
PURECART	11111
SYMMETRY	false
MEM_TOTAL	110000
SCF_CONVERGENCE = 6
THRESH=10
GUI = 2
$end

$solvent
dielectric 4.90
$end
--------------------------------------------------------------

             Standard Nuclear Orientation (Angstroms)
    I     Atom           X                Y                Z
 ----------------------------------------------------------------
    1      C      -3.6847870000    -1.4360270000    -0.0001880000
    2      C      -3.7598240000    -0.0399770000    -0.0001910000
    3      C      -2.5062780000     0.6293310000    -0.0003750000
    4      H      -4.7203820000     0.4966510000    -0.0000770000
    5      C      -1.4247510000    -0.2701420000    -0.0004790000
    6      S      -1.9961420000    -1.9332140000    -0.0003910000
    7      C      -2.3721600000     2.1268030000    -0.0004210000
    8      H      -3.3658610000     2.6150110000    -0.0002950000
    9      H      -1.8219440000     2.4915070000    -0.8929020000
   10      H      -1.8217000000     2.4915410000     0.8918950000
   11      C       0.0000000000     0.0000000000     0.0000000000
   12      C       1.0369450000    -0.9364430000     0.0002920000
   13      C       2.3492260000    -0.3903100000     0.0004540000
   14      H       0.8472340000    -2.0205290000     0.0001880000
   15      C       2.3355150000     1.0158570000     0.0003420000
   16      S       0.6811440000     1.6197590000     0.0005700000
   17      C       3.5928020000    -1.2354970000     0.0005310000
   18      H       3.3410700000    -2.3137540000     0.0005290000
   19      H       4.2234990000    -1.0405340000     0.8929880000
   20      H       4.2235900000    -1.0405560000    -0.8918670000
   21      H       3.1775550000     1.7183130000     0.0005330000
   22      H      -4.1452550000    -1.8639430000    -0.8977250000
   23      H      -4.1450260000    -1.8639100000     0.8974820000
   24      H      -1.4248860000    -0.2701600000    -1.0804790000
 ----------------------------------------------------------------

   10   -1180.7599588766      5.06e-07  Convergence criterion met
 Total energy in the final basis set =    -1180.7599588766
        RIMP2         total energy =     -1182.7651040396 a.u.

                    Orbital Energies (a.u.)
 --------------------------------------------------------------

 Alpha MOs
 -- Occupied --
-91.9819 -91.9478 -11.2913 -11.2660 -11.2632 -11.2529 -11.2499 -11.2450
-11.2329 -11.2294 -11.2275 -11.2232  -8.9819  -8.9522  -6.6628  -6.6623
 -6.6616  -6.6336  -6.6326  -6.6313  -1.2021  -1.1523  -1.0601  -1.0284
 -1.0070  -0.9563  -0.9167  -0.9018  -0.8148  -0.7718  -0.7167  -0.7048
 -0.6600  -0.6486  -0.6113  -0.5919  -0.5819  -0.5717  -0.5681  -0.5538
 -0.5419  -0.5337  -0.5162  -0.5089  -0.4889  -0.4872  -0.4580  -0.4462
 -0.3595  -0.3416  -0.3270  -0.2652

          Ground-State Mulliken Net Atomic Charges

     Atom                 Charge (a.u.)
  ----------------------------------------
      1 C                    -0.072561
      2 C                    -0.318059
      3 C                    -0.053941
      4 H                     0.180384
      5 C                     0.153672
      6 S                    -0.184721
      7 C                    -0.313402
      8 H                     0.123166
      9 H                     0.110718
     10 H                     0.116135
     11 C                    -0.031112
     12 C                    -0.314242
     13 C                     0.045180
     14 H                     0.176112
     15 C                    -0.283774
     16 S                     0.008562
     17 C                    -0.272512
     18 H                     0.102739
     19 H                     0.108430
     20 H                     0.108403
     21 H                     0.196794
     22 H                     0.111566
     23 H                     0.113245
     24 H                     0.189217
  ----------------------------------------
  Sum of atomic charges =     0.000000

                    Cartesian Multipole Moments
 -----------------------------------------------------------------
    Charge (ESU x 10^10)
                 0.0000
    Dipole Moment (Debye)
         X      -0.7132      Y       0.9703      Z      -0.8833
       Tot       1.4935
    Quadrupole Moments (Debye-Ang)
        XX     -71.6759     XY      -2.3020     YY     -86.8469
        XZ       1.4181     YZ       0.5901     ZZ     -91.8070

 Total job time:  72.85s(wall), 2810.13s(cpu)
        *  Thank you very much for using Q-Chem.  Have a nice day.  *
