 Q-Chem 5.4, Q-Chem, Inc., Pleasanton, CA (2021)
 Q-Chem 5.4.0 for Intel X86 EM64T Linux

User input:
--------------------------------------------------------------
$molecule
0 1
C	0.466510	-3.887800	-0.554267
C	-0.424173	-3.701456	0.507121
C	-0.697244	-2.345170	0.831575
H	-0.877789	-4.545233	1.048337
C	0.000000	-1.450135	0.000000
S	0.982150	-2.321334	-1.169911
C	-1.627024	-1.934439	1.939374
H	-2.054010	-2.819799	2.448894
H	-2.475299	-1.326210	1.561545
H	-1.108051	-1.325374	2.708773
C	0.000000	0.000000	0.000000
C	0.645024	0.545262	1.113020
C	1.707554	1.442954	0.820578
H	0.348587	0.294774	2.142881
C	1.897227	1.602964	-0.563588
S	0.741155	0.626722	-1.464748
C	2.520787	2.130014	1.882380
H	2.178559	1.840981	2.894974
H	2.446016	3.235078	1.808137
H	3.597818	1.871604	1.808230
H	2.628997	2.221299	-1.097114
H	-0.005807	-4.420219	-1.387431
H	1.369415	-4.419395	-0.233510
H	-0.827337	-1.450628	-0.694200
$end

$rem
JOBTYPE		SP
EXCHANGE	HF
CORRELATION	pRIMP2
BASIS		cc-pvtz
METHOD		rimp2
AUX_BASIS	rimp2-cc-pvtz
SOLVENT_METHOD	PCM
PURECART	11111
SYMMETRY	false
MEM_TOTAL	110000
SCF_CONVERGENCE = 6
THRESH=10
GUI = 2
$end

$solvent
dielectric 4.90
$end
--------------------------------------------------------------

             Standard Nuclear Orientation (Angstroms)
    I     Atom           X                Y                Z
 ----------------------------------------------------------------
    1      C       0.4665100000    -3.8878000000    -0.5542670000
    2      C      -0.4241730000    -3.7014560000     0.5071210000
    3      C      -0.6972440000    -2.3451700000     0.8315750000
    4      H      -0.8777890000    -4.5452330000     1.0483370000
    5      C       0.0000000000    -1.4501350000     0.0000000000
    6      S       0.9821500000    -2.3213340000    -1.1699110000
    7      C      -1.6270240000    -1.9344390000     1.9393740000
    8      H      -2.0540100000    -2.8197990000     2.4488940000
    9      H      -2.4752990000    -1.3262100000     1.5615450000
   10      H      -1.1080510000    -1.3253740000     2.7087730000
   11      C       0.0000000000     0.0000000000     0.0000000000
   12      C       0.6450240000     0.5452620000     1.1130200000
   13      C       1.7075540000     1.4429540000     0.8205780000
   14      H       0.3485870000     0.2947740000     2.1428810000
   15      C       1.8972270000     1.6029640000    -0.5635880000
   16      S       0.7411550000     0.6267220000    -1.4647480000
   17      C       2.5207870000     2.1300140000     1.8823800000
   18      H       2.1785590000     1.8409810000     2.8949740000
   19      H       2.4460160000     3.2350780000     1.8081370000
   20      H       3.5978180000     1.8716040000     1.8082300000
   21      H       2.6289970000     2.2212990000    -1.0971140000
   22      H      -0.0058070000    -4.4202190000    -1.3874310000
   23      H       1.3694150000    -4.4193950000    -0.2335100000
   24      H      -0.8273370000    -1.4506280000    -0.6942000000
 ----------------------------------------------------------------

   10   -1180.7018678045      8.17e-07  Convergence criterion met
 Total energy in the final basis set =    -1180.7018678045
        RIMP2         total energy =     -1182.7201183089 a.u.

                    Orbital Energies (a.u.)
 --------------------------------------------------------------

 Alpha MOs
 -- Occupied --
-91.9826 -91.9376 -11.2797 -11.2595 -11.2591 -11.2523 -11.2503 -11.2485
-11.2356 -11.2311 -11.2298 -11.2134  -8.9831  -8.9423  -6.6639  -6.6632
 -6.6628  -6.6235  -6.6225  -6.6212  -1.1998  -1.1536  -1.0560  -1.0285
 -0.9981  -0.9657  -0.9092  -0.9018  -0.8122  -0.7553  -0.7430  -0.7048
 -0.6500  -0.6324  -0.6125  -0.5905  -0.5827  -0.5690  -0.5661  -0.5514
 -0.5424  -0.5328  -0.5134  -0.5060  -0.4863  -0.4745  -0.4574  -0.4406
 -0.3518  -0.3404  -0.3234  -0.2601

          Ground-State Mulliken Net Atomic Charges

     Atom                 Charge (a.u.)
  ----------------------------------------
      1 C                    -0.083177
      2 C                    -0.333522
      3 C                    -0.056229
      4 H                     0.173625
      5 C                     0.069801
      6 S                    -0.178162
      7 C                    -0.281824
      8 H                     0.115222
      9 H                     0.106306
     10 H                     0.101473
     11 C                    -0.136889
     12 C                    -0.141840
     13 C                    -0.009350
     14 H                     0.197497
     15 C                    -0.187751
     16 S                     0.009816
     17 C                    -0.269782
     18 H                     0.101275
     19 H                     0.107806
     20 H                     0.107022
     21 H                     0.201822
     22 H                     0.105184
     23 H                     0.108694
     24 H                     0.172985
  ----------------------------------------
  Sum of atomic charges =     0.000000

                    Cartesian Multipole Moments
 -----------------------------------------------------------------
    Charge (ESU x 10^10)
                -0.0000
    Dipole Moment (Debye)
         X      -0.0034      Y       1.0120      Z       2.8280
       Tot       3.0036
    Quadrupole Moments (Debye-Ang)
        XX     -85.0084     XY       9.4491     YY     -81.8342
        XZ       0.4922     YZ      -1.2994     ZZ     -85.0372

 Total job time:  58.20s(wall), 1923.17s(cpu)
        *  Thank you very much for using Q-Chem.  Have a nice day.  *
