 Q-Chem 5.4, Q-Chem, Inc., Pleasanton, CA (2021)
 Q-Chem 5.4.0 for Intel X86 EM64T Linux

User input:
--------------------------------------------------------------
$molecule
0 1
C	-0.724460	-3.887800	-0.001092
C	0.661131	-3.701456	-0.001036
C	1.085203	-2.345170	-0.000406
H	1.367305	-4.545233	-0.001433
C	-0.000000	-1.450135	-0.000000
S	-1.527517	-2.321334	-0.000367
C	2.531478	-1.934439	-0.000233
H	3.196254	-2.819799	-0.000656
H	2.787305	-1.326210	0.892447
H	2.787282	-1.325374	-0.892350
C	0.000000	0.000000	0.000000
C	0.070542	0.841660	1.113020
C	0.187101	2.227746	0.820578
H	0.038051	0.454925	2.142881
C	0.208076	2.475009	-0.563588
S	0.080917	0.967235	-1.464748
C	0.276318	3.288613	1.882380
H	0.238704	2.842244	2.894974
H	-0.557951	4.017140	1.808137
H	1.220618	3.867466	1.808230
H	0.288286	3.429678	-1.097114
H	-1.059101	-4.420219	0.896272
H	-1.059122	-4.419395	-0.898936
H	0.000014	-1.450628	1.080000
$end

$rem
JOBTYPE		SP
EXCHANGE	HF
CORRELATION	pRIMP2
BASIS		cc-pvtz
METHOD		rimp2
AUX_BASIS	rimp2-cc-pvtz
SOLVENT_METHOD	PCM
PURECART	11111
SYMMETRY	false
MEM_TOTAL	110000
SCF_CONVERGENCE = 6
THRESH=10
GUI = 2
$end

$solvent
dielectric 4.90
$end
--------------------------------------------------------------

             Standard Nuclear Orientation (Angstroms)
    I     Atom           X                Y                Z
 ----------------------------------------------------------------
    1      C      -0.7244600000    -3.8878000000    -0.0010920000
    2      C       0.6611310000    -3.7014560000    -0.0010360000
    3      C       1.0852030000    -2.3451700000    -0.0004060000
    4      H       1.3673050000    -4.5452330000    -0.0014330000
    5      C       0.0000000000    -1.4501350000     0.0000000000
    6      S      -1.5275170000    -2.3213340000    -0.0003670000
    7      C       2.5314780000    -1.9344390000    -0.0002330000
    8      H       3.1962540000    -2.8197990000    -0.0006560000
    9      H       2.7873050000    -1.3262100000     0.8924470000
   10      H       2.7872820000    -1.3253740000    -0.8923500000
   11      C       0.0000000000     0.0000000000     0.0000000000
   12      C       0.0705420000     0.8416600000     1.1130200000
   13      C       0.1871010000     2.2277460000     0.8205780000
   14      H       0.0380510000     0.4549250000     2.1428810000
   15      C       0.2080760000     2.4750090000    -0.5635880000
   16      S       0.0809170000     0.9672350000    -1.4647480000
   17      C       0.2763180000     3.2886130000     1.8823800000
   18      H       0.2387040000     2.8422440000     2.8949740000
   19      H      -0.5579510000     4.0171400000     1.8081370000
   20      H       1.2206180000     3.8674660000     1.8082300000
   21      H       0.2882860000     3.4296780000    -1.0971140000
   22      H      -1.0591010000    -4.4202190000     0.8962720000
   23      H      -1.0591220000    -4.4193950000    -0.8989360000
   24      H       0.0000140000    -1.4506280000     1.0800000000
 ----------------------------------------------------------------

   10   -1180.7655818884      4.99e-07  Convergence criterion met
 Total energy in the final basis set =    -1180.7655818884
        RIMP2         total energy =     -1182.7695832805 a.u.

                    Orbital Energies (a.u.)
 --------------------------------------------------------------

 Alpha MOs
 -- Occupied --
-91.9808 -91.9413 -11.2816 -11.2656 -11.2624 -11.2561 -11.2510 -11.2437
-11.2411 -11.2312 -11.2296 -11.2194  -8.9808  -8.9459  -6.6617  -6.6611
 -6.6606  -6.6273  -6.6263  -6.6250  -1.1972  -1.1539  -1.0570  -1.0252
 -1.0062  -0.9600  -0.9118  -0.9014  -0.8145  -0.7609  -0.7352  -0.7023
 -0.6605  -0.6407  -0.6107  -0.5892  -0.5799  -0.5716  -0.5659  -0.5502
 -0.5411  -0.5293  -0.5138  -0.5052  -0.4936  -0.4816  -0.4597  -0.4489
 -0.3558  -0.3413  -0.3128  -0.2825

          Ground-State Mulliken Net Atomic Charges

     Atom                 Charge (a.u.)
  ----------------------------------------
      1 C                    -0.078268
      2 C                    -0.329716
      3 C                    -0.015393
      4 H                     0.177247
      5 C                     0.081532
      6 S                    -0.177471
      7 C                    -0.266646
      8 H                     0.113558
      9 H                     0.101468
     10 H                     0.107179
     11 C                    -0.080886
     12 C                    -0.239738
     13 C                     0.020197
     14 H                     0.181446
     15 C                    -0.235960
     16 S                     0.006262
     17 C                    -0.271788
     18 H                     0.102187
     19 H                     0.108829
     20 H                     0.108033
     21 H                     0.197437
     22 H                     0.111302
     23 H                     0.112487
     24 H                     0.166702
  ----------------------------------------
  Sum of atomic charges =     0.000000

                    Cartesian Multipole Moments
 -----------------------------------------------------------------
    Charge (ESU x 10^10)
                -0.0000
    Dipole Moment (Debye)
         X       2.5902      Y       0.6275      Z       2.3187
       Tot       3.5326
    Quadrupole Moments (Debye-Ang)
        XX     -91.7020     XY      -2.8733     YY     -73.7659
        XZ      -0.2197     YZ      -0.1622     ZZ     -86.0547

 Total job time:  53.79s(wall), 1874.29s(cpu)
        *  Thank you very much for using Q-Chem.  Have a nice day.  *
