 Q-Chem 5.4, Q-Chem, Inc., Pleasanton, CA (2021)
 Q-Chem 5.4.0 for Intel X86 EM64T Linux

User input:
--------------------------------------------------------------
$molecule
0 1
C	0.554267	-3.887800	0.466510
C	-0.507121	-3.701456	-0.424173
C	-0.831575	-2.345170	-0.697244
H	-1.048337	-4.545233	-0.877789
C	0.000000	-1.450135	0.000000
S	1.169911	-2.321334	0.982150
C	-1.939374	-1.934439	-1.627024
H	-2.448894	-2.819799	-2.054010
H	-1.561545	-1.326210	-2.475299
H	-2.708773	-1.325374	-1.108051
C	0.000000	0.000000	0.000000
C	0.143630	0.832309	1.113020
C	0.380550	2.202961	0.820578
H	0.077556	0.449877	2.142881
C	0.422995	2.447456	-0.563588
S	0.164909	0.956502	-1.464748
C	0.561888	3.252016	1.882380
H	0.485513	2.810624	2.894974
H	-0.205711	4.050482	1.808137
H	1.553045	3.746365	1.808230
H	0.586105	3.391501	-1.097114
H	1.387431	-4.420219	-0.005807
H	0.233510	-4.419395	1.369415
H	0.694200	-1.450628	-0.827337
$end

$rem
JOBTYPE		SP
EXCHANGE	HF
CORRELATION	pRIMP2
BASIS		cc-pvtz
METHOD		rimp2
AUX_BASIS	rimp2-cc-pvtz
SOLVENT_METHOD	PCM
PURECART	11111
SYMMETRY	false
MEM_TOTAL	110000
SCF_CONVERGENCE = 6
THRESH=10
GUI = 2
$end

$solvent
dielectric 4.90
$end
--------------------------------------------------------------

             Standard Nuclear Orientation (Angstroms)
    I     Atom           X                Y                Z
 ----------------------------------------------------------------
    1      C       0.5542670000    -3.8878000000     0.4665100000
    2      C      -0.5071210000    -3.7014560000    -0.4241730000
    3      C      -0.8315750000    -2.3451700000    -0.6972440000
    4      H      -1.0483370000    -4.5452330000    -0.8777890000
    5      C       0.0000000000    -1.4501350000     0.0000000000
    6      S       1.1699110000    -2.3213340000     0.9821500000
    7      C      -1.9393740000    -1.9344390000    -1.6270240000
    8      H      -2.4488940000    -2.8197990000    -2.0540100000
    9      H      -1.5615450000    -1.3262100000    -2.4752990000
   10      H      -2.7087730000    -1.3253740000    -1.1080510000
   11      C       0.0000000000     0.0000000000     0.0000000000
   12      C       0.1436300000     0.8323090000     1.1130200000
   13      C       0.3805500000     2.2029610000     0.8205780000
   14      H       0.0775560000     0.4498770000     2.1428810000
   15      C       0.4229950000     2.4474560000    -0.5635880000
   16      S       0.1649090000     0.9565020000    -1.4647480000
   17      C       0.5618880000     3.2520160000     1.8823800000
   18      H       0.4855130000     2.8106240000     2.8949740000
   19      H      -0.2057110000     4.0504820000     1.8081370000
   20      H       1.5530450000     3.7463650000     1.8082300000
   21      H       0.5861050000     3.3915010000    -1.0971140000
   22      H       1.3874310000    -4.4202190000    -0.0058070000
   23      H       0.2335100000    -4.4193950000     1.3694150000
   24      H       0.6942000000    -1.4506280000    -0.8273370000
 ----------------------------------------------------------------

   10   -1180.7606159325      4.95e-07  Convergence criterion met
 Total energy in the final basis set =    -1180.7606159325
        RIMP2         total energy =     -1182.7644750039 a.u.

                    Orbital Energies (a.u.)
 --------------------------------------------------------------

 Alpha MOs
 -- Occupied --
-91.9842 -91.9445 -11.2840 -11.2627 -11.2617 -11.2581 -11.2506 -11.2422
-11.2355 -11.2320 -11.2283 -11.2205  -8.9841  -8.9489  -6.6650  -6.6645
 -6.6639  -6.6303  -6.6292  -6.6280  -1.1992  -1.1534  -1.0586  -1.0261
 -1.0049  -0.9599  -0.9146  -0.9008  -0.8130  -0.7681  -0.7293  -0.7038
 -0.6550  -0.6390  -0.6111  -0.5910  -0.5765  -0.5739  -0.5691  -0.5530
 -0.5418  -0.5321  -0.5132  -0.5060  -0.4889  -0.4857  -0.4616  -0.4481
 -0.3564  -0.3428  -0.3209  -0.2731

          Ground-State Mulliken Net Atomic Charges

     Atom                 Charge (a.u.)
  ----------------------------------------
      1 C                    -0.075729
      2 C                    -0.321711
      3 C                    -0.054895
      4 H                     0.177668
      5 C                     0.130337
      6 S                    -0.175958
      7 C                    -0.274513
      8 H                     0.115164
      9 H                     0.101230
     10 H                     0.111366
     11 C                    -0.080923
     12 C                    -0.270505
     13 C                     0.036191
     14 H                     0.186228
     15 C                    -0.253327
     16 S                     0.008879
     17 C                    -0.272543
     18 H                     0.103099
     19 H                     0.108041
     20 H                     0.108596
     21 H                     0.197717
     22 H                     0.111671
     23 H                     0.110985
     24 H                     0.172931
  ----------------------------------------
  Sum of atomic charges =     0.000000

                    Cartesian Multipole Moments
 -----------------------------------------------------------------
    Charge (ESU x 10^10)
                -0.0000
    Dipole Moment (Debye)
         X      -1.0515      Y       0.2798      Z      -0.6545
       Tot       1.2697
    Quadrupole Moments (Debye-Ang)
        XX     -91.0638     XY       3.6107     YY     -73.7030
        XZ       0.3309     YZ       4.6385     ZZ     -86.1906

 Total job time:  53.19s(wall), 1856.06s(cpu)
        *  Thank you very much for using Q-Chem.  Have a nice day.  *
