 Q-Chem 5.4, Q-Chem, Inc., Pleasanton, CA (2021)
 Q-Chem 5.4.0 for Intel X86 EM64T Linux

User input:
--------------------------------------------------------------
$molecule
0 1
C	-0.246754	-3.887800	-0.681143
C	0.227093	-3.701456	0.620906
C	0.371543	-2.345170	1.019618
H	0.468992	-4.545233	1.284357
C	-0.000000	-1.450135	-0.000000
S	-0.522097	-2.321334	-1.435522
C	0.866035	-1.934439	2.378731
H	1.093799	-2.819799	3.003272
H	0.114688	-1.326210	2.924444
H	1.791841	-1.325374	2.313987
C	0.000000	0.000000	0.000000
C	0.215623	0.816623	1.113020
C	0.571102	2.161411	0.820578
H	0.116470	0.441406	2.142881
C	0.634696	2.401276	-0.563588
S	0.247646	0.938489	-1.464748
C	0.843182	3.190669	1.882380
H	0.728628	2.757614	2.894974
H	0.148095	4.052998	1.808137
H	1.873652	3.596752	1.808230
H	0.879464	3.327513	-1.097114
H	-1.204454	-4.420219	-0.688686
H	0.482482	-4.419395	-1.302703
H	-1.014863	-1.450628	0.369395
$end

$rem
JOBTYPE		SP
EXCHANGE	HF
CORRELATION	pRIMP2
BASIS		cc-pvtz
METHOD		rimp2
AUX_BASIS	rimp2-cc-pvtz
SOLVENT_METHOD	PCM
PURECART	11111
SYMMETRY	false
MEM_TOTAL	110000
SCF_CONVERGENCE = 6
THRESH=10
GUI = 2
$end

$solvent
dielectric 4.90
$end
--------------------------------------------------------------

             Standard Nuclear Orientation (Angstroms)
    I     Atom           X                Y                Z
 ----------------------------------------------------------------
    1      C      -0.2467540000    -3.8878000000    -0.6811430000
    2      C       0.2270930000    -3.7014560000     0.6209060000
    3      C       0.3715430000    -2.3451700000     1.0196180000
    4      H       0.4689920000    -4.5452330000     1.2843570000
    5      C       0.0000000000    -1.4501350000     0.0000000000
    6      S      -0.5220970000    -2.3213340000    -1.4355220000
    7      C       0.8660350000    -1.9344390000     2.3787310000
    8      H       1.0937990000    -2.8197990000     3.0032720000
    9      H       0.1146880000    -1.3262100000     2.9244440000
   10      H       1.7918410000    -1.3253740000     2.3139870000
   11      C       0.0000000000     0.0000000000     0.0000000000
   12      C       0.2156230000     0.8166230000     1.1130200000
   13      C       0.5711020000     2.1614110000     0.8205780000
   14      H       0.1164700000     0.4414060000     2.1428810000
   15      C       0.6346960000     2.4012760000    -0.5635880000
   16      S       0.2476460000     0.9384890000    -1.4647480000
   17      C       0.8431820000     3.1906690000     1.8823800000
   18      H       0.7286280000     2.7576140000     2.8949740000
   19      H       0.1480950000     4.0529980000     1.8081370000
   20      H       1.8736520000     3.5967520000     1.8082300000
   21      H       0.8794640000     3.3275130000    -1.0971140000
   22      H      -1.2044540000    -4.4202190000    -0.6886860000
   23      H       0.4824820000    -4.4193950000    -1.3027030000
   24      H      -1.0148630000    -1.4506280000     0.3693950000
 ----------------------------------------------------------------

   10   -1180.7511905147      5.06e-07  Convergence criterion met
 Total energy in the final basis set =    -1180.7511905147
        RIMP2         total energy =     -1182.7591339440 a.u.

                    Orbital Energies (a.u.)
 --------------------------------------------------------------

 Alpha MOs
 -- Occupied --
-91.9831 -91.9458 -11.2872 -11.2660 -11.2603 -11.2564 -11.2503 -11.2443
-11.2335 -11.2312 -11.2286 -11.2225  -8.9827  -8.9504  -6.6637  -6.6631
 -6.6625  -6.6318  -6.6308  -6.6295  -1.2009  -1.1525  -1.0588  -1.0309
 -1.0018  -0.9615  -0.9158  -0.9001  -0.8169  -0.7619  -0.7267  -0.7087
 -0.6568  -0.6476  -0.6110  -0.5936  -0.5878  -0.5695  -0.5591  -0.5522
 -0.5426  -0.5345  -0.5232  -0.5025  -0.4841  -0.4810  -0.4668  -0.4450
 -0.3597  -0.3429  -0.3237  -0.2651

          Ground-State Mulliken Net Atomic Charges

     Atom                 Charge (a.u.)
  ----------------------------------------
      1 C                    -0.073689
      2 C                    -0.315784
      3 C                    -0.070100
      4 H                     0.179822
      5 C                     0.136874
      6 S                    -0.179627
      7 C                    -0.296732
      8 H                     0.121700
      9 H                     0.098351
     10 H                     0.118203
     11 C                    -0.044840
     12 C                    -0.302106
     13 C                     0.050005
     14 H                     0.190609
     15 C                    -0.276802
     16 S                     0.014444
     17 C                    -0.272517
     18 H                     0.100797
     19 H                     0.108565
     20 H                     0.108583
     21 H                     0.195568
     22 H                     0.111956
     23 H                     0.112799
     24 H                     0.183920
  ----------------------------------------
  Sum of atomic charges =     0.000000

                    Cartesian Multipole Moments
 -----------------------------------------------------------------
    Charge (ESU x 10^10)
                -0.0000
    Dipole Moment (Debye)
         X       0.3962      Y      -0.2721      Z       4.0033
       Tot       4.0321
    Quadrupole Moments (Debye-Ang)
        XX     -90.8751     XY       2.6896     YY     -73.8520
        XZ       0.6912     YZ      -2.6810     ZZ     -85.9555

 Total job time:  57.97s(wall), 1961.13s(cpu)
        *  Thank you very much for using Q-Chem.  Have a nice day.  *
