 Q-Chem 5.4, Q-Chem, Inc., Pleasanton, CA (2021)
 Q-Chem 5.4.0 for Intel X86 EM64T Linux

User input:
--------------------------------------------------------------
$molecule
0 1
C	-0.724460	-3.887800	-0.001092
C	0.661131	-3.701456	-0.001036
C	1.085203	-2.345170	-0.000406
H	1.367305	-4.545233	-0.001433
C	0.000000	-1.450135	0.000000
S	-1.527517	-2.321334	-0.000367
C	2.531478	-1.934439	-0.000233
H	3.196254	-2.819799	-0.000656
H	2.787305	-1.326210	0.892447
H	2.787282	-1.325374	-0.892350
C	0.000000	0.000000	0.000000
C	0.143630	0.832309	1.113020
C	0.380550	2.202961	0.820578
H	0.077556	0.449877	2.142881
C	0.422995	2.447456	-0.563588
S	0.164909	0.956502	-1.464748
C	0.561888	3.252016	1.882380
H	0.485513	2.810624	2.894974
H	-0.205711	4.050482	1.808137
H	1.553045	3.746365	1.808230
H	0.586105	3.391501	-1.097114
H	-1.059101	-4.420219	0.896272
H	-1.059122	-4.419395	-0.898936
H	0.000014	-1.450628	1.080000
$end

$rem
JOBTYPE		SP
EXCHANGE	HF
CORRELATION	pRIMP2
BASIS		cc-pvtz
METHOD		rimp2
AUX_BASIS	rimp2-cc-pvtz
SOLVENT_METHOD	PCM
PURECART	11111
SYMMETRY	false
MEM_TOTAL	110000
SCF_CONVERGENCE = 6
THRESH=10
GUI = 2
$end

$solvent
dielectric 4.90
$end
--------------------------------------------------------------

             Standard Nuclear Orientation (Angstroms)
    I     Atom           X                Y                Z
 ----------------------------------------------------------------
    1      C      -0.7244600000    -3.8878000000    -0.0010920000
    2      C       0.6611310000    -3.7014560000    -0.0010360000
    3      C       1.0852030000    -2.3451700000    -0.0004060000
    4      H       1.3673050000    -4.5452330000    -0.0014330000
    5      C       0.0000000000    -1.4501350000     0.0000000000
    6      S      -1.5275170000    -2.3213340000    -0.0003670000
    7      C       2.5314780000    -1.9344390000    -0.0002330000
    8      H       3.1962540000    -2.8197990000    -0.0006560000
    9      H       2.7873050000    -1.3262100000     0.8924470000
   10      H       2.7872820000    -1.3253740000    -0.8923500000
   11      C       0.0000000000     0.0000000000     0.0000000000
   12      C       0.1436300000     0.8323090000     1.1130200000
   13      C       0.3805500000     2.2029610000     0.8205780000
   14      H       0.0775560000     0.4498770000     2.1428810000
   15      C       0.4229950000     2.4474560000    -0.5635880000
   16      S       0.1649090000     0.9565020000    -1.4647480000
   17      C       0.5618880000     3.2520160000     1.8823800000
   18      H       0.4855130000     2.8106240000     2.8949740000
   19      H      -0.2057110000     4.0504820000     1.8081370000
   20      H       1.5530450000     3.7463650000     1.8082300000
   21      H       0.5861050000     3.3915010000    -1.0971140000
   22      H      -1.0591010000    -4.4202190000     0.8962720000
   23      H      -1.0591220000    -4.4193950000    -0.8989360000
   24      H       0.0000140000    -1.4506280000     1.0800000000
 ----------------------------------------------------------------

   10   -1180.7639700604      5.04e-07  Convergence criterion met
 Total energy in the final basis set =    -1180.7639700604
        RIMP2         total energy =     -1182.7685033147 a.u.

                    Orbital Energies (a.u.)
 --------------------------------------------------------------

 Alpha MOs
 -- Occupied --
-91.9809 -91.9407 -11.2810 -11.2661 -11.2625 -11.2559 -11.2512 -11.2442
-11.2408 -11.2310 -11.2297 -11.2194  -8.9808  -8.9454  -6.6617  -6.6612
 -6.6606  -6.6268  -6.6257  -6.6245  -1.1972  -1.1540  -1.0570  -1.0250
 -1.0063  -0.9601  -0.9117  -0.9015  -0.8141  -0.7609  -0.7355  -0.7025
 -0.6603  -0.6406  -0.6108  -0.5893  -0.5798  -0.5718  -0.5659  -0.5503
 -0.5412  -0.5290  -0.5147  -0.5050  -0.4935  -0.4805  -0.4597  -0.4486
 -0.3555  -0.3416  -0.3130  -0.2822

          Ground-State Mulliken Net Atomic Charges

     Atom                 Charge (a.u.)
  ----------------------------------------
      1 C                    -0.078212
      2 C                    -0.329538
      3 C                    -0.012255
      4 H                     0.177136
      5 C                     0.074861
      6 S                    -0.178530
      7 C                    -0.267197
      8 H                     0.113915
      9 H                     0.101781
     10 H                     0.107652
     11 C                    -0.075223
     12 C                    -0.243923
     13 C                     0.022974
     14 H                     0.181457
     15 C                    -0.236228
     16 S                     0.006049
     17 C                    -0.271688
     18 H                     0.102177
     19 H                     0.108800
     20 H                     0.108053
     21 H                     0.197530
     22 H                     0.111043
     23 H                     0.112141
     24 H                     0.167228
  ----------------------------------------
  Sum of atomic charges =     0.000000

                    Cartesian Multipole Moments
 -----------------------------------------------------------------
    Charge (ESU x 10^10)
                -0.0000
    Dipole Moment (Debye)
         X       2.7675      Y       0.6566      Z       2.3249
       Tot       3.6736
    Quadrupole Moments (Debye-Ang)
        XX     -91.4969     XY      -1.9901     YY     -74.0423
        XZ      -0.1132     YZ      -0.1783     ZZ     -86.0401

 Total job time:  54.00s(wall), 1907.84s(cpu)
        *  Thank you very much for using Q-Chem.  Have a nice day.  *
