 Q-Chem 5.4, Q-Chem, Inc., Pleasanton, CA (2021)
 Q-Chem 5.4.0 for Intel X86 EM64T Linux

User input:
--------------------------------------------------------------
$molecule
0 1
C	-0.554267	-3.887800	-0.466510
C	0.507121	-3.701456	0.424173
C	0.831575	-2.345170	0.697244
H	1.048337	-4.545233	0.877789
C	0.000000	-1.450135	0.000000
S	-1.169911	-2.321334	-0.982150
C	1.939374	-1.934439	1.627024
H	2.448894	-2.819799	2.054010
H	1.561545	-1.326210	2.475299
H	2.708773	-1.325374	1.108051
C	0.000000	0.000000	0.000000
C	-0.003081	0.844605	1.113020
C	-0.007772	2.235575	0.820578
H	-0.001743	0.456510	2.142881
C	-0.008427	2.483726	-0.563588
S	-0.003691	0.970607	-1.464748
C	-0.011355	3.300181	1.882380
H	-0.009922	2.852233	2.894974
H	-0.905944	3.953225	1.808137
H	0.878901	3.959133	1.808230
H	-0.011727	3.441752	-1.097114
H	-1.387431	-4.420219	0.005807
H	-0.233510	-4.419395	-1.369415
H	-0.694200	-1.450628	0.827337
$end

$rem
JOBTYPE		SP
EXCHANGE	HF
CORRELATION	pRIMP2
BASIS		cc-pvtz
METHOD		rimp2
AUX_BASIS	rimp2-cc-pvtz
SOLVENT_METHOD	PCM
PURECART	11111
SYMMETRY	false
MEM_TOTAL	110000
SCF_CONVERGENCE = 6
THRESH=10
GUI = 2
$end

$solvent
dielectric 4.90
$end
--------------------------------------------------------------

             Standard Nuclear Orientation (Angstroms)
    I     Atom           X                Y                Z
 ----------------------------------------------------------------
    1      C      -0.5542670000    -3.8878000000    -0.4665100000
    2      C       0.5071210000    -3.7014560000     0.4241730000
    3      C       0.8315750000    -2.3451700000     0.6972440000
    4      H       1.0483370000    -4.5452330000     0.8777890000
    5      C       0.0000000000    -1.4501350000     0.0000000000
    6      S      -1.1699110000    -2.3213340000    -0.9821500000
    7      C       1.9393740000    -1.9344390000     1.6270240000
    8      H       2.4488940000    -2.8197990000     2.0540100000
    9      H       1.5615450000    -1.3262100000     2.4752990000
   10      H       2.7087730000    -1.3253740000     1.1080510000
   11      C       0.0000000000     0.0000000000     0.0000000000
   12      C      -0.0030810000     0.8446050000     1.1130200000
   13      C      -0.0077720000     2.2355750000     0.8205780000
   14      H      -0.0017430000     0.4565100000     2.1428810000
   15      C      -0.0084270000     2.4837260000    -0.5635880000
   16      S      -0.0036910000     0.9706070000    -1.4647480000
   17      C      -0.0113550000     3.3001810000     1.8823800000
   18      H      -0.0099220000     2.8522330000     2.8949740000
   19      H      -0.9059440000     3.9532250000     1.8081370000
   20      H       0.8789010000     3.9591330000     1.8082300000
   21      H      -0.0117270000     3.4417520000    -1.0971140000
   22      H      -1.3874310000    -4.4202190000     0.0058070000
   23      H      -0.2335100000    -4.4193950000    -1.3694150000
   24      H      -0.6942000000    -1.4506280000     0.8273370000
 ----------------------------------------------------------------

   10   -1180.7628549039      4.96e-07  Convergence criterion met
 Total energy in the final basis set =    -1180.7628549039
        RIMP2         total energy =     -1182.7676175947 a.u.

                    Orbital Energies (a.u.)
 --------------------------------------------------------------

 Alpha MOs
 -- Occupied --
-91.9825 -91.9442 -11.2858 -11.2639 -11.2599 -11.2583 -11.2510 -11.2426
-11.2372 -11.2322 -11.2292 -11.2206  -8.9822  -8.9487  -6.6631  -6.6626
 -6.6620  -6.6301  -6.6291  -6.6278  -1.1989  -1.1532  -1.0579  -1.0280
 -1.0037  -0.9609  -0.9129  -0.9009  -0.8164  -0.7601  -0.7305  -0.7052
 -0.6602  -0.6440  -0.6109  -0.5904  -0.5837  -0.5703  -0.5613  -0.5533
 -0.5417  -0.5313  -0.5163  -0.5051  -0.4889  -0.4834  -0.4632  -0.4477
 -0.3567  -0.3422  -0.3199  -0.2730

          Ground-State Mulliken Net Atomic Charges

     Atom                 Charge (a.u.)
  ----------------------------------------
      1 C                    -0.075142
      2 C                    -0.324980
      3 C                    -0.044393
      4 H                     0.178052
      5 C                     0.103862
      6 S                    -0.176734
      7 C                    -0.270712
      8 H                     0.116356
      9 H                     0.098032
     10 H                     0.111849
     11 C                    -0.071456
     12 C                    -0.253760
     13 C                     0.018516
     14 H                     0.188122
     15 C                    -0.251646
     16 S                     0.008047
     17 C                    -0.272881
     18 H                     0.101503
     19 H                     0.108857
     20 H                     0.108258
     21 H                     0.196758
     22 H                     0.112266
     23 H                     0.111536
     24 H                     0.179691
  ----------------------------------------
  Sum of atomic charges =     0.000000

                    Cartesian Multipole Moments
 -----------------------------------------------------------------
    Charge (ESU x 10^10)
                -0.0000
    Dipole Moment (Debye)
         X       1.3228      Y       0.1743      Z       3.6303
       Tot       3.8677
    Quadrupole Moments (Debye-Ang)
        XX     -91.3850     XY      -1.7817     YY     -73.5512
        XZ       0.0417     YZ      -2.1849     ZZ     -86.2807

 Total job time:  55.27s(wall), 1816.50s(cpu)
        *  Thank you very much for using Q-Chem.  Have a nice day.  *
