 Q-Chem 5.4, Q-Chem, Inc., Pleasanton, CA (2021)
 Q-Chem 5.4.0 for Intel X86 EM64T Linux

User input:
--------------------------------------------------------------
$molecule
0 1
C	-0.713264	-3.887800	-0.126876
C	0.651267	-3.701456	0.113784
C	1.068787	-2.345170	0.188043
H	1.346782	-4.545233	0.236019
C	0.000000	-1.450135	0.000000
S	-1.504247	-2.321334	-0.265612
C	2.493059	-1.934439	0.439357
H	3.147809	-2.819799	0.554378
H	2.589987	-1.326210	1.362899
H	2.899892	-1.325374	-0.394786
C	0.000000	0.000000	0.000000
C	0.729909	0.424971	1.113020
C	1.932179	1.124518	0.820578
H	0.394478	0.229765	2.142881
C	2.146756	1.249161	-0.563588
S	0.838724	0.488500	-1.464748
C	2.852364	1.659924	1.882380
H	2.465145	1.434710	2.894974
H	2.970621	2.761183	1.808137
H	3.868160	1.218416	1.808230
H	2.974781	1.731032	-1.097114
H	-1.198647	-4.420219	0.698744
H	-0.886933	-4.419395	-1.069193
H	-0.187526	-1.450628	1.063595
$end

$rem
JOBTYPE		SP
EXCHANGE	HF
CORRELATION	pRIMP2
BASIS		cc-pvtz
METHOD		rimp2
AUX_BASIS	rimp2-cc-pvtz
SOLVENT_METHOD	PCM
PURECART	11111
SYMMETRY	false
MEM_TOTAL	110000
SCF_CONVERGENCE = 6
THRESH=10
GUI = 2
$end

$solvent
dielectric 4.90
$end
--------------------------------------------------------------

             Standard Nuclear Orientation (Angstroms)
    I     Atom           X                Y                Z
 ----------------------------------------------------------------
    1      C      -0.7132640000    -3.8878000000    -0.1268760000
    2      C       0.6512670000    -3.7014560000     0.1137840000
    3      C       1.0687870000    -2.3451700000     0.1880430000
    4      H       1.3467820000    -4.5452330000     0.2360190000
    5      C       0.0000000000    -1.4501350000     0.0000000000
    6      S      -1.5042470000    -2.3213340000    -0.2656120000
    7      C       2.4930590000    -1.9344390000     0.4393570000
    8      H       3.1478090000    -2.8197990000     0.5543780000
    9      H       2.5899870000    -1.3262100000     1.3628990000
   10      H       2.8998920000    -1.3253740000    -0.3947860000
   11      C       0.0000000000     0.0000000000     0.0000000000
   12      C       0.7299090000     0.4249710000     1.1130200000
   13      C       1.9321790000     1.1245180000     0.8205780000
   14      H       0.3944780000     0.2297650000     2.1428810000
   15      C       2.1467560000     1.2491610000    -0.5635880000
   16      S       0.8387240000     0.4885000000    -1.4647480000
   17      C       2.8523640000     1.6599240000     1.8823800000
   18      H       2.4651450000     1.4347100000     2.8949740000
   19      H       2.9706210000     2.7611830000     1.8081370000
   20      H       3.8681600000     1.2184160000     1.8082300000
   21      H       2.9747810000     1.7310320000    -1.0971140000
   22      H      -1.1986470000    -4.4202190000     0.6987440000
   23      H      -0.8869330000    -4.4193950000    -1.0691930000
   24      H      -0.1875260000    -1.4506280000     1.0635950000
 ----------------------------------------------------------------

   10   -1180.6859296413      8.95e-07  Convergence criterion met
 Total energy in the final basis set =    -1180.6859296413
        RIMP2         total energy =     -1182.7118503156 a.u.

                    Orbital Energies (a.u.)
 --------------------------------------------------------------

 Alpha MOs
 -- Occupied --
-91.9781 -91.9307 -11.2886 -11.2653 -11.2573 -11.2533 -11.2525 -11.2500
-11.2355 -11.2329 -11.2270 -11.2155  -8.9790  -8.9357  -6.6598  -6.6590
 -6.6587  -6.6171  -6.6161  -6.6149  -1.2067  -1.1539  -1.0590  -1.0236
 -1.0077  -0.9618  -0.9116  -0.9017  -0.8073  -0.7593  -0.7473  -0.7038
 -0.6545  -0.6368  -0.6153  -0.5940  -0.5861  -0.5741  -0.5639  -0.5510
 -0.5412  -0.5254  -0.5231  -0.5049  -0.4894  -0.4634  -0.4466  -0.4384
 -0.3500  -0.3429  -0.3180  -0.2728

          Ground-State Mulliken Net Atomic Charges

     Atom                 Charge (a.u.)
  ----------------------------------------
      1 C                    -0.072495
      2 C                    -0.323208
      3 C                    -0.024667
      4 H                     0.175062
      5 C                     0.092421
      6 S                    -0.221364
      7 C                    -0.316246
      8 H                     0.125238
      9 H                     0.105703
     10 H                     0.120030
     11 C                    -0.162224
     12 C                    -0.151162
     13 C                     0.010743
     14 H                     0.194668
     15 C                    -0.185855
     16 S                     0.007888
     17 C                    -0.275666
     18 H                     0.105981
     19 H                     0.120842
     20 H                     0.106636
     21 H                     0.202892
     22 H                     0.104235
     23 H                     0.106559
     24 H                     0.153990
  ----------------------------------------
  Sum of atomic charges =     0.000000

                    Cartesian Multipole Moments
 -----------------------------------------------------------------
    Charge (ESU x 10^10)
                -0.0000
    Dipole Moment (Debye)
         X       5.1749      Y       0.9540      Z       3.0634
       Tot       6.0889
    Quadrupole Moments (Debye-Ang)
        XX     -82.4843     XY       1.7752     YY     -83.8179
        XZ       0.4304     YZ      -1.3426     ZZ     -85.5713

 Total job time:  59.57s(wall), 2043.88s(cpu)
        *  Thank you very much for using Q-Chem.  Have a nice day.  *
