 Q-Chem 5.4, Q-Chem, Inc., Pleasanton, CA (2021)
 Q-Chem 5.4.0 for Intel X86 EM64T Linux

User input:
--------------------------------------------------------------
$molecule
0 1
C	0.464838	-3.887800	0.555670
C	-0.425760	-3.701456	-0.505790
C	-0.697866	-2.345170	-0.831053
H	-0.879984	-4.545233	-1.046496
C	-0.000000	-1.450135	-0.000000
S	0.981588	-2.321334	1.170382
C	-1.627381	-1.934439	-1.939074
H	-2.055015	-2.819799	-2.448051
H	-1.107991	-1.326210	-2.708853
H	-2.475210	-1.325374	-1.561590
C	0.000000	0.000000	0.000000
C	0.215623	0.816623	1.113020
C	0.571102	2.161411	0.820578
H	0.116470	0.441406	2.142881
C	0.634696	2.401276	-0.563588
S	0.247646	0.938489	-1.464748
C	0.843182	3.190669	1.882380
H	0.728628	2.757614	2.894974
H	0.148095	4.052998	1.808137
H	1.873652	3.596752	1.808230
H	0.879464	3.327513	-1.097114
H	1.367361	-4.420219	0.235206
H	-0.007834	-4.419395	1.389159
H	0.827319	-1.450628	-0.694221
$end

$rem
JOBTYPE		SP
EXCHANGE	HF
CORRELATION	pRIMP2
BASIS		cc-pvtz
METHOD		rimp2
AUX_BASIS	rimp2-cc-pvtz
SOLVENT_METHOD	PCM
PURECART	11111
SYMMETRY	false
MEM_TOTAL	110000
SCF_CONVERGENCE = 6
THRESH=10
GUI = 2
$end

$solvent
dielectric 4.90
$end
--------------------------------------------------------------

             Standard Nuclear Orientation (Angstroms)
    I     Atom           X                Y                Z
 ----------------------------------------------------------------
    1      C       0.4648380000    -3.8878000000     0.5556700000
    2      C      -0.4257600000    -3.7014560000    -0.5057900000
    3      C      -0.6978660000    -2.3451700000    -0.8310530000
    4      H      -0.8799840000    -4.5452330000    -1.0464960000
    5      C       0.0000000000    -1.4501350000     0.0000000000
    6      S       0.9815880000    -2.3213340000     1.1703820000
    7      C      -1.6273810000    -1.9344390000    -1.9390740000
    8      H      -2.0550150000    -2.8197990000    -2.4480510000
    9      H      -1.1079910000    -1.3262100000    -2.7088530000
   10      H      -2.4752100000    -1.3253740000    -1.5615900000
   11      C       0.0000000000     0.0000000000     0.0000000000
   12      C       0.2156230000     0.8166230000     1.1130200000
   13      C       0.5711020000     2.1614110000     0.8205780000
   14      H       0.1164700000     0.4414060000     2.1428810000
   15      C       0.6346960000     2.4012760000    -0.5635880000
   16      S       0.2476460000     0.9384890000    -1.4647480000
   17      C       0.8431820000     3.1906690000     1.8823800000
   18      H       0.7286280000     2.7576140000     2.8949740000
   19      H       0.1480950000     4.0529980000     1.8081370000
   20      H       1.8736520000     3.5967520000     1.8082300000
   21      H       0.8794640000     3.3275130000    -1.0971140000
   22      H       1.3673610000    -4.4202190000     0.2352060000
   23      H      -0.0078340000    -4.4193950000     1.3891590000
   24      H       0.8273190000    -1.4506280000    -0.6942210000
 ----------------------------------------------------------------

   10   -1180.7590816072      4.95e-07  Convergence criterion met
 Total energy in the final basis set =    -1180.7590816072
        RIMP2         total energy =     -1182.7634636554 a.u.

                    Orbital Energies (a.u.)
 --------------------------------------------------------------

 Alpha MOs
 -- Occupied --
-91.9827 -91.9453 -11.2856 -11.2629 -11.2603 -11.2593 -11.2505 -11.2427
-11.2347 -11.2326 -11.2282 -11.2214  -8.9828  -8.9496  -6.6638  -6.6633
 -6.6626  -6.6310  -6.6300  -6.6287  -1.2003  -1.1533  -1.0592  -1.0267
 -1.0053  -0.9590  -0.9153  -0.9010  -0.8132  -0.7694  -0.7261  -0.7037
 -0.6558  -0.6417  -0.6113  -0.5918  -0.5775  -0.5739  -0.5690  -0.5531
 -0.5420  -0.5331  -0.5137  -0.5070  -0.4880  -0.4859  -0.4609  -0.4474
 -0.3571  -0.3430  -0.3234  -0.2703

          Ground-State Mulliken Net Atomic Charges

     Atom                 Charge (a.u.)
  ----------------------------------------
      1 C                    -0.075180
      2 C                    -0.317836
      3 C                    -0.056010
      4 H                     0.177882
      5 C                     0.124280
      6 S                    -0.178146
      7 C                    -0.283123
      8 H                     0.116112
      9 H                     0.103756
     10 H                     0.113506
     11 C                    -0.041905
     12 C                    -0.309352
     13 C                     0.050062
     14 H                     0.184194
     15 C                    -0.261570
     16 S                     0.007045
     17 C                    -0.272121
     18 H                     0.103112
     19 H                     0.108146
     20 H                     0.108866
     21 H                     0.196853
     22 H                     0.111902
     23 H                     0.110847
     24 H                     0.178680
  ----------------------------------------
  Sum of atomic charges =     0.000000

                    Cartesian Multipole Moments
 -----------------------------------------------------------------
    Charge (ESU x 10^10)
                -0.0000
    Dipole Moment (Debye)
         X      -0.5238      Y       0.0552      Z      -0.8600
       Tot       1.0085
    Quadrupole Moments (Debye-Ang)
        XX     -90.6863     XY       3.7926     YY     -73.8751
        XZ       0.5833     YZ       4.9578     ZZ     -86.1420

 Total job time:  56.91s(wall), 1905.06s(cpu)
        *  Thank you very much for using Q-Chem.  Have a nice day.  *
