 Q-Chem 5.4, Q-Chem, Inc., Pleasanton, CA (2021)
 Q-Chem 5.4.0 for Intel X86 EM64T Linux

User input:
--------------------------------------------------------------
$molecule
0 1
C	-0.713264	-3.887800	-0.126876
C	0.651267	-3.701456	0.113784
C	1.068787	-2.345170	0.188043
H	1.346782	-4.545233	0.236019
C	0.000000	-1.450135	0.000000
S	-1.504247	-2.321334	-0.265612
C	2.493059	-1.934439	0.439357
H	3.147809	-2.819799	0.554378
H	2.589987	-1.326210	1.362899
H	2.899892	-1.325374	-0.394786
C	0.000000	0.000000	0.000000
C	0.645024	0.545262	1.113020
C	1.707554	1.442954	0.820578
H	0.348587	0.294774	2.142881
C	1.897227	1.602964	-0.563588
S	0.741155	0.626722	-1.464748
C	2.520787	2.130014	1.882380
H	2.178559	1.840981	2.894974
H	2.446016	3.235078	1.808137
H	3.597818	1.871604	1.808230
H	2.628997	2.221299	-1.097114
H	-1.198647	-4.420219	0.698744
H	-0.886933	-4.419395	-1.069193
H	-0.187526	-1.450628	1.063595
$end

$rem
JOBTYPE		SP
EXCHANGE	HF
CORRELATION	pRIMP2
BASIS		cc-pvtz
METHOD		rimp2
AUX_BASIS	rimp2-cc-pvtz
SOLVENT_METHOD	PCM
PURECART	11111
SYMMETRY	false
MEM_TOTAL	110000
SCF_CONVERGENCE = 6
THRESH=10
GUI = 2
$end

$solvent
dielectric 4.90
$end
--------------------------------------------------------------

             Standard Nuclear Orientation (Angstroms)
    I     Atom           X                Y                Z
 ----------------------------------------------------------------
    1      C      -0.7132640000    -3.8878000000    -0.1268760000
    2      C       0.6512670000    -3.7014560000     0.1137840000
    3      C       1.0687870000    -2.3451700000     0.1880430000
    4      H       1.3467820000    -4.5452330000     0.2360190000
    5      C       0.0000000000    -1.4501350000     0.0000000000
    6      S      -1.5042470000    -2.3213340000    -0.2656120000
    7      C       2.4930590000    -1.9344390000     0.4393570000
    8      H       3.1478090000    -2.8197990000     0.5543780000
    9      H       2.5899870000    -1.3262100000     1.3628990000
   10      H       2.8998920000    -1.3253740000    -0.3947860000
   11      C       0.0000000000     0.0000000000     0.0000000000
   12      C       0.6450240000     0.5452620000     1.1130200000
   13      C       1.7075540000     1.4429540000     0.8205780000
   14      H       0.3485870000     0.2947740000     2.1428810000
   15      C       1.8972270000     1.6029640000    -0.5635880000
   16      S       0.7411550000     0.6267220000    -1.4647480000
   17      C       2.5207870000     2.1300140000     1.8823800000
   18      H       2.1785590000     1.8409810000     2.8949740000
   19      H       2.4460160000     3.2350780000     1.8081370000
   20      H       3.5978180000     1.8716040000     1.8082300000
   21      H       2.6289970000     2.2212990000    -1.0971140000
   22      H      -1.1986470000    -4.4202190000     0.6987440000
   23      H      -0.8869330000    -4.4193950000    -1.0691930000
   24      H      -0.1875260000    -1.4506280000     1.0635950000
 ----------------------------------------------------------------

   10   -1180.7145118651      7.93e-07  Convergence criterion met
 Total energy in the final basis set =    -1180.7145118651
        RIMP2         total energy =     -1182.7331967756 a.u.

                    Orbital Energies (a.u.)
 --------------------------------------------------------------

 Alpha MOs
 -- Occupied --
-91.9788 -91.9330 -11.2824 -11.2615 -11.2590 -11.2583 -11.2531 -11.2512
-11.2368 -11.2319 -11.2287 -11.2164  -8.9795  -8.9379  -6.6603  -6.6596
 -6.6592  -6.6193  -6.6183  -6.6170  -1.2019  -1.1544  -1.0578  -1.0232
 -1.0066  -0.9617  -0.9105  -0.9022  -0.8087  -0.7589  -0.7432  -0.7037
 -0.6557  -0.6375  -0.6131  -0.5921  -0.5828  -0.5728  -0.5652  -0.5512
 -0.5409  -0.5256  -0.5225  -0.5046  -0.4900  -0.4639  -0.4539  -0.4426
 -0.3511  -0.3430  -0.3170  -0.2756

          Ground-State Mulliken Net Atomic Charges

     Atom                 Charge (a.u.)
  ----------------------------------------
      1 C                    -0.073142
      2 C                    -0.325723
      3 C                    -0.026680
      4 H                     0.175918
      5 C                     0.078802
      6 S                    -0.210447
      7 C                    -0.299423
      8 H                     0.123363
      9 H                     0.104452
     10 H                     0.115193
     11 C                    -0.104983
     12 C                    -0.218713
     13 C                     0.038335
     14 H                     0.191778
     15 C                    -0.204630
     16 S                     0.007069
     17 C                    -0.269405
     18 H                     0.103784
     19 H                     0.114210
     20 H                     0.106718
     21 H                     0.200852
     22 H                     0.105572
     23 H                     0.107313
     24 H                     0.159789
  ----------------------------------------
  Sum of atomic charges =     0.000000

                    Cartesian Multipole Moments
 -----------------------------------------------------------------
    Charge (ESU x 10^10)
                -0.0000
    Dipole Moment (Debye)
         X       4.5196      Y       1.0210      Z       2.9648
       Tot       5.5008
    Quadrupole Moments (Debye-Ang)
        XX     -84.9072     XY       2.2516     YY     -81.2768
        XZ       0.4241     YZ      -1.2770     ZZ     -85.7847

 Total job time:  58.11s(wall), 1999.48s(cpu)
        *  Thank you very much for using Q-Chem.  Have a nice day.  *
