 Q-Chem 5.4, Q-Chem, Inc., Pleasanton, CA (2021)
 Q-Chem 5.4.0 for Intel X86 EM64T Linux

User input:
--------------------------------------------------------------
$molecule
0 1
C	0.363176	-3.887800	-0.626855
C	-0.329669	-3.701456	0.573074
C	-0.542250	-2.345170	0.940016
H	-0.682412	-4.545233	1.184837
C	0.000000	-1.450135	0.000000
S	0.764076	-2.321334	-1.322686
C	-1.265537	-1.934439	2.192440
H	-1.597559	-2.819799	2.768365
H	-2.166534	-1.326210	1.967653
H	-0.620843	-1.325374	2.860032
C	0.000000	0.000000	0.000000
C	0.419634	0.732990	1.113020
C	1.111057	1.939951	0.820578
H	0.226746	0.396221	2.142881
C	1.234565	2.155183	-0.563588
S	0.482106	0.842416	-1.464748
C	1.640257	2.863718	1.882380
H	1.417524	2.475067	2.894974
H	1.192042	3.876565	1.808137
H	2.740717	2.989259	1.808230
H	1.710720	2.986508	-1.097114
H	-0.246643	-4.420219	-1.365344
H	1.308062	-4.419395	-0.467758
H	-0.935314	-1.450628	-0.539988
$end

$rem
JOBTYPE		SP
EXCHANGE	HF
CORRELATION	pRIMP2
BASIS		cc-pvtz
METHOD		rimp2
AUX_BASIS	rimp2-cc-pvtz
SOLVENT_METHOD	PCM
PURECART	11111
SYMMETRY	false
MEM_TOTAL	110000
SCF_CONVERGENCE = 6
THRESH=10
GUI = 2
$end

$solvent
dielectric 4.90
$end
--------------------------------------------------------------

             Standard Nuclear Orientation (Angstroms)
    I     Atom           X                Y                Z
 ----------------------------------------------------------------
    1      C       0.3631760000    -3.8878000000    -0.6268550000
    2      C      -0.3296690000    -3.7014560000     0.5730740000
    3      C      -0.5422500000    -2.3451700000     0.9400160000
    4      H      -0.6824120000    -4.5452330000     1.1848370000
    5      C       0.0000000000    -1.4501350000     0.0000000000
    6      S       0.7640760000    -2.3213340000    -1.3226860000
    7      C      -1.2655370000    -1.9344390000     2.1924400000
    8      H      -1.5975590000    -2.8197990000     2.7683650000
    9      H      -2.1665340000    -1.3262100000     1.9676530000
   10      H      -0.6208430000    -1.3253740000     2.8600320000
   11      C       0.0000000000     0.0000000000     0.0000000000
   12      C       0.4196340000     0.7329900000     1.1130200000
   13      C       1.1110570000     1.9399510000     0.8205780000
   14      H       0.2267460000     0.3962210000     2.1428810000
   15      C       1.2345650000     2.1551830000    -0.5635880000
   16      S       0.4821060000     0.8424160000    -1.4647480000
   17      C       1.6402570000     2.8637180000     1.8823800000
   18      H       1.4175240000     2.4750670000     2.8949740000
   19      H       1.1920420000     3.8765650000     1.8081370000
   20      H       2.7407170000     2.9892590000     1.8082300000
   21      H       1.7107200000     2.9865080000    -1.0971140000
   22      H      -0.2466430000    -4.4202190000    -1.3653440000
   23      H       1.3080620000    -4.4193950000    -0.4677580000
   24      H      -0.9353140000    -1.4506280000    -0.5399880000
 ----------------------------------------------------------------

   10   -1180.7367052549      5.61e-07  Convergence criterion met
 Total energy in the final basis set =    -1180.7367052549
        RIMP2         total energy =     -1182.7472012732 a.u.

                    Orbital Energies (a.u.)
 --------------------------------------------------------------

 Alpha MOs
 -- Occupied --
-91.9839 -91.9438 -11.2786 -11.2643 -11.2635 -11.2551 -11.2508 -11.2413
-11.2372 -11.2329 -11.2287 -11.2193  -8.9838  -8.9483  -6.6647  -6.6641
 -6.6635  -6.6296  -6.6286  -6.6273  -1.1994  -1.1533  -1.0574  -1.0301
 -0.9998  -0.9637  -0.9133  -0.9006  -0.8153  -0.7589  -0.7371  -0.7047
 -0.6531  -0.6396  -0.6106  -0.5920  -0.5835  -0.5679  -0.5662  -0.5517
 -0.5445  -0.5330  -0.5177  -0.5045  -0.4874  -0.4759  -0.4672  -0.4442
 -0.3566  -0.3425  -0.3237  -0.2635

          Ground-State Mulliken Net Atomic Charges

     Atom                 Charge (a.u.)
  ----------------------------------------
      1 C                    -0.078520
      2 C                    -0.325410
      3 C                    -0.041213
      4 H                     0.177050
      5 C                     0.089081
      6 S                    -0.172662
      7 C                    -0.291086
      8 H                     0.118139
      9 H                     0.110537
     10 H                     0.102667
     11 C                    -0.084673
     12 C                    -0.222786
     13 C                     0.018712
     14 H                     0.193097
     15 C                    -0.235484
     16 S                     0.000671
     17 C                    -0.271747
     18 H                     0.100750
     19 H                     0.108187
     20 H                     0.107866
     21 H                     0.199119
     22 H                     0.109626
     23 H                     0.112946
     24 H                     0.175134
  ----------------------------------------
  Sum of atomic charges =     0.000000

                    Cartesian Multipole Moments
 -----------------------------------------------------------------
    Charge (ESU x 10^10)
                -0.0000
    Dipole Moment (Debye)
         X      -0.9730      Y       0.2963      Z       3.0831
       Tot       3.2466
    Quadrupole Moments (Debye-Ang)
        XX     -89.3312     XY       7.6815     YY     -76.2394
        XZ       0.4741     YZ      -1.4701     ZZ     -85.4399

 Total job time:  86.39s(wall), 3765.17s(cpu)
        *  Thank you very much for using Q-Chem.  Have a nice day.  *
