 Q-Chem 5.4, Q-Chem, Inc., Pleasanton, CA (2021)
 Q-Chem 5.4.0 for Intel X86 EM64T Linux

User input:
--------------------------------------------------------------
$molecule
0 1
C	0.554267	-3.887800	0.466510
C	-0.507121	-3.701456	-0.424173
C	-0.831575	-2.345170	-0.697244
H	-1.048337	-4.545233	-0.877789
C	0.000000	-1.450135	0.000000
S	1.169911	-2.321334	0.982150
C	-1.939374	-1.934439	-1.627024
H	-2.448894	-2.819799	-2.054010
H	-1.561545	-1.326210	-2.475299
H	-2.708773	-1.325374	-1.108051
C	0.000000	0.000000	0.000000
C	0.419634	0.732990	1.113020
C	1.111057	1.939951	0.820578
H	0.226746	0.396221	2.142881
C	1.234565	2.155183	-0.563588
S	0.482106	0.842416	-1.464748
C	1.640257	2.863718	1.882380
H	1.417524	2.475067	2.894974
H	1.192042	3.876565	1.808137
H	2.740717	2.989259	1.808230
H	1.710720	2.986508	-1.097114
H	1.387431	-4.420219	-0.005807
H	0.233510	-4.419395	1.369415
H	0.694200	-1.450628	-0.827337
$end

$rem
JOBTYPE		SP
EXCHANGE	HF
CORRELATION	pRIMP2
BASIS		cc-pvtz
METHOD		rimp2
AUX_BASIS	rimp2-cc-pvtz
SOLVENT_METHOD	PCM
PURECART	11111
SYMMETRY	false
MEM_TOTAL	110000
SCF_CONVERGENCE = 6
THRESH=10
GUI = 2
$end

$solvent
dielectric 4.90
$end
--------------------------------------------------------------

             Standard Nuclear Orientation (Angstroms)
    I     Atom           X                Y                Z
 ----------------------------------------------------------------
    1      C       0.5542670000    -3.8878000000     0.4665100000
    2      C      -0.5071210000    -3.7014560000    -0.4241730000
    3      C      -0.8315750000    -2.3451700000    -0.6972440000
    4      H      -1.0483370000    -4.5452330000    -0.8777890000
    5      C       0.0000000000    -1.4501350000     0.0000000000
    6      S       1.1699110000    -2.3213340000     0.9821500000
    7      C      -1.9393740000    -1.9344390000    -1.6270240000
    8      H      -2.4488940000    -2.8197990000    -2.0540100000
    9      H      -1.5615450000    -1.3262100000    -2.4752990000
   10      H      -2.7087730000    -1.3253740000    -1.1080510000
   11      C       0.0000000000     0.0000000000     0.0000000000
   12      C       0.4196340000     0.7329900000     1.1130200000
   13      C       1.1110570000     1.9399510000     0.8205780000
   14      H       0.2267460000     0.3962210000     2.1428810000
   15      C       1.2345650000     2.1551830000    -0.5635880000
   16      S       0.4821060000     0.8424160000    -1.4647480000
   17      C       1.6402570000     2.8637180000     1.8823800000
   18      H       1.4175240000     2.4750670000     2.8949740000
   19      H       1.1920420000     3.8765650000     1.8081370000
   20      H       2.7407170000     2.9892590000     1.8082300000
   21      H       1.7107200000     2.9865080000    -1.0971140000
   22      H       1.3874310000    -4.4202190000    -0.0058070000
   23      H       0.2335100000    -4.4193950000     1.3694150000
   24      H       0.6942000000    -1.4506280000    -0.8273370000
 ----------------------------------------------------------------

   10   -1180.7450677569      5.24e-07  Convergence criterion met
 Total energy in the final basis set =    -1180.7450677569
        RIMP2         total energy =     -1182.7525466121 a.u.

                    Orbital Energies (a.u.)
 --------------------------------------------------------------

 Alpha MOs
 -- Occupied --
-91.9815 -91.9430 -11.2789 -11.2663 -11.2599 -11.2553 -11.2511 -11.2407
-11.2403 -11.2318 -11.2287 -11.2184  -8.9820  -8.9474  -6.6629  -6.6623
 -6.6616  -6.6287  -6.6277  -6.6265  -1.2001  -1.1536  -1.0585  -1.0259
 -1.0041  -0.9599  -0.9142  -0.9006  -0.8111  -0.7681  -0.7302  -0.7031
 -0.6540  -0.6380  -0.6117  -0.5900  -0.5764  -0.5752  -0.5687  -0.5524
 -0.5416  -0.5329  -0.5129  -0.5074  -0.4872  -0.4796  -0.4621  -0.4465
 -0.3552  -0.3435  -0.3220  -0.2699

          Ground-State Mulliken Net Atomic Charges

     Atom                 Charge (a.u.)
  ----------------------------------------
      1 C                    -0.075644
      2 C                    -0.323655
      3 C                    -0.046402
      4 H                     0.175847
      5 C                     0.092054
      6 S                    -0.179751
      7 C                    -0.276066
      8 H                     0.115088
      9 H                     0.101341
     10 H                     0.109934
     11 C                    -0.034911
     12 C                    -0.309572
     13 C                     0.058058
     14 H                     0.187042
     15 C                    -0.244530
     16 S                     0.006389
     17 C                    -0.269526
     18 H                     0.103216
     19 H                     0.108218
     20 H                     0.108490
     21 H                     0.197790
     22 H                     0.110294
     23 H                     0.108934
     24 H                     0.177363
  ----------------------------------------
  Sum of atomic charges =     0.000000

                    Cartesian Multipole Moments
 -----------------------------------------------------------------
    Charge (ESU x 10^10)
                -0.0000
    Dipole Moment (Debye)
         X      -0.3705      Y       0.4226      Z      -0.5180
       Tot       0.7643
    Quadrupole Moments (Debye-Ang)
        XX     -88.6557     XY       6.5759     YY     -76.5076
        XZ       0.6422     YZ       4.5239     ZZ     -86.0952

 Total job time:  77.16s(wall), 3347.22s(cpu)
        *  Thank you very much for using Q-Chem.  Have a nice day.  *
