 Q-Chem 5.4, Q-Chem, Inc., Pleasanton, CA (2021)
 Q-Chem 5.4.0 for Intel X86 EM64T Linux

User input:
--------------------------------------------------------------
$molecule
0 1
C	0.464838	-3.887800	0.555670
C	-0.425760	-3.701456	-0.505790
C	-0.697866	-2.345170	-0.831053
H	-0.879984	-4.545233	-1.046496
C	0.000000	-1.450135	0.000000
S	0.981588	-2.321334	1.170382
C	-1.627381	-1.934439	-1.939074
H	-2.055015	-2.819799	-2.448051
H	-1.107991	-1.326210	-2.708853
H	-2.475210	-1.325374	-1.561590
C	0.000000	0.000000	0.000000
C	0.143630	0.832309	1.113020
C	0.380550	2.202961	0.820578
H	0.077556	0.449877	2.142881
C	0.422995	2.447456	-0.563588
S	0.164909	0.956502	-1.464748
C	0.561888	3.252016	1.882380
H	0.485513	2.810624	2.894974
H	-0.205711	4.050482	1.808137
H	1.553045	3.746365	1.808230
H	0.586105	3.391501	-1.097114
H	1.367361	-4.420219	0.235206
H	-0.007834	-4.419395	1.389159
H	0.827319	-1.450628	-0.694221
$end

$rem
JOBTYPE		SP
EXCHANGE	HF
CORRELATION	pRIMP2
BASIS		cc-pvtz
METHOD		rimp2
AUX_BASIS	rimp2-cc-pvtz
SOLVENT_METHOD	PCM
PURECART	11111
SYMMETRY	false
MEM_TOTAL	110000
SCF_CONVERGENCE = 6
THRESH=10
GUI = 2
$end

$solvent
dielectric 4.90
$end
--------------------------------------------------------------

             Standard Nuclear Orientation (Angstroms)
    I     Atom           X                Y                Z
 ----------------------------------------------------------------
    1      C       0.4648380000    -3.8878000000     0.5556700000
    2      C      -0.4257600000    -3.7014560000    -0.5057900000
    3      C      -0.6978660000    -2.3451700000    -0.8310530000
    4      H      -0.8799840000    -4.5452330000    -1.0464960000
    5      C       0.0000000000    -1.4501350000     0.0000000000
    6      S       0.9815880000    -2.3213340000     1.1703820000
    7      C      -1.6273810000    -1.9344390000    -1.9390740000
    8      H      -2.0550150000    -2.8197990000    -2.4480510000
    9      H      -1.1079910000    -1.3262100000    -2.7088530000
   10      H      -2.4752100000    -1.3253740000    -1.5615900000
   11      C       0.0000000000     0.0000000000     0.0000000000
   12      C       0.1436300000     0.8323090000     1.1130200000
   13      C       0.3805500000     2.2029610000     0.8205780000
   14      H       0.0775560000     0.4498770000     2.1428810000
   15      C       0.4229950000     2.4474560000    -0.5635880000
   16      S       0.1649090000     0.9565020000    -1.4647480000
   17      C       0.5618880000     3.2520160000     1.8823800000
   18      H       0.4855130000     2.8106240000     2.8949740000
   19      H      -0.2057110000     4.0504820000     1.8081370000
   20      H       1.5530450000     3.7463650000     1.8082300000
   21      H       0.5861050000     3.3915010000    -1.0971140000
   22      H       1.3673610000    -4.4202190000     0.2352060000
   23      H      -0.0078340000    -4.4193950000     1.3891590000
   24      H       0.8273190000    -1.4506280000    -0.6942210000
 ----------------------------------------------------------------

   10   -1180.7609635472      4.93e-07  Convergence criterion met
 Total energy in the final basis set =    -1180.7609635472
        RIMP2         total energy =     -1182.7649466880 a.u.

                    Orbital Energies (a.u.)
 --------------------------------------------------------------

 Alpha MOs
 -- Occupied --
-91.9832 -91.9455 -11.2862 -11.2634 -11.2597 -11.2596 -11.2504 -11.2430
-11.2340 -11.2325 -11.2281 -11.2216  -8.9832  -8.9498  -6.6642  -6.6637
 -6.6630  -6.6312  -6.6302  -6.6289  -1.2001  -1.1532  -1.0592  -1.0267
 -1.0055  -0.9590  -0.9153  -0.9011  -0.8135  -0.7694  -0.7260  -0.7039
 -0.6558  -0.6418  -0.6112  -0.5920  -0.5775  -0.5736  -0.5691  -0.5531
 -0.5420  -0.5329  -0.5137  -0.5068  -0.4885  -0.4865  -0.4608  -0.4476
 -0.3573  -0.3429  -0.3232  -0.2707

          Ground-State Mulliken Net Atomic Charges

     Atom                 Charge (a.u.)
  ----------------------------------------
      1 C                    -0.075307
      2 C                    -0.318474
      3 C                    -0.058456
      4 H                     0.178255
      5 C                     0.136074
      6 S                    -0.177503
      7 C                    -0.283287
      8 H                     0.116191
      9 H                     0.103563
     10 H                     0.114163
     11 C                    -0.060197
     12 C                    -0.292522
     13 C                     0.042187
     14 H                     0.184460
     15 C                    -0.261092
     16 S                     0.006928
     17 C                    -0.272628
     18 H                     0.103082
     19 H                     0.108098
     20 H                     0.108756
     21 H                     0.197071
     22 H                     0.112229
     23 H                     0.111278
     24 H                     0.177130
  ----------------------------------------
  Sum of atomic charges =     0.000000

                    Cartesian Multipole Moments
 -----------------------------------------------------------------
    Charge (ESU x 10^10)
                -0.0000
    Dipole Moment (Debye)
         X      -0.6699      Y       0.0434      Z      -0.8888
       Tot       1.1138
    Quadrupole Moments (Debye-Ang)
        XX     -91.0782     XY       2.9449     YY     -73.4607
        XZ       0.4902     YZ       4.9622     ZZ     -86.1424

 Total job time:  53.22s(wall), 1852.43s(cpu)
        *  Thank you very much for using Q-Chem.  Have a nice day.  *
