 Q-Chem 5.4, Q-Chem, Inc., Pleasanton, CA (2021)
 Q-Chem 5.4.0 for Intel X86 EM64T Linux

User input:
--------------------------------------------------------------
$molecule
0 1
C	0.001092	-3.887800	-0.724460
C	0.001036	-3.701456	0.661131
C	0.000406	-2.345170	1.085203
H	0.001433	-4.545233	1.367305
C	0.000000	-1.450135	0.000000
S	0.000367	-2.321334	-1.527517
C	0.000233	-1.934439	2.531478
H	0.000656	-2.819799	3.196254
H	-0.892447	-1.326210	2.787305
H	0.892350	-1.325374	2.787282
C	0.000000	0.000000	0.000000
C	0.645024	0.545262	1.113020
C	1.707554	1.442954	0.820578
H	0.348587	0.294774	2.142881
C	1.897227	1.602964	-0.563588
S	0.741155	0.626722	-1.464748
C	2.520787	2.130014	1.882380
H	2.178559	1.840981	2.894974
H	2.446016	3.235078	1.808137
H	3.597818	1.871604	1.808230
H	2.628997	2.221299	-1.097114
H	-0.896272	-4.420219	-1.059101
H	0.898936	-4.419395	-1.059122
H	-1.080000	-1.450628	0.000014
$end

$rem
JOBTYPE		SP
EXCHANGE	HF
CORRELATION	pRIMP2
BASIS		cc-pvtz
METHOD		rimp2
AUX_BASIS	rimp2-cc-pvtz
SOLVENT_METHOD	PCM
PURECART	11111
SYMMETRY	false
MEM_TOTAL	110000
SCF_CONVERGENCE = 6
THRESH=10
GUI = 2
$end

$solvent
dielectric 4.90
$end
--------------------------------------------------------------

             Standard Nuclear Orientation (Angstroms)
    I     Atom           X                Y                Z
 ----------------------------------------------------------------
    1      C       0.0010920000    -3.8878000000    -0.7244600000
    2      C       0.0010360000    -3.7014560000     0.6611310000
    3      C       0.0004060000    -2.3451700000     1.0852030000
    4      H       0.0014330000    -4.5452330000     1.3673050000
    5      C       0.0000000000    -1.4501350000     0.0000000000
    6      S       0.0003670000    -2.3213340000    -1.5275170000
    7      C       0.0002330000    -1.9344390000     2.5314780000
    8      H       0.0006560000    -2.8197990000     3.1962540000
    9      H      -0.8924470000    -1.3262100000     2.7873050000
   10      H       0.8923500000    -1.3253740000     2.7872820000
   11      C       0.0000000000     0.0000000000     0.0000000000
   12      C       0.6450240000     0.5452620000     1.1130200000
   13      C       1.7075540000     1.4429540000     0.8205780000
   14      H       0.3485870000     0.2947740000     2.1428810000
   15      C       1.8972270000     1.6029640000    -0.5635880000
   16      S       0.7411550000     0.6267220000    -1.4647480000
   17      C       2.5207870000     2.1300140000     1.8823800000
   18      H       2.1785590000     1.8409810000     2.8949740000
   19      H       2.4460160000     3.2350780000     1.8081370000
   20      H       3.5978180000     1.8716040000     1.8082300000
   21      H       2.6289970000     2.2212990000    -1.0971140000
   22      H      -0.8962720000    -4.4202190000    -1.0591010000
   23      H       0.8989360000    -4.4193950000    -1.0591220000
   24      H      -1.0800000000    -1.4506280000     0.0000140000
 ----------------------------------------------------------------

   11   -1180.6884228095      5.21e-07  Convergence criterion met
 Total energy in the final basis set =    -1180.6884228095
        RIMP2         total energy =     -1182.7122509710 a.u.

                    Orbital Energies (a.u.)
 --------------------------------------------------------------

 Alpha MOs
 -- Occupied --
-91.9789 -91.9411 -11.2737 -11.2637 -11.2622 -11.2506 -11.2501 -11.2446
-11.2396 -11.2326 -11.2296 -11.2150  -8.9795  -8.9457  -6.6603  -6.6595
 -6.6591  -6.6270  -6.6260  -6.6247  -1.2013  -1.1528  -1.0569  -1.0323
 -0.9977  -0.9644  -0.9141  -0.9010  -0.8127  -0.7589  -0.7318  -0.7113
 -0.6496  -0.6431  -0.6110  -0.5962  -0.5882  -0.5686  -0.5632  -0.5467
 -0.5450  -0.5342  -0.5233  -0.5036  -0.4801  -0.4727  -0.4543  -0.4373
 -0.3610  -0.3392  -0.3223  -0.2542

          Ground-State Mulliken Net Atomic Charges

     Atom                 Charge (a.u.)
  ----------------------------------------
      1 C                    -0.076737
      2 C                    -0.336480
      3 C                    -0.033730
      4 H                     0.176388
      5 C                     0.076564
      6 S                    -0.187802
      7 C                    -0.290730
      8 H                     0.120523
      9 H                     0.105096
     10 H                     0.104181
     11 C                    -0.100256
     12 C                    -0.214303
     13 C                     0.015841
     14 H                     0.196903
     15 C                    -0.219321
     16 S                     0.020805
     17 C                    -0.271279
     18 H                     0.100700
     19 H                     0.109724
     20 H                     0.106703
     21 H                     0.198908
     22 H                     0.109123
     23 H                     0.110799
     24 H                     0.178380
  ----------------------------------------
  Sum of atomic charges =     0.000000

                    Cartesian Multipole Moments
 -----------------------------------------------------------------
    Charge (ESU x 10^10)
                -0.0000
    Dipole Moment (Debye)
         X       1.0338      Y       0.3900      Z       3.9779
       Tot       4.1285
    Quadrupole Moments (Debye-Ang)
        XX     -85.1096     XY       6.8927     YY     -81.1376
        XZ       0.9090     YZ      -2.7849     ZZ     -85.2562

 Total job time:  64.03s(wall), 2142.59s(cpu)
        *  Thank you very much for using Q-Chem.  Have a nice day.  *
