 Q-Chem 5.4, Q-Chem, Inc., Pleasanton, CA (2021)
 Q-Chem 5.4.0 for Intel X86 EM64T Linux

User input:
--------------------------------------------------------------
$molecule
0 1
C	-0.248806	-3.887800	0.680396
C	0.225147	-3.701456	-0.621614
C	0.370780	-2.345170	-1.019896
H	0.466300	-4.545233	-1.285337
C	0.000000	-1.450135	0.000000
S	-0.522786	-2.321334	1.435271
C	0.865597	-1.934439	-2.378891
H	1.092567	-2.819799	-3.003720
H	1.791940	-1.326210	-2.313975
H	0.114772	-1.325374	-2.924390
C	0.000000	0.000000	0.000000
C	0.354153	0.766774	1.113020
C	0.937751	2.029404	0.820578
H	0.191350	0.414475	2.142881
C	1.042030	2.254581	-0.563588
S	0.406851	0.881228	-1.464748
C	1.384426	2.995779	1.882380
H	1.196413	2.589194	2.894974
H	0.849641	3.965707	1.808137
H	2.469756	3.216753	1.808230
H	1.443919	3.124243	-1.097114
H	0.479986	-4.420219	1.301772
H	-1.206964	-4.419395	0.687795
H	1.014873	-1.450628	0.369368
$end

$rem
JOBTYPE		SP
EXCHANGE	HF
CORRELATION	pRIMP2
BASIS		cc-pvtz
METHOD		rimp2
AUX_BASIS	rimp2-cc-pvtz
SOLVENT_METHOD	PCM
PURECART	11111
SYMMETRY	false
MEM_TOTAL	110000
SCF_CONVERGENCE = 6
THRESH=10
GUI = 2
$end

$solvent
dielectric 4.90
$end
--------------------------------------------------------------

             Standard Nuclear Orientation (Angstroms)
    I     Atom           X                Y                Z
 ----------------------------------------------------------------
    1      C      -0.2488060000    -3.8878000000     0.6803960000
    2      C       0.2251470000    -3.7014560000    -0.6216140000
    3      C       0.3707800000    -2.3451700000    -1.0198960000
    4      H       0.4663000000    -4.5452330000    -1.2853370000
    5      C       0.0000000000    -1.4501350000     0.0000000000
    6      S      -0.5227860000    -2.3213340000     1.4352710000
    7      C       0.8655970000    -1.9344390000    -2.3788910000
    8      H       1.0925670000    -2.8197990000    -3.0037200000
    9      H       1.7919400000    -1.3262100000    -2.3139750000
   10      H       0.1147720000    -1.3253740000    -2.9243900000
   11      C       0.0000000000     0.0000000000     0.0000000000
   12      C       0.3541530000     0.7667740000     1.1130200000
   13      C       0.9377510000     2.0294040000     0.8205780000
   14      H       0.1913500000     0.4144750000     2.1428810000
   15      C       1.0420300000     2.2545810000    -0.5635880000
   16      S       0.4068510000     0.8812280000    -1.4647480000
   17      C       1.3844260000     2.9957790000     1.8823800000
   18      H       1.1964130000     2.5891940000     2.8949740000
   19      H       0.8496410000     3.9657070000     1.8081370000
   20      H       2.4697560000     3.2167530000     1.8082300000
   21      H       1.4439190000     3.1242430000    -1.0971140000
   22      H       0.4799860000    -4.4202190000     1.3017720000
   23      H      -1.2069640000    -4.4193950000     0.6877950000
   24      H       1.0148730000    -1.4506280000     0.3693680000
 ----------------------------------------------------------------

   10   -1180.7441091940      5.03e-07  Convergence criterion met
 Total energy in the final basis set =    -1180.7441091940
        RIMP2         total energy =     -1182.7542149979 a.u.

                    Orbital Energies (a.u.)
 --------------------------------------------------------------

 Alpha MOs
 -- Occupied --
-91.9813 -91.9450 -11.2871 -11.2643 -11.2608 -11.2563 -11.2502 -11.2436
-11.2310 -11.2308 -11.2279 -11.2212  -8.9815  -8.9496  -6.6623  -6.6618
 -6.6611  -6.6310  -6.6300  -6.6287  -1.2022  -1.1522  -1.0594  -1.0272
 -1.0070  -0.9555  -0.9146  -0.9024  -0.8116  -0.7708  -0.7195  -0.7019
 -0.6625  -0.6461  -0.6112  -0.5871  -0.5820  -0.5730  -0.5685  -0.5537
 -0.5419  -0.5321  -0.5159  -0.5113  -0.4921  -0.4774  -0.4555  -0.4458
 -0.3575  -0.3408  -0.3254  -0.2638

          Ground-State Mulliken Net Atomic Charges

     Atom                 Charge (a.u.)
  ----------------------------------------
      1 C                    -0.073351
      2 C                    -0.319449
      3 C                    -0.039845
      4 H                     0.179444
      5 C                     0.074180
      6 S                    -0.184683
      7 C                    -0.299745
      8 H                     0.116079
      9 H                     0.114829
     10 H                     0.110065
     11 C                    -0.006251
     12 C                    -0.291791
     13 C                     0.037968
     14 H                     0.178761
     15 C                    -0.271608
     16 S                     0.011828
     17 C                    -0.270214
     18 H                     0.102887
     19 H                     0.108597
     20 H                     0.107156
     21 H                     0.197122
     22 H                     0.110798
     23 H                     0.113355
     24 H                     0.193867
  ----------------------------------------
  Sum of atomic charges =     0.000000

                    Cartesian Multipole Moments
 -----------------------------------------------------------------
    Charge (ESU x 10^10)
                -0.0000
    Dipole Moment (Debye)
         X       2.3097      Y      -0.2927      Z      -0.7088
       Tot       2.4337
    Quadrupole Moments (Debye-Ang)
        XX     -90.0676     XY       1.1724     YY     -75.7388
        XZ       0.5629     YZ       3.8990     ZZ     -85.3417

 Total job time:  59.11s(wall), 1942.36s(cpu)
        *  Thank you very much for using Q-Chem.  Have a nice day.  *
