 Q-Chem 5.4, Q-Chem, Inc., Pleasanton, CA (2021)
 Q-Chem 5.4.0 for Intel X86 EM64T Linux

User input:
--------------------------------------------------------------
$molecule
0 1
C	-0.724460	-3.887800	-0.001092
C	0.661131	-3.701456	-0.001036
C	1.085203	-2.345170	-0.000406
H	1.367305	-4.545233	-0.001433
C	-0.000000	-1.450135	-0.000000
S	-1.527517	-2.321334	-0.000367
C	2.531478	-1.934439	-0.000233
H	3.196254	-2.819799	-0.000656
H	2.787305	-1.326210	0.892447
H	2.787282	-1.325374	-0.892350
C	0.000000	0.000000	0.000000
C	0.215623	0.816623	1.113020
C	0.571102	2.161411	0.820578
H	0.116470	0.441406	2.142881
C	0.634696	2.401276	-0.563588
S	0.247646	0.938489	-1.464748
C	0.843182	3.190669	1.882380
H	0.728628	2.757614	2.894974
H	0.148095	4.052998	1.808137
H	1.873652	3.596752	1.808230
H	0.879464	3.327513	-1.097114
H	-1.059101	-4.420219	0.896272
H	-1.059122	-4.419395	-0.898936
H	0.000014	-1.450628	1.080000
$end

$rem
JOBTYPE		SP
EXCHANGE	HF
CORRELATION	pRIMP2
BASIS		cc-pvtz
METHOD		rimp2
AUX_BASIS	rimp2-cc-pvtz
SOLVENT_METHOD	PCM
PURECART	11111
SYMMETRY	false
MEM_TOTAL	110000
SCF_CONVERGENCE = 6
THRESH=10
GUI = 2
$end

$solvent
dielectric 4.90
$end
--------------------------------------------------------------

             Standard Nuclear Orientation (Angstroms)
    I     Atom           X                Y                Z
 ----------------------------------------------------------------
    1      C      -0.7244600000    -3.8878000000    -0.0010920000
    2      C       0.6611310000    -3.7014560000    -0.0010360000
    3      C       1.0852030000    -2.3451700000    -0.0004060000
    4      H       1.3673050000    -4.5452330000    -0.0014330000
    5      C       0.0000000000    -1.4501350000     0.0000000000
    6      S      -1.5275170000    -2.3213340000    -0.0003670000
    7      C       2.5314780000    -1.9344390000    -0.0002330000
    8      H       3.1962540000    -2.8197990000    -0.0006560000
    9      H       2.7873050000    -1.3262100000     0.8924470000
   10      H       2.7872820000    -1.3253740000    -0.8923500000
   11      C       0.0000000000     0.0000000000     0.0000000000
   12      C       0.2156230000     0.8166230000     1.1130200000
   13      C       0.5711020000     2.1614110000     0.8205780000
   14      H       0.1164700000     0.4414060000     2.1428810000
   15      C       0.6346960000     2.4012760000    -0.5635880000
   16      S       0.2476460000     0.9384890000    -1.4647480000
   17      C       0.8431820000     3.1906690000     1.8823800000
   18      H       0.7286280000     2.7576140000     2.8949740000
   19      H       0.1480950000     4.0529980000     1.8081370000
   20      H       1.8736520000     3.5967520000     1.8082300000
   21      H       0.8794640000     3.3275130000    -1.0971140000
   22      H      -1.0591010000    -4.4202190000     0.8962720000
   23      H      -1.0591220000    -4.4193950000    -0.8989360000
   24      H       0.0000140000    -1.4506280000     1.0800000000
 ----------------------------------------------------------------

   10   -1180.7613700761      5.14e-07  Convergence criterion met
 Total energy in the final basis set =    -1180.7613700761
        RIMP2         total energy =     -1182.7667122213 a.u.

                    Orbital Energies (a.u.)
 --------------------------------------------------------------

 Alpha MOs
 -- Occupied --
-91.9809 -91.9400 -11.2800 -11.2670 -11.2624 -11.2556 -11.2514 -11.2449
-11.2405 -11.2308 -11.2299 -11.2193  -8.9808  -8.9447  -6.6617  -6.6612
 -6.6607  -6.6261  -6.6251  -6.6238  -1.1973  -1.1541  -1.0570  -1.0247
 -1.0064  -0.9603  -0.9115  -0.9016  -0.8136  -0.7609  -0.7359  -0.7026
 -0.6600  -0.6403  -0.6108  -0.5893  -0.5797  -0.5720  -0.5660  -0.5503
 -0.5411  -0.5287  -0.5156  -0.5047  -0.4935  -0.4790  -0.4597  -0.4482
 -0.3551  -0.3419  -0.3133  -0.2817

          Ground-State Mulliken Net Atomic Charges

     Atom                 Charge (a.u.)
  ----------------------------------------
      1 C                    -0.077587
      2 C                    -0.329083
      3 C                    -0.011327
      4 H                     0.177001
      5 C                     0.068674
      6 S                    -0.180134
      7 C                    -0.267796
      8 H                     0.114194
      9 H                     0.101989
     10 H                     0.108209
     11 C                    -0.068301
     12 C                    -0.249417
     13 C                     0.026910
     14 H                     0.181527
     15 C                    -0.235844
     16 S                     0.005756
     17 C                    -0.271341
     18 H                     0.102230
     19 H                     0.108735
     20 H                     0.108001
     21 H                     0.197689
     22 H                     0.110563
     23 H                     0.111607
     24 H                     0.167744
  ----------------------------------------
  Sum of atomic charges =     0.000000

                    Cartesian Multipole Moments
 -----------------------------------------------------------------
    Charge (ESU x 10^10)
                -0.0000
    Dipole Moment (Debye)
         X       2.9539      Y       0.6972      Z       2.3344
       Tot       3.8289
    Quadrupole Moments (Debye-Ang)
        XX     -91.1382     XY      -1.1523     YY     -74.4968
        XZ      -0.0125     YZ      -0.2059     ZZ     -86.0142

 Total job time:  58.26s(wall), 1960.16s(cpu)
        *  Thank you very much for using Q-Chem.  Have a nice day.  *
