 Q-Chem 5.4, Q-Chem, Inc., Pleasanton, CA (2021)
 Q-Chem 5.4.0 for Intel X86 EM64T Linux

User input:
--------------------------------------------------------------
$molecule
0 1
C	-0.681143	-3.887800	0.246754
C	0.620906	-3.701456	-0.227093
C	1.019618	-2.345170	-0.371543
H	1.284357	-4.545233	-0.468992
C	0.000000	-1.450135	0.000000
S	-1.435522	-2.321334	0.522097
C	2.378731	-1.934439	-0.866035
H	3.003272	-2.819799	-1.093799
H	2.924444	-1.326210	-0.114688
H	2.313987	-1.325374	-1.791841
C	0.000000	0.000000	0.000000
C	-0.003081	0.844605	1.113020
C	-0.007772	2.235575	0.820578
H	-0.001743	0.456510	2.142881
C	-0.008427	2.483726	-0.563588
S	-0.003691	0.970607	-1.464748
C	-0.011355	3.300181	1.882380
H	-0.009922	2.852233	2.894974
H	-0.905944	3.953225	1.808137
H	0.878901	3.959133	1.808230
H	-0.011727	3.441752	-1.097114
H	-0.688686	-4.420219	1.204454
H	-1.302703	-4.419395	-0.482482
H	0.369395	-1.450628	1.014863
$end

$rem
JOBTYPE		SP
EXCHANGE	HF
CORRELATION	pRIMP2
BASIS		cc-pvtz
METHOD		rimp2
AUX_BASIS	rimp2-cc-pvtz
SOLVENT_METHOD	PCM
PURECART	11111
SYMMETRY	false
MEM_TOTAL	110000
SCF_CONVERGENCE = 6
THRESH=10
GUI = 2
$end

$solvent
dielectric 4.90
$end
--------------------------------------------------------------

             Standard Nuclear Orientation (Angstroms)
    I     Atom           X                Y                Z
 ----------------------------------------------------------------
    1      C      -0.6811430000    -3.8878000000     0.2467540000
    2      C       0.6209060000    -3.7014560000    -0.2270930000
    3      C       1.0196180000    -2.3451700000    -0.3715430000
    4      H       1.2843570000    -4.5452330000    -0.4689920000
    5      C       0.0000000000    -1.4501350000     0.0000000000
    6      S      -1.4355220000    -2.3213340000     0.5220970000
    7      C       2.3787310000    -1.9344390000    -0.8660350000
    8      H       3.0032720000    -2.8197990000    -1.0937990000
    9      H       2.9244440000    -1.3262100000    -0.1146880000
   10      H       2.3139870000    -1.3253740000    -1.7918410000
   11      C       0.0000000000     0.0000000000     0.0000000000
   12      C      -0.0030810000     0.8446050000     1.1130200000
   13      C      -0.0077720000     2.2355750000     0.8205780000
   14      H      -0.0017430000     0.4565100000     2.1428810000
   15      C      -0.0084270000     2.4837260000    -0.5635880000
   16      S      -0.0036910000     0.9706070000    -1.4647480000
   17      C      -0.0113550000     3.3001810000     1.8823800000
   18      H      -0.0099220000     2.8522330000     2.8949740000
   19      H      -0.9059440000     3.9532250000     1.8081370000
   20      H       0.8789010000     3.9591330000     1.8082300000
   21      H      -0.0117270000     3.4417520000    -1.0971140000
   22      H      -0.6886860000    -4.4202190000     1.2044540000
   23      H      -1.3027030000    -4.4193950000    -0.4824820000
   24      H       0.3693950000    -1.4506280000     1.0148630000
 ----------------------------------------------------------------

   10   -1180.7651955043      4.98e-07  Convergence criterion met
 Total energy in the final basis set =    -1180.7651955043
        RIMP2         total energy =     -1182.7693081438 a.u.

                    Orbital Energies (a.u.)
 --------------------------------------------------------------

 Alpha MOs
 -- Occupied --
-91.9813 -91.9421 -11.2829 -11.2638 -11.2626 -11.2565 -11.2510 -11.2417
-11.2414 -11.2313 -11.2293 -11.2198  -8.9812  -8.9467  -6.6621  -6.6616
 -6.6610  -6.6280  -6.6270  -6.6257  -1.1976  -1.1537  -1.0572  -1.0252
 -1.0069  -0.9588  -0.9125  -0.9013  -0.8143  -0.7637  -0.7324  -0.7008
 -0.6609  -0.6412  -0.6107  -0.5882  -0.5796  -0.5721  -0.5669  -0.5504
 -0.5412  -0.5307  -0.5133  -0.5053  -0.4936  -0.4824  -0.4591  -0.4496
 -0.3559  -0.3420  -0.3150  -0.2786

          Ground-State Mulliken Net Atomic Charges

     Atom                 Charge (a.u.)
  ----------------------------------------
      1 C                    -0.077758
      2 C                    -0.327727
      3 C                    -0.022133
      4 H                     0.177735
      5 C                     0.091188
      6 S                    -0.177331
      7 C                    -0.267604
      8 H                     0.113398
      9 H                     0.103649
     10 H                     0.105951
     11 C                    -0.082022
     12 C                    -0.244265
     13 C                     0.021877
     14 H                     0.182367
     15 C                    -0.240122
     16 S                     0.006533
     17 C                    -0.271451
     18 H                     0.102445
     19 H                     0.108777
     20 H                     0.107880
     21 H                     0.197145
     22 H                     0.110867
     23 H                     0.113032
     24 H                     0.167569
  ----------------------------------------
  Sum of atomic charges =     0.000000

                    Cartesian Multipole Moments
 -----------------------------------------------------------------
    Charge (ESU x 10^10)
                -0.0000
    Dipole Moment (Debye)
         X       2.5457      Y       0.4986      Z       1.4410
       Tot       2.9674
    Quadrupole Moments (Debye-Ang)
        XX     -91.9247     XY      -4.0947     YY     -73.7070
        XZ      -0.3115     YZ       1.2184     ZZ     -85.8185

 Total job time:  59.14s(wall), 1864.28s(cpu)
        *  Thank you very much for using Q-Chem.  Have a nice day.  *
