 Q-Chem 5.4, Q-Chem, Inc., Pleasanton, CA (2021)
 Q-Chem 5.4.0 for Intel X86 EM64T Linux

User input:
--------------------------------------------------------------
$molecule
0 1
C	0.681143	-3.887800	-0.246754
C	-0.620906	-3.701456	0.227093
C	-1.019618	-2.345170	0.371543
H	-1.284357	-4.545233	0.468992
C	0.000000	-1.450135	0.000000
S	1.435522	-2.321334	-0.522097
C	-2.378731	-1.934439	0.866035
H	-3.003272	-2.819799	1.093799
H	-2.924444	-1.326210	0.114688
H	-2.313987	-1.325374	1.791841
C	0.000000	0.000000	0.000000
C	0.419634	0.732990	1.113020
C	1.111057	1.939951	0.820578
H	0.226746	0.396221	2.142881
C	1.234565	2.155183	-0.563588
S	0.482106	0.842416	-1.464748
C	1.640257	2.863718	1.882380
H	1.417524	2.475067	2.894974
H	1.192042	3.876565	1.808137
H	2.740717	2.989259	1.808230
H	1.710720	2.986508	-1.097114
H	0.688686	-4.420219	-1.204454
H	1.302703	-4.419395	0.482482
H	-0.369395	-1.450628	-1.014863
$end

$rem
JOBTYPE		SP
EXCHANGE	HF
CORRELATION	pRIMP2
BASIS		cc-pvtz
METHOD		rimp2
AUX_BASIS	rimp2-cc-pvtz
SOLVENT_METHOD	PCM
PURECART	11111
SYMMETRY	false
MEM_TOTAL	110000
SCF_CONVERGENCE = 6
THRESH=10
GUI = 2
$end

$solvent
dielectric 4.90
$end
--------------------------------------------------------------

             Standard Nuclear Orientation (Angstroms)
    I     Atom           X                Y                Z
 ----------------------------------------------------------------
    1      C       0.6811430000    -3.8878000000    -0.2467540000
    2      C      -0.6209060000    -3.7014560000     0.2270930000
    3      C      -1.0196180000    -2.3451700000     0.3715430000
    4      H      -1.2843570000    -4.5452330000     0.4689920000
    5      C       0.0000000000    -1.4501350000     0.0000000000
    6      S       1.4355220000    -2.3213340000    -0.5220970000
    7      C      -2.3787310000    -1.9344390000     0.8660350000
    8      H      -3.0032720000    -2.8197990000     1.0937990000
    9      H      -2.9244440000    -1.3262100000     0.1146880000
   10      H      -2.3139870000    -1.3253740000     1.7918410000
   11      C       0.0000000000     0.0000000000     0.0000000000
   12      C       0.4196340000     0.7329900000     1.1130200000
   13      C       1.1110570000     1.9399510000     0.8205780000
   14      H       0.2267460000     0.3962210000     2.1428810000
   15      C       1.2345650000     2.1551830000    -0.5635880000
   16      S       0.4821060000     0.8424160000    -1.4647480000
   17      C       1.6402570000     2.8637180000     1.8823800000
   18      H       1.4175240000     2.4750670000     2.8949740000
   19      H       1.1920420000     3.8765650000     1.8081370000
   20      H       2.7407170000     2.9892590000     1.8082300000
   21      H       1.7107200000     2.9865080000    -1.0971140000
   22      H       0.6886860000    -4.4202190000    -1.2044540000
   23      H       1.3027030000    -4.4193950000     0.4824820000
   24      H      -0.3693950000    -1.4506280000    -1.0148630000
 ----------------------------------------------------------------

   10   -1180.7440857385      5.51e-07  Convergence criterion met
 Total energy in the final basis set =    -1180.7440857385
        RIMP2         total energy =     -1182.7521311684 a.u.

                    Orbital Energies (a.u.)
 --------------------------------------------------------------

 Alpha MOs
 -- Occupied --
-91.9852 -91.9398 -11.2716 -11.2710 -11.2606 -11.2533 -11.2510 -11.2421
-11.2398 -11.2309 -11.2290 -11.2166  -8.9850  -8.9445  -6.6659  -6.6653
 -6.6647  -6.6258  -6.6248  -6.6235  -1.1972  -1.1538  -1.0565  -1.0264
 -1.0006  -0.9634  -0.9113  -0.9008  -0.8119  -0.7580  -0.7437  -0.7028
 -0.6521  -0.6320  -0.6115  -0.5872  -0.5791  -0.5714  -0.5667  -0.5527
 -0.5419  -0.5302  -0.5091  -0.5062  -0.4915  -0.4764  -0.4635  -0.4485
 -0.3568  -0.3379  -0.3151  -0.2771

          Ground-State Mulliken Net Atomic Charges

     Atom                 Charge (a.u.)
  ----------------------------------------
      1 C                    -0.073445
      2 C                    -0.327742
      3 C                    -0.035733
      4 H                     0.175585
      5 C                     0.066492
      6 S                    -0.172749
      7 C                    -0.270792
      8 H                     0.112912
      9 H                     0.103865
     10 H                     0.103285
     11 C                    -0.106224
     12 C                    -0.194976
     13 C                     0.015646
     14 H                     0.185501
     15 C                    -0.222643
     16 S                     0.011233
     17 C                    -0.270542
     18 H                     0.102565
     19 H                     0.107318
     20 H                     0.107879
     21 H                     0.199555
     22 H                     0.107920
     23 H                     0.111398
     24 H                     0.163690
  ----------------------------------------
  Sum of atomic charges =     0.000000

                    Cartesian Multipole Moments
 -----------------------------------------------------------------
    Charge (ESU x 10^10)
                -0.0000
    Dipole Moment (Debye)
         X      -1.4038      Y       0.8831      Z       1.6370
       Tot       2.3303
    Quadrupole Moments (Debye-Ang)
        XX     -89.1737     XY       8.8713     YY     -76.7705
        XZ       0.2070     YZ       0.8779     ZZ     -85.5582

 Total job time:  53.23s(wall), 1859.58s(cpu)
        *  Thank you very much for using Q-Chem.  Have a nice day.  *
