 Q-Chem 5.4, Q-Chem, Inc., Pleasanton, CA (2021)
 Q-Chem 5.4.0 for Intel X86 EM64T Linux

User input:
--------------------------------------------------------------
$molecule
0 1
C	0.248806	-3.887800	-0.680396
C	-0.225147	-3.701456	0.621614
C	-0.370780	-2.345170	1.019896
H	-0.466300	-4.545233	1.285337
C	0.000000	-1.450135	0.000000
S	0.522786	-2.321334	-1.435271
C	-0.865597	-1.934439	2.378891
H	-1.092567	-2.819799	3.003720
H	-1.791940	-1.326210	2.313975
H	-0.114772	-1.325374	2.924390
C	0.000000	0.000000	0.000000
C	0.285976	0.794723	1.113020
C	0.757308	2.103412	0.820578
H	0.154498	0.429575	2.142881
C	0.841565	2.336821	-0.563588
S	0.328498	0.913334	-1.464748
C	1.118059	3.105040	1.882380
H	0.966197	2.683616	2.894974
H	0.500773	4.024668	1.808137
H	2.180000	3.419766	1.808230
H	1.166129	3.238200	-1.097114
H	-0.479986	-4.420219	-1.301772
H	1.206964	-4.419395	-0.687795
H	-1.014873	-1.450628	-0.369368
$end

$rem
JOBTYPE		SP
EXCHANGE	HF
CORRELATION	pRIMP2
BASIS		cc-pvtz
METHOD		rimp2
AUX_BASIS	rimp2-cc-pvtz
SOLVENT_METHOD	PCM
PURECART	11111
SYMMETRY	false
MEM_TOTAL	110000
SCF_CONVERGENCE = 6
THRESH=10
GUI = 2
$end

$solvent
dielectric 4.90
$end
--------------------------------------------------------------

             Standard Nuclear Orientation (Angstroms)
    I     Atom           X                Y                Z
 ----------------------------------------------------------------
    1      C       0.2488060000    -3.8878000000    -0.6803960000
    2      C      -0.2251470000    -3.7014560000     0.6216140000
    3      C      -0.3707800000    -2.3451700000     1.0198960000
    4      H      -0.4663000000    -4.5452330000     1.2853370000
    5      C       0.0000000000    -1.4501350000     0.0000000000
    6      S       0.5227860000    -2.3213340000    -1.4352710000
    7      C      -0.8655970000    -1.9344390000     2.3788910000
    8      H      -1.0925670000    -2.8197990000     3.0037200000
    9      H      -1.7919400000    -1.3262100000     2.3139750000
   10      H      -0.1147720000    -1.3253740000     2.9243900000
   11      C       0.0000000000     0.0000000000     0.0000000000
   12      C       0.2859760000     0.7947230000     1.1130200000
   13      C       0.7573080000     2.1034120000     0.8205780000
   14      H       0.1544980000     0.4295750000     2.1428810000
   15      C       0.8415650000     2.3368210000    -0.5635880000
   16      S       0.3284980000     0.9133340000    -1.4647480000
   17      C       1.1180590000     3.1050400000     1.8823800000
   18      H       0.9661970000     2.6836160000     2.8949740000
   19      H       0.5007730000     4.0246680000     1.8081370000
   20      H       2.1800000000     3.4197660000     1.8082300000
   21      H       1.1661290000     3.2382000000    -1.0971140000
   22      H      -0.4799860000    -4.4202190000    -1.3017720000
   23      H       1.2069640000    -4.4193950000    -0.6877950000
   24      H      -1.0148730000    -1.4506280000    -0.3693680000
 ----------------------------------------------------------------

   10   -1180.7469259907      5.14e-07  Convergence criterion met
 Total energy in the final basis set =    -1180.7469259907
        RIMP2         total energy =     -1182.7548617005 a.u.

                    Orbital Energies (a.u.)
 --------------------------------------------------------------

 Alpha MOs
 -- Occupied --
-91.9842 -91.9459 -11.2852 -11.2654 -11.2589 -11.2586 -11.2503 -11.2436
-11.2338 -11.2320 -11.2284 -11.2219  -8.9839  -8.9504  -6.6648  -6.6643
 -6.6636  -6.6318  -6.6308  -6.6295  -1.2006  -1.1529  -1.0585  -1.0313
 -1.0007  -0.9627  -0.9154  -0.9002  -0.8168  -0.7610  -0.7335  -0.7056
 -0.6545  -0.6440  -0.6105  -0.5938  -0.5843  -0.5683  -0.5650  -0.5507
 -0.5458  -0.5339  -0.5211  -0.5022  -0.4874  -0.4793  -0.4683  -0.4446
 -0.3593  -0.3429  -0.3245  -0.2639

          Ground-State Mulliken Net Atomic Charges

     Atom                 Charge (a.u.)
  ----------------------------------------
      1 C                    -0.075260
      2 C                    -0.320572
      3 C                    -0.038526
      4 H                     0.178851
      5 C                     0.108876
      6 S                    -0.175491
      7 C                    -0.299458
      8 H                     0.120938
      9 H                     0.113322
     10 H                     0.103005
     11 C                    -0.068179
     12 C                    -0.251862
     13 C                     0.027987
     14 H                     0.192216
     15 C                    -0.259024
     16 S                     0.000180
     17 C                    -0.272276
     18 H                     0.100482
     19 H                     0.108403
     20 H                     0.108382
     21 H                     0.198309
     22 H                     0.110888
     23 H                     0.114083
     24 H                     0.174727
  ----------------------------------------
  Sum of atomic charges =     0.000000

                    Cartesian Multipole Moments
 -----------------------------------------------------------------
    Charge (ESU x 10^10)
                -0.0000
    Dipole Moment (Debye)
         X      -1.0981      Y      -0.1221      Z       3.3576
       Tot       3.5347
    Quadrupole Moments (Debye-Ang)
        XX     -90.7797     XY       5.8630     YY     -74.2306
        XZ       0.4306     YZ      -1.7841     ZZ     -85.5156

 Total job time:  54.25s(wall), 1916.38s(cpu)
        *  Thank you very much for using Q-Chem.  Have a nice day.  *
