 Q-Chem 5.4, Q-Chem, Inc., Pleasanton, CA (2021)
 Q-Chem 5.4.0 for Intel X86 EM64T Linux

User input:
--------------------------------------------------------------
$molecule
0 1
C	0.466510	-3.887800	-0.554267
C	-0.424173	-3.701456	0.507121
C	-0.697244	-2.345170	0.831575
H	-0.877789	-4.545233	1.048337
C	0.000000	-1.450135	0.000000
S	0.982150	-2.321334	-1.169911
C	-1.627024	-1.934439	1.939374
H	-2.054010	-2.819799	2.448894
H	-2.475299	-1.326210	1.561545
H	-1.108051	-1.325374	2.708773
C	0.000000	0.000000	0.000000
C	-0.003081	0.844605	1.113020
C	-0.007772	2.235575	0.820578
H	-0.001743	0.456510	2.142881
C	-0.008427	2.483726	-0.563588
S	-0.003691	0.970607	-1.464748
C	-0.011355	3.300181	1.882380
H	-0.009922	2.852233	2.894974
H	-0.905944	3.953225	1.808137
H	0.878901	3.959133	1.808230
H	-0.011727	3.441752	-1.097114
H	-0.005807	-4.420219	-1.387431
H	1.369415	-4.419395	-0.233510
H	-0.827337	-1.450628	-0.694200
$end

$rem
JOBTYPE		SP
EXCHANGE	HF
CORRELATION	pRIMP2
BASIS		cc-pvtz
METHOD		rimp2
AUX_BASIS	rimp2-cc-pvtz
SOLVENT_METHOD	PCM
PURECART	11111
SYMMETRY	false
MEM_TOTAL	110000
SCF_CONVERGENCE = 6
THRESH=10
GUI = 2
$end

$solvent
dielectric 4.90
$end
--------------------------------------------------------------

             Standard Nuclear Orientation (Angstroms)
    I     Atom           X                Y                Z
 ----------------------------------------------------------------
    1      C       0.4665100000    -3.8878000000    -0.5542670000
    2      C      -0.4241730000    -3.7014560000     0.5071210000
    3      C      -0.6972440000    -2.3451700000     0.8315750000
    4      H      -0.8777890000    -4.5452330000     1.0483370000
    5      C       0.0000000000    -1.4501350000     0.0000000000
    6      S       0.9821500000    -2.3213340000    -1.1699110000
    7      C      -1.6270240000    -1.9344390000     1.9393740000
    8      H      -2.0540100000    -2.8197990000     2.4488940000
    9      H      -2.4752990000    -1.3262100000     1.5615450000
   10      H      -1.1080510000    -1.3253740000     2.7087730000
   11      C       0.0000000000     0.0000000000     0.0000000000
   12      C      -0.0030810000     0.8446050000     1.1130200000
   13      C      -0.0077720000     2.2355750000     0.8205780000
   14      H      -0.0017430000     0.4565100000     2.1428810000
   15      C      -0.0084270000     2.4837260000    -0.5635880000
   16      S      -0.0036910000     0.9706070000    -1.4647480000
   17      C      -0.0113550000     3.3001810000     1.8823800000
   18      H      -0.0099220000     2.8522330000     2.8949740000
   19      H      -0.9059440000     3.9532250000     1.8081370000
   20      H       0.8789010000     3.9591330000     1.8082300000
   21      H      -0.0117270000     3.4417520000    -1.0971140000
   22      H      -0.0058070000    -4.4202190000    -1.3874310000
   23      H       1.3694150000    -4.4193950000    -0.2335100000
   24      H      -0.8273370000    -1.4506280000    -0.6942000000
 ----------------------------------------------------------------

   10   -1180.7606409365      5.09e-07  Convergence criterion met
 Total energy in the final basis set =    -1180.7606409365
        RIMP2         total energy =     -1182.7646311599 a.u.

                    Orbital Energies (a.u.)
 --------------------------------------------------------------

 Alpha MOs
 -- Occupied --
-91.9844 -91.9444 -11.2859 -11.2649 -11.2596 -11.2594 -11.2505 -11.2433
-11.2334 -11.2326 -11.2286 -11.2220  -8.9841  -8.9491  -6.6651  -6.6646
 -6.6639  -6.6305  -6.6294  -6.6281  -1.1997  -1.1532  -1.0586  -1.0294
 -1.0014  -0.9628  -0.9142  -0.9004  -0.8155  -0.7607  -0.7385  -0.7034
 -0.6545  -0.6407  -0.6110  -0.5914  -0.5807  -0.5690  -0.5658  -0.5536
 -0.5450  -0.5325  -0.5180  -0.5040  -0.4895  -0.4827  -0.4644  -0.4490
 -0.3572  -0.3427  -0.3228  -0.2701

          Ground-State Mulliken Net Atomic Charges

     Atom                 Charge (a.u.)
  ----------------------------------------
      1 C                    -0.073724
      2 C                    -0.324881
      3 C                    -0.026755
      4 H                     0.178735
      5 C                     0.115663
      6 S                    -0.177060
      7 C                    -0.280559
      8 H                     0.116976
      9 H                     0.109213
     10 H                     0.102815
     11 C                    -0.097842
     12 C                    -0.242278
     13 C                     0.020371
     14 H                     0.191837
     15 C                    -0.254729
     16 S                     0.004610
     17 C                    -0.273410
     18 H                     0.101589
     19 H                     0.108163
     20 H                     0.109121
     21 H                     0.197888
     22 H                     0.110572
     23 H                     0.114574
     24 H                     0.169111
  ----------------------------------------
  Sum of atomic charges =     0.000000

                    Cartesian Multipole Moments
 -----------------------------------------------------------------
    Charge (ESU x 10^10)
                -0.0000
    Dipole Moment (Debye)
         X      -2.1972      Y       0.0770      Z       2.7628
       Tot       3.5308
    Quadrupole Moments (Debye-Ang)
        XX     -92.0305     XY       3.3824     YY     -73.0355
        XZ      -0.0961     YZ      -0.6871     ZZ     -85.6810

 Total job time:  57.97s(wall), 1783.15s(cpu)
        *  Thank you very much for using Q-Chem.  Have a nice day.  *
