 Q-Chem 5.4, Q-Chem, Inc., Pleasanton, CA (2021)
 Q-Chem 5.4.0 for Intel X86 EM64T Linux

User input:
--------------------------------------------------------------
$molecule
0 1
C	-0.246754	-3.887800	-0.681143
C	0.227093	-3.701456	0.620906
C	0.371543	-2.345170	1.019618
H	0.468992	-4.545233	1.284357
C	-0.000000	-1.450135	-0.000000
S	-0.522097	-2.321334	-1.435522
C	0.866035	-1.934439	2.378731
H	1.093799	-2.819799	3.003272
H	0.114688	-1.326210	2.924444
H	1.791841	-1.325374	2.313987
C	0.000000	0.000000	0.000000
C	0.070542	0.841660	1.113020
C	0.187101	2.227746	0.820578
H	0.038051	0.454925	2.142881
C	0.208076	2.475009	-0.563588
S	0.080917	0.967235	-1.464748
C	0.276318	3.288613	1.882380
H	0.238704	2.842244	2.894974
H	-0.557951	4.017140	1.808137
H	1.220618	3.867466	1.808230
H	0.288286	3.429678	-1.097114
H	-1.204454	-4.420219	-0.688686
H	0.482482	-4.419395	-1.302703
H	-1.014863	-1.450628	0.369395
$end

$rem
JOBTYPE		SP
EXCHANGE	HF
CORRELATION	pRIMP2
BASIS		cc-pvtz
METHOD		rimp2
AUX_BASIS	rimp2-cc-pvtz
SOLVENT_METHOD	PCM
PURECART	11111
SYMMETRY	false
MEM_TOTAL	110000
SCF_CONVERGENCE = 6
THRESH=10
GUI = 2
$end

$solvent
dielectric 4.90
$end
--------------------------------------------------------------

             Standard Nuclear Orientation (Angstroms)
    I     Atom           X                Y                Z
 ----------------------------------------------------------------
    1      C      -0.2467540000    -3.8878000000    -0.6811430000
    2      C       0.2270930000    -3.7014560000     0.6209060000
    3      C       0.3715430000    -2.3451700000     1.0196180000
    4      H       0.4689920000    -4.5452330000     1.2843570000
    5      C       0.0000000000    -1.4501350000     0.0000000000
    6      S      -0.5220970000    -2.3213340000    -1.4355220000
    7      C       0.8660350000    -1.9344390000     2.3787310000
    8      H       1.0937990000    -2.8197990000     3.0032720000
    9      H       0.1146880000    -1.3262100000     2.9244440000
   10      H       1.7918410000    -1.3253740000     2.3139870000
   11      C       0.0000000000     0.0000000000     0.0000000000
   12      C       0.0705420000     0.8416600000     1.1130200000
   13      C       0.1871010000     2.2277460000     0.8205780000
   14      H       0.0380510000     0.4549250000     2.1428810000
   15      C       0.2080760000     2.4750090000    -0.5635880000
   16      S       0.0809170000     0.9672350000    -1.4647480000
   17      C       0.2763180000     3.2886130000     1.8823800000
   18      H       0.2387040000     2.8422440000     2.8949740000
   19      H      -0.5579510000     4.0171400000     1.8081370000
   20      H       1.2206180000     3.8674660000     1.8082300000
   21      H       0.2882860000     3.4296780000    -1.0971140000
   22      H      -1.2044540000    -4.4202190000    -0.6886860000
   23      H       0.4824820000    -4.4193950000    -1.3027030000
   24      H      -1.0148630000    -1.4506280000     0.3693950000
 ----------------------------------------------------------------

   10   -1180.7569042427      5.00e-07  Convergence criterion met
 Total energy in the final basis set =    -1180.7569042427
        RIMP2         total energy =     -1182.7629616353 a.u.

                    Orbital Energies (a.u.)
 --------------------------------------------------------------

 Alpha MOs
 -- Occupied --
-91.9841 -91.9463 -11.2898 -11.2662 -11.2616 -11.2544 -11.2502 -11.2447
-11.2338 -11.2292 -11.2284 -11.2234  -8.9836  -8.9509  -6.6645  -6.6640
 -6.6634  -6.6323  -6.6313  -6.6300  -1.2013  -1.1524  -1.0592  -1.0311
 -1.0021  -0.9611  -0.9160  -0.9000  -0.8176  -0.7622  -0.7263  -0.7078
 -0.6583  -0.6481  -0.6112  -0.5936  -0.5872  -0.5693  -0.5592  -0.5527
 -0.5429  -0.5345  -0.5228  -0.5015  -0.4861  -0.4832  -0.4673  -0.4451
 -0.3601  -0.3434  -0.3239  -0.2655

          Ground-State Mulliken Net Atomic Charges

     Atom                 Charge (a.u.)
  ----------------------------------------
      1 C                    -0.073224
      2 C                    -0.313612
      3 C                    -0.068821
      4 H                     0.179622
      5 C                     0.141319
      6 S                    -0.180200
      7 C                    -0.295901
      8 H                     0.121590
      9 H                     0.098755
     10 H                     0.118586
     11 C                    -0.060258
     12 C                    -0.276050
     13 C                     0.035320
     14 H                     0.189931
     15 C                    -0.278857
     16 S                     0.010905
     17 C                    -0.273339
     18 H                     0.100657
     19 H                     0.108563
     20 H                     0.108559
     21 H                     0.196031
     22 H                     0.112377
     23 H                     0.112802
     24 H                     0.185244
  ----------------------------------------
  Sum of atomic charges =     0.000000

                    Cartesian Multipole Moments
 -----------------------------------------------------------------
    Charge (ESU x 10^10)
                -0.0000
    Dipole Moment (Debye)
         X       0.1296      Y      -0.3950      Z       3.9552
       Tot       3.9770
    Quadrupole Moments (Debye-Ang)
        XX     -91.4695     XY       1.0487     YY     -73.1088
        XZ       0.4534     YZ      -2.6644     ZZ     -85.9542

 Total job time:  63.24s(wall), 2381.90s(cpu)
        *  Thank you very much for using Q-Chem.  Have a nice day.  *
