 Q-Chem 5.4, Q-Chem, Inc., Pleasanton, CA (2021)
 Q-Chem 5.4.0 for Intel X86 EM64T Linux

User input:
--------------------------------------------------------------
$molecule
0 1
C	0.555670	-3.887800	-0.464838
C	-0.505790	-3.701456	0.425760
C	-0.831053	-2.345170	0.697866
H	-1.046496	-4.545233	0.879984
C	0.000000	-1.450135	0.000000
S	1.170382	-2.321334	-0.981588
C	-1.939074	-1.934439	1.627381
H	-2.448051	-2.819799	2.055015
H	-2.708853	-1.326210	1.107991
H	-1.561590	-1.325374	2.475210
C	0.000000	0.000000	0.000000
C	0.645024	0.545262	1.113020
C	1.707554	1.442954	0.820578
H	0.348587	0.294774	2.142881
C	1.897227	1.602964	-0.563588
S	0.741155	0.626722	-1.464748
C	2.520787	2.130014	1.882380
H	2.178559	1.840981	2.894974
H	2.446016	3.235078	1.808137
H	3.597818	1.871604	1.808230
H	2.628997	2.221299	-1.097114
H	0.235206	-4.420219	-1.367361
H	1.389159	-4.419395	0.007834
H	-0.694221	-1.450628	-0.827319
$end

$rem
JOBTYPE		SP
EXCHANGE	HF
CORRELATION	pRIMP2
BASIS		cc-pvtz
METHOD		rimp2
AUX_BASIS	rimp2-cc-pvtz
SOLVENT_METHOD	PCM
PURECART	11111
SYMMETRY	false
MEM_TOTAL	110000
SCF_CONVERGENCE = 6
THRESH=10
GUI = 2
$end

$solvent
dielectric 4.90
$end
--------------------------------------------------------------

             Standard Nuclear Orientation (Angstroms)
    I     Atom           X                Y                Z
 ----------------------------------------------------------------
    1      C       0.5556700000    -3.8878000000    -0.4648380000
    2      C      -0.5057900000    -3.7014560000     0.4257600000
    3      C      -0.8310530000    -2.3451700000     0.6978660000
    4      H      -1.0464960000    -4.5452330000     0.8799840000
    5      C       0.0000000000    -1.4501350000     0.0000000000
    6      S       1.1703820000    -2.3213340000    -0.9815880000
    7      C      -1.9390740000    -1.9344390000     1.6273810000
    8      H      -2.4480510000    -2.8197990000     2.0550150000
    9      H      -2.7088530000    -1.3262100000     1.1079910000
   10      H      -1.5615900000    -1.3253740000     2.4752100000
   11      C       0.0000000000     0.0000000000     0.0000000000
   12      C       0.6450240000     0.5452620000     1.1130200000
   13      C       1.7075540000     1.4429540000     0.8205780000
   14      H       0.3485870000     0.2947740000     2.1428810000
   15      C       1.8972270000     1.6029640000    -0.5635880000
   16      S       0.7411550000     0.6267220000    -1.4647480000
   17      C       2.5207870000     2.1300140000     1.8823800000
   18      H       2.1785590000     1.8409810000     2.8949740000
   19      H       2.4460160000     3.2350780000     1.8081370000
   20      H       3.5978180000     1.8716040000     1.8082300000
   21      H       2.6289970000     2.2212990000    -1.0971140000
   22      H       0.2352060000    -4.4202190000    -1.3673610000
   23      H       1.3891590000    -4.4193950000     0.0078340000
   24      H      -0.6942210000    -1.4506280000    -0.8273190000
 ----------------------------------------------------------------

   10   -1180.7058675672      7.49e-07  Convergence criterion met
 Total energy in the final basis set =    -1180.7058675672
        RIMP2         total energy =     -1182.7228353646 a.u.

                    Orbital Energies (a.u.)
 --------------------------------------------------------------

 Alpha MOs
 -- Occupied --
-91.9828 -91.9361 -11.2814 -11.2583 -11.2579 -11.2523 -11.2510 -11.2489
-11.2357 -11.2303 -11.2298 -11.2131  -8.9833  -8.9409  -6.6641  -6.6634
 -6.6630  -6.6222  -6.6211  -6.6198  -1.1995  -1.1537  -1.0560  -1.0273
 -0.9984  -0.9654  -0.9086  -0.9018  -0.8112  -0.7545  -0.7458  -0.7040
 -0.6498  -0.6304  -0.6129  -0.5889  -0.5815  -0.5704  -0.5655  -0.5514
 -0.5417  -0.5323  -0.5108  -0.5059  -0.4879  -0.4725  -0.4583  -0.4427
 -0.3532  -0.3373  -0.3214  -0.2642

          Ground-State Mulliken Net Atomic Charges

     Atom                 Charge (a.u.)
  ----------------------------------------
      1 C                    -0.083242
      2 C                    -0.331798
      3 C                    -0.057546
      4 H                     0.173468
      5 C                     0.062740
      6 S                    -0.177782
      7 C                    -0.277078
      8 H                     0.113663
      9 H                     0.104554
     10 H                     0.102651
     11 C                    -0.143949
     12 C                    -0.128971
     13 C                    -0.011075
     14 H                     0.195712
     15 C                    -0.182890
     16 S                     0.011260
     17 C                    -0.269636
     18 H                     0.101736
     19 H                     0.107601
     20 H                     0.107114
     21 H                     0.201925
     22 H                     0.105044
     23 H                     0.108895
     24 H                     0.167606
  ----------------------------------------
  Sum of atomic charges =     0.000000

                    Cartesian Multipole Moments
 -----------------------------------------------------------------
    Charge (ESU x 10^10)
                -0.0000
    Dipole Moment (Debye)
         X      -0.1382      Y       1.1090      Z       2.4842
       Tot       2.7240
    Quadrupole Moments (Debye-Ang)
        XX     -85.0073     XY       9.8542     YY     -81.8829
        XZ       0.4165     YZ      -0.7310     ZZ     -85.0210

 Total job time:  54.47s(wall), 1926.96s(cpu)
        *  Thank you very much for using Q-Chem.  Have a nice day.  *
