 Q-Chem 5.4, Q-Chem, Inc., Pleasanton, CA (2021)
 Q-Chem 5.4.0 for Intel X86 EM64T Linux

User input:
--------------------------------------------------------------
$molecule
0 1
C	0.337756	-3.873100	0.724460
C	0.321571	-3.687462	-0.661131
C	0.203990	-2.336281	-1.085203
H	0.394716	-4.528062	-1.367305
C	0.126388	-1.444617	0.000000
S	0.201952	-2.312532	1.527517
C	0.168365	-1.927099	-2.531478
H	0.245108	-2.809126	-3.196254
H	1.004638	-1.243381	-2.787305
H	-0.773440	-1.398104	-2.787282
C	0.000000	0.000000	0.000000
C	0.285976	0.794723	1.113020
C	0.757308	2.103412	0.820578
H	0.154498	0.429575	2.142881
C	0.841565	2.336821	-0.563588
S	0.328498	0.913334	-1.464748
C	1.118059	3.105040	1.882380
H	0.966197	2.683616	2.894974
H	0.500773	4.024668	1.808137
H	2.180000	3.419766	1.808230
H	1.166129	3.238200	-1.097114
H	1.278108	-4.325283	1.059101
H	-0.510339	-4.480925	1.059122
H	1.202321	-1.350980	-0.000014
$end

$rem
JOBTYPE		SP
EXCHANGE	HF
CORRELATION	pRIMP2
BASIS		cc-pvtz
METHOD		rimp2
AUX_BASIS	rimp2-cc-pvtz
SOLVENT_METHOD	PCM
PURECART	11111
SYMMETRY	false
MEM_TOTAL	110000
SCF_CONVERGENCE = 6
THRESH=10
GUI = 2
$end

$solvent
dielectric 4.90
$end
--------------------------------------------------------------

             Standard Nuclear Orientation (Angstroms)
    I     Atom           X                Y                Z
 ----------------------------------------------------------------
    1      C       0.3377560000    -3.8731000000     0.7244600000
    2      C       0.3215710000    -3.6874620000    -0.6611310000
    3      C       0.2039900000    -2.3362810000    -1.0852030000
    4      H       0.3947160000    -4.5280620000    -1.3673050000
    5      C       0.1263880000    -1.4446170000     0.0000000000
    6      S       0.2019520000    -2.3125320000     1.5275170000
    7      C       0.1683650000    -1.9270990000    -2.5314780000
    8      H       0.2451080000    -2.8091260000    -3.1962540000
    9      H       1.0046380000    -1.2433810000    -2.7873050000
   10      H      -0.7734400000    -1.3981040000    -2.7872820000
   11      C       0.0000000000     0.0000000000     0.0000000000
   12      C       0.2859760000     0.7947230000     1.1130200000
   13      C       0.7573080000     2.1034120000     0.8205780000
   14      H       0.1544980000     0.4295750000     2.1428810000
   15      C       0.8415650000     2.3368210000    -0.5635880000
   16      S       0.3284980000     0.9133340000    -1.4647480000
   17      C       1.1180590000     3.1050400000     1.8823800000
   18      H       0.9661970000     2.6836160000     2.8949740000
   19      H       0.5007730000     4.0246680000     1.8081370000
   20      H       2.1800000000     3.4197660000     1.8082300000
   21      H       1.1661290000     3.2382000000    -1.0971140000
   22      H       1.2781080000    -4.3252830000     1.0591010000
   23      H      -0.5103390000    -4.4809250000     1.0591220000
   24      H       1.2023210000    -1.3509800000    -0.0000140000
 ----------------------------------------------------------------

   10   -1180.7487362460      4.84e-07  Convergence criterion met
 Total energy in the final basis set =    -1180.7487362460
        RIMP2         total energy =     -1182.7573652817 a.u.

                    Orbital Energies (a.u.)
 --------------------------------------------------------------

 Alpha MOs
 -- Occupied --
-91.9804 -91.9464 -11.2884 -11.2641 -11.2627 -11.2561 -11.2504 -11.2441
-11.2316 -11.2310 -11.2278 -11.2222  -8.9808  -8.9509  -6.6617  -6.6611
 -6.6604  -6.6323  -6.6313  -6.6301  -1.2031  -1.1526  -1.0601  -1.0281
 -1.0065  -0.9558  -0.9159  -0.9023  -0.8125  -0.7720  -0.7172  -0.7037
 -0.6608  -0.6481  -0.6118  -0.5902  -0.5822  -0.5719  -0.5689  -0.5534
 -0.5419  -0.5336  -0.5162  -0.5111  -0.4905  -0.4802  -0.4569  -0.4444
 -0.3587  -0.3414  -0.3274  -0.2643

          Ground-State Mulliken Net Atomic Charges

     Atom                 Charge (a.u.)
  ----------------------------------------
      1 C                    -0.073977
      2 C                    -0.315539
      3 C                    -0.053054
      4 H                     0.179213
      5 C                     0.109890
      6 S                    -0.190243
      7 C                    -0.309220
      8 H                     0.119871
      9 H                     0.110723
     10 H                     0.117089
     11 C                     0.013456
     12 C                    -0.330510
     13 C                     0.054907
     14 H                     0.176151
     15 C                    -0.282475
     16 S                     0.009666
     17 C                    -0.269809
     18 H                     0.102943
     19 H                     0.108608
     20 H                     0.108126
     21 H                     0.196777
     22 H                     0.111677
     23 H                     0.112907
     24 H                     0.192822
  ----------------------------------------
  Sum of atomic charges =     0.000000

                    Cartesian Multipole Moments
 -----------------------------------------------------------------
    Charge (ESU x 10^10)
                 0.0000
    Dipole Moment (Debye)
         X       1.5180      Y      -0.3021      Z      -1.0657
       Tot       1.8791
    Quadrupole Moments (Debye-Ang)
        XX     -90.2573     XY       0.9766     YY     -74.7920
        XZ       0.3700     YZ       4.7652     ZZ     -85.4917

 Total job time:  57.70s(wall), 2057.21s(cpu)
        *  Thank you very much for using Q-Chem.  Have a nice day.  *
