 Q-Chem 5.4, Q-Chem, Inc., Pleasanton, CA (2021)
 Q-Chem 5.4.0 for Intel X86 EM64T Linux

User input:
--------------------------------------------------------------
$molecule
0 1
C	-0.680396	-3.887800	-0.248806
C	0.621614	-3.701456	0.225147
C	1.019896	-2.345170	0.370780
H	1.285337	-4.545233	0.466300
C	-0.000000	-1.450135	-0.000000
S	-1.435271	-2.321334	-0.522786
C	2.378891	-1.934439	0.865597
H	3.003720	-2.819799	1.092567
H	2.313975	-1.326210	1.791940
H	2.924390	-1.325374	0.114772
C	0.000000	0.000000	0.000000
C	0.215623	0.816623	1.113020
C	0.571102	2.161411	0.820578
H	0.116470	0.441406	2.142881
C	0.634696	2.401276	-0.563588
S	0.247646	0.938489	-1.464748
C	0.843182	3.190669	1.882380
H	0.728628	2.757614	2.894974
H	0.148095	4.052998	1.808137
H	1.873652	3.596752	1.808230
H	0.879464	3.327513	-1.097114
H	-1.301772	-4.420219	0.479986
H	-0.687795	-4.419395	-1.206964
H	-0.369368	-1.450628	1.014873
$end

$rem
JOBTYPE		SP
EXCHANGE	HF
CORRELATION	pRIMP2
BASIS		cc-pvtz
METHOD		rimp2
AUX_BASIS	rimp2-cc-pvtz
SOLVENT_METHOD	PCM
PURECART	11111
SYMMETRY	false
MEM_TOTAL	110000
SCF_CONVERGENCE = 6
THRESH=10
GUI = 2
$end

$solvent
dielectric 4.90
$end
--------------------------------------------------------------

             Standard Nuclear Orientation (Angstroms)
    I     Atom           X                Y                Z
 ----------------------------------------------------------------
    1      C      -0.6803960000    -3.8878000000    -0.2488060000
    2      C       0.6216140000    -3.7014560000     0.2251470000
    3      C       1.0198960000    -2.3451700000     0.3707800000
    4      H       1.2853370000    -4.5452330000     0.4663000000
    5      C       0.0000000000    -1.4501350000     0.0000000000
    6      S      -1.4352710000    -2.3213340000    -0.5227860000
    7      C       2.3788910000    -1.9344390000     0.8655970000
    8      H       3.0037200000    -2.8197990000     1.0925670000
    9      H       2.3139750000    -1.3262100000     1.7919400000
   10      H       2.9243900000    -1.3253740000     0.1147720000
   11      C       0.0000000000     0.0000000000     0.0000000000
   12      C       0.2156230000     0.8166230000     1.1130200000
   13      C       0.5711020000     2.1614110000     0.8205780000
   14      H       0.1164700000     0.4414060000     2.1428810000
   15      C       0.6346960000     2.4012760000    -0.5635880000
   16      S       0.2476460000     0.9384890000    -1.4647480000
   17      C       0.8431820000     3.1906690000     1.8823800000
   18      H       0.7286280000     2.7576140000     2.8949740000
   19      H       0.1480950000     4.0529980000     1.8081370000
   20      H       1.8736520000     3.5967520000     1.8082300000
   21      H       0.8794640000     3.3275130000    -1.0971140000
   22      H      -1.3017720000    -4.4202190000     0.4799860000
   23      H      -0.6877950000    -4.4193950000    -1.2069640000
   24      H      -0.3693680000    -1.4506280000     1.0148730000
 ----------------------------------------------------------------

   10   -1180.7614026803      5.15e-07  Convergence criterion met
 Total energy in the final basis set =    -1180.7614026803
        RIMP2         total energy =     -1182.7670566592 a.u.

                    Orbital Energies (a.u.)
 --------------------------------------------------------------

 Alpha MOs
 -- Occupied --
-91.9806 -91.9411 -11.2805 -11.2662 -11.2628 -11.2564 -11.2514 -11.2439
-11.2410 -11.2312 -11.2299 -11.2196  -8.9806  -8.9458  -6.6615  -6.6610
 -6.6604  -6.6271  -6.6261  -6.6249  -1.1977  -1.1540  -1.0572  -1.0258
 -1.0051  -0.9611  -0.9117  -0.9015  -0.8145  -0.7597  -0.7348  -0.7044
 -0.6594  -0.6413  -0.6110  -0.5900  -0.5814  -0.5715  -0.5639  -0.5517
 -0.5412  -0.5292  -0.5163  -0.5059  -0.4904  -0.4795  -0.4605  -0.4480
 -0.3553  -0.3416  -0.3154  -0.2800

          Ground-State Mulliken Net Atomic Charges

     Atom                 Charge (a.u.)
  ----------------------------------------
      1 C                    -0.075931
      2 C                    -0.327814
      3 C                    -0.019965
      4 H                     0.177329
      5 C                     0.073065
      6 S                    -0.177785
      7 C                    -0.268427
      8 H                     0.115291
      9 H                     0.099431
     10 H                     0.111464
     11 C                    -0.066075
     12 C                    -0.255991
     13 C                     0.024949
     14 H                     0.185217
     15 C                    -0.237864
     16 S                     0.004536
     17 C                    -0.271201
     18 H                     0.101992
     19 H                     0.108772
     20 H                     0.108135
     21 H                     0.197847
     22 H                     0.110836
     23 H                     0.111189
     24 H                     0.171002
  ----------------------------------------
  Sum of atomic charges =     0.000000

                    Cartesian Multipole Moments
 -----------------------------------------------------------------
    Charge (ESU x 10^10)
                -0.0000
    Dipole Moment (Debye)
         X       2.5195      Y       0.5934      Z       3.1311
       Tot       4.0625
    Quadrupole Moments (Debye-Ang)
        XX     -90.8689     XY      -0.3244     YY     -74.3474
        XZ       0.1149     YZ      -1.4233     ZZ     -86.2641

 Total job time:  58.11s(wall), 1927.98s(cpu)
        *  Thank you very much for using Q-Chem.  Have a nice day.  *
