 Q-Chem 5.4, Q-Chem, Inc., Pleasanton, CA (2021)
 Q-Chem 5.4.0 for Intel X86 EM64T Linux

User input:
--------------------------------------------------------------
$molecule
0 1
C	0.466510	-3.887800	-0.554267
C	-0.424173	-3.701456	0.507121
C	-0.697244	-2.345170	0.831575
H	-0.877789	-4.545233	1.048337
C	0.000000	-1.450135	0.000000
S	0.982150	-2.321334	-1.169911
C	-1.627024	-1.934439	1.939374
H	-2.054010	-2.819799	2.448894
H	-2.475299	-1.326210	1.561545
H	-1.108051	-1.325374	2.708773
C	0.000000	0.000000	0.000000
C	0.729909	0.424971	1.113020
C	1.932179	1.124518	0.820578
H	0.394478	0.229765	2.142881
C	2.146756	1.249161	-0.563588
S	0.838724	0.488500	-1.464748
C	2.852364	1.659924	1.882380
H	2.465145	1.434710	2.894974
H	2.970621	2.761183	1.808137
H	3.868160	1.218416	1.808230
H	2.974781	1.731032	-1.097114
H	-0.005807	-4.420219	-1.387431
H	1.369415	-4.419395	-0.233510
H	-0.827337	-1.450628	-0.694200
$end

$rem
JOBTYPE		SP
EXCHANGE	HF
CORRELATION	pRIMP2
BASIS		cc-pvtz
METHOD		rimp2
AUX_BASIS	rimp2-cc-pvtz
SOLVENT_METHOD	PCM
PURECART	11111
SYMMETRY	false
MEM_TOTAL	110000
SCF_CONVERGENCE = 6
THRESH=10
GUI = 2
$end

$solvent
dielectric 4.90
$end
--------------------------------------------------------------

             Standard Nuclear Orientation (Angstroms)
    I     Atom           X                Y                Z
 ----------------------------------------------------------------
    1      C       0.4665100000    -3.8878000000    -0.5542670000
    2      C      -0.4241730000    -3.7014560000     0.5071210000
    3      C      -0.6972440000    -2.3451700000     0.8315750000
    4      H      -0.8777890000    -4.5452330000     1.0483370000
    5      C       0.0000000000    -1.4501350000     0.0000000000
    6      S       0.9821500000    -2.3213340000    -1.1699110000
    7      C      -1.6270240000    -1.9344390000     1.9393740000
    8      H      -2.0540100000    -2.8197990000     2.4488940000
    9      H      -2.4752990000    -1.3262100000     1.5615450000
   10      H      -1.1080510000    -1.3253740000     2.7087730000
   11      C       0.0000000000     0.0000000000     0.0000000000
   12      C       0.7299090000     0.4249710000     1.1130200000
   13      C       1.9321790000     1.1245180000     0.8205780000
   14      H       0.3944780000     0.2297650000     2.1428810000
   15      C       2.1467560000     1.2491610000    -0.5635880000
   16      S       0.8387240000     0.4885000000    -1.4647480000
   17      C       2.8523640000     1.6599240000     1.8823800000
   18      H       2.4651450000     1.4347100000     2.8949740000
   19      H       2.9706210000     2.7611830000     1.8081370000
   20      H       3.8681600000     1.2184160000     1.8082300000
   21      H       2.9747810000     1.7310320000    -1.0971140000
   22      H      -0.0058070000    -4.4202190000    -1.3874310000
   23      H       1.3694150000    -4.4193950000    -0.2335100000
   24      H      -0.8273370000    -1.4506280000    -0.6942000000
 ----------------------------------------------------------------

   10   -1180.6751661822      9.16e-07  Convergence criterion met
 Total energy in the final basis set =    -1180.6751661822
        RIMP2         total energy =     -1182.6981528465 a.u.

                    Orbital Energies (a.u.)
 --------------------------------------------------------------

 Alpha MOs
 -- Occupied --
-91.9818 -91.9343 -11.2891 -11.2593 -11.2567 -11.2531 -11.2470 -11.2459
-11.2320 -11.2306 -11.2302 -11.2105  -8.9827  -8.9391  -6.6635  -6.6626
 -6.6624  -6.6203  -6.6192  -6.6179  -1.2029  -1.1532  -1.0563  -1.0285
 -0.9977  -0.9668  -0.9074  -0.9025  -0.8115  -0.7551  -0.7449  -0.7056
 -0.6485  -0.6303  -0.6144  -0.5921  -0.5825  -0.5695  -0.5655  -0.5510
 -0.5417  -0.5338  -0.5127  -0.5051  -0.4852  -0.4776  -0.4499  -0.4352
 -0.3501  -0.3380  -0.3245  -0.2564

          Ground-State Mulliken Net Atomic Charges

     Atom                 Charge (a.u.)
  ----------------------------------------
      1 C                    -0.087533
      2 C                    -0.336183
      3 C                    -0.067479
      4 H                     0.171920
      5 C                     0.070579
      6 S                    -0.184368
      7 C                    -0.281006
      8 H                     0.114377
      9 H                     0.106011
     10 H                     0.099901
     11 C                    -0.176538
     12 C                    -0.089837
     13 C                    -0.030793
     14 H                     0.202275
     15 C                    -0.161738
     16 S                     0.018789
     17 C                    -0.269480
     18 H                     0.101633
     19 H                     0.107850
     20 H                     0.106728
     21 H                     0.203802
     22 H                     0.103145
     23 H                     0.105611
     24 H                     0.172331
  ----------------------------------------
  Sum of atomic charges =     0.000000

                    Cartesian Multipole Moments
 -----------------------------------------------------------------
    Charge (ESU x 10^10)
                -0.0000
    Dipole Moment (Debye)
         X       0.7786      Y       1.2044      Z       2.8652
       Tot       3.2041
    Quadrupole Moments (Debye-Ang)
        XX     -82.4386     XY       9.1965     YY     -85.0207
        XZ       0.4424     YZ      -1.4231     ZZ     -84.6613

 Total job time:  60.42s(wall), 2232.44s(cpu)
        *  Thank you very much for using Q-Chem.  Have a nice day.  *
