 Q-Chem 5.4, Q-Chem, Inc., Pleasanton, CA (2021)
 Q-Chem 5.4.0 for Intel X86 EM64T Linux

User input:
--------------------------------------------------------------
$molecule
0 1
C	0.674034	-3.828925	0.724460
C	0.641731	-3.645403	-0.661131
C	0.406834	-2.309612	-1.085203
H	0.787861	-4.476429	-1.367305
C	0.251813	-1.428104	0.000000
S	0.402734	-2.286131	1.527517
C	0.335682	-1.905091	-2.531478
H	0.489007	-2.777074	-3.196254
H	1.109183	-1.151090	-2.787305
H	-0.648644	-1.460194	-2.787282
C	0.000000	0.000000	0.000000
C	0.285976	0.794723	1.113020
C	0.757308	2.103412	0.820578
H	0.154498	0.429575	2.142881
C	0.841565	2.336821	-0.563588
S	0.328498	0.913334	-1.464748
C	1.118059	3.105040	1.882380
H	0.966197	2.683616	2.894974
H	0.500773	4.024668	1.808137
H	2.180000	3.419766	1.808230
H	1.166129	3.238200	-1.097114
H	1.650218	-4.197430	1.059101
H	-0.117859	-4.508353	1.059122
H	1.315491	-1.241050	-0.000014
$end

$rem
JOBTYPE		SP
EXCHANGE	HF
CORRELATION	pRIMP2
BASIS		cc-pvtz
METHOD		rimp2
AUX_BASIS	rimp2-cc-pvtz
SOLVENT_METHOD	PCM
PURECART	11111
SYMMETRY	false
MEM_TOTAL	110000
SCF_CONVERGENCE = 6
THRESH=10
GUI = 2
$end

$solvent
dielectric 4.90
$end
--------------------------------------------------------------

             Standard Nuclear Orientation (Angstroms)
    I     Atom           X                Y                Z
 ----------------------------------------------------------------
    1      C       0.6740340000    -3.8289250000     0.7244600000
    2      C       0.6417310000    -3.6454030000    -0.6611310000
    3      C       0.4068340000    -2.3096120000    -1.0852030000
    4      H       0.7878610000    -4.4764290000    -1.3673050000
    5      C       0.2518130000    -1.4281040000     0.0000000000
    6      S       0.4027340000    -2.2861310000     1.5275170000
    7      C       0.3356820000    -1.9050910000    -2.5314780000
    8      H       0.4890070000    -2.7770740000    -3.1962540000
    9      H       1.1091830000    -1.1510900000    -2.7873050000
   10      H      -0.6486440000    -1.4601940000    -2.7872820000
   11      C       0.0000000000     0.0000000000     0.0000000000
   12      C       0.2859760000     0.7947230000     1.1130200000
   13      C       0.7573080000     2.1034120000     0.8205780000
   14      H       0.1544980000     0.4295750000     2.1428810000
   15      C       0.8415650000     2.3368210000    -0.5635880000
   16      S       0.3284980000     0.9133340000    -1.4647480000
   17      C       1.1180590000     3.1050400000     1.8823800000
   18      H       0.9661970000     2.6836160000     2.8949740000
   19      H       0.5007730000     4.0246680000     1.8081370000
   20      H       2.1800000000     3.4197660000     1.8082300000
   21      H       1.1661290000     3.2382000000    -1.0971140000
   22      H       1.6502180000    -4.1974300000     1.0591010000
   23      H      -0.1178590000    -4.5083530000     1.0591220000
   24      H       1.3154910000    -1.2410500000    -0.0000140000
 ----------------------------------------------------------------

   10   -1180.7425298087      4.99e-07  Convergence criterion met
 Total energy in the final basis set =    -1180.7425298087
        RIMP2         total energy =     -1182.7530351290 a.u.

                    Orbital Energies (a.u.)
 --------------------------------------------------------------

 Alpha MOs
 -- Occupied --
-91.9798 -91.9459 -11.2866 -11.2635 -11.2621 -11.2579 -11.2506 -11.2437
-11.2322 -11.2310 -11.2280 -11.2216  -8.9803  -8.9504  -6.6612  -6.6606
 -6.6599  -6.6318  -6.6308  -6.6295  -1.2035  -1.1527  -1.0601  -1.0279
 -1.0064  -0.9557  -0.9155  -0.9026  -0.8116  -0.7721  -0.7176  -0.7034
 -0.6608  -0.6478  -0.6120  -0.5897  -0.5825  -0.5721  -0.5691  -0.5532
 -0.5418  -0.5336  -0.5163  -0.5121  -0.4904  -0.4778  -0.4564  -0.4437
 -0.3584  -0.3412  -0.3275  -0.2638

          Ground-State Mulliken Net Atomic Charges

     Atom                 Charge (a.u.)
  ----------------------------------------
      1 C                    -0.074058
      2 C                    -0.316681
      3 C                    -0.052173
      4 H                     0.178888
      5 C                     0.106169
      6 S                    -0.192377
      7 C                    -0.307150
      8 H                     0.118662
      9 H                     0.110898
     10 H                     0.117072
     11 C                     0.008330
     12 C                    -0.321909
     13 C                     0.052356
     14 H                     0.176845
     15 C                    -0.277568
     16 S                     0.010109
     17 C                    -0.269448
     18 H                     0.103072
     19 H                     0.108684
     20 H                     0.107855
     21 H                     0.196960
     22 H                     0.111485
     23 H                     0.112800
     24 H                     0.191183
  ----------------------------------------
  Sum of atomic charges =     0.000000

                    Cartesian Multipole Moments
 -----------------------------------------------------------------
    Charge (ESU x 10^10)
                -0.0000
    Dipole Moment (Debye)
         X       1.6769      Y      -0.0754      Z      -1.0552
       Tot       1.9827
    Quadrupole Moments (Debye-Ang)
        XX     -89.7982     XY       0.4312     YY     -75.3504
        XZ       0.0302     YZ       4.7097     ZZ     -85.4754

 Total job time:  55.64s(wall), 1929.78s(cpu)
        *  Thank you very much for using Q-Chem.  Have a nice day.  *
