 Q-Chem 5.4, Q-Chem, Inc., Pleasanton, CA (2021)
 Q-Chem 5.4.0 for Intel X86 EM64T Linux

User input:
--------------------------------------------------------------
$molecule
0 1
C	0.724460	-3.887800	0.001092
C	-0.661131	-3.701456	0.001036
C	-1.085203	-2.345170	0.000406
H	-1.367305	-4.545233	0.001433
C	0.000000	-1.450135	0.000000
S	1.527517	-2.321334	0.000367
C	-2.531478	-1.934439	0.000233
H	-3.196254	-2.819799	0.000656
H	-2.787305	-1.326210	-0.892447
H	-2.787282	-1.325374	0.892350
C	0.000000	0.000000	0.000000
C	0.645024	0.545262	1.113020
C	1.707554	1.442954	0.820578
H	0.348587	0.294774	2.142881
C	1.897227	1.602964	-0.563588
S	0.741155	0.626722	-1.464748
C	2.520787	2.130014	1.882380
H	2.178559	1.840981	2.894974
H	2.446016	3.235078	1.808137
H	3.597818	1.871604	1.808230
H	2.628997	2.221299	-1.097114
H	1.059101	-4.420219	-0.896272
H	1.059122	-4.419395	0.898936
H	-0.000014	-1.450628	-1.080000
$end

$rem
JOBTYPE		SP
EXCHANGE	HF
CORRELATION	pRIMP2
BASIS		cc-pvtz
METHOD		rimp2
AUX_BASIS	rimp2-cc-pvtz
SOLVENT_METHOD	PCM
PURECART	11111
SYMMETRY	false
MEM_TOTAL	110000
SCF_CONVERGENCE = 6
THRESH=10
GUI = 2
$end

$solvent
dielectric 4.90
$end
--------------------------------------------------------------

             Standard Nuclear Orientation (Angstroms)
    I     Atom           X                Y                Z
 ----------------------------------------------------------------
    1      C       0.7244600000    -3.8878000000     0.0010920000
    2      C      -0.6611310000    -3.7014560000     0.0010360000
    3      C      -1.0852030000    -2.3451700000     0.0004060000
    4      H      -1.3673050000    -4.5452330000     0.0014330000
    5      C       0.0000000000    -1.4501350000     0.0000000000
    6      S       1.5275170000    -2.3213340000     0.0003670000
    7      C      -2.5314780000    -1.9344390000     0.0002330000
    8      H      -3.1962540000    -2.8197990000     0.0006560000
    9      H      -2.7873050000    -1.3262100000    -0.8924470000
   10      H      -2.7872820000    -1.3253740000     0.8923500000
   11      C       0.0000000000     0.0000000000     0.0000000000
   12      C       0.6450240000     0.5452620000     1.1130200000
   13      C       1.7075540000     1.4429540000     0.8205780000
   14      H       0.3485870000     0.2947740000     2.1428810000
   15      C       1.8972270000     1.6029640000    -0.5635880000
   16      S       0.7411550000     0.6267220000    -1.4647480000
   17      C       2.5207870000     2.1300140000     1.8823800000
   18      H       2.1785590000     1.8409810000     2.8949740000
   19      H       2.4460160000     3.2350780000     1.8081370000
   20      H       3.5978180000     1.8716040000     1.8082300000
   21      H       2.6289970000     2.2212990000    -1.0971140000
   22      H       1.0591010000    -4.4202190000    -0.8962720000
   23      H       1.0591220000    -4.4193950000     0.8989360000
   24      H      -0.0000140000    -1.4506280000    -1.0800000000
 ----------------------------------------------------------------

   10   -1180.7118644376      7.24e-07  Convergence criterion met
 Total energy in the final basis set =    -1180.7118644376
        RIMP2         total energy =     -1182.7270182640 a.u.

                    Orbital Energies (a.u.)
 --------------------------------------------------------------

 Alpha MOs
 -- Occupied --
-91.9819 -91.9359 -11.2825 -11.2575 -11.2559 -11.2533 -11.2515 -11.2497
-11.2377 -11.2296 -11.2290 -11.2119  -8.9825  -8.9409  -6.6633  -6.6626
 -6.6621  -6.6222  -6.6212  -6.6199  -1.2007  -1.1536  -1.0573  -1.0244
 -1.0007  -0.9634  -0.9106  -0.9005  -0.8078  -0.7614  -0.7440  -0.7031
 -0.6498  -0.6282  -0.6143  -0.5864  -0.5778  -0.5754  -0.5656  -0.5507
 -0.5407  -0.5317  -0.5064  -0.5055  -0.4888  -0.4678  -0.4621  -0.4451
 -0.3593  -0.3322  -0.3142  -0.2768

          Ground-State Mulliken Net Atomic Charges

     Atom                 Charge (a.u.)
  ----------------------------------------
      1 C                    -0.076297
      2 C                    -0.333517
      3 C                    -0.052386
      4 H                     0.174080
      5 C                     0.059283
      6 S                    -0.186764
      7 C                    -0.272416
      8 H                     0.112436
      9 H                     0.102011
     10 H                     0.104490
     11 C                    -0.125358
     12 C                    -0.161033
     13 C                     0.012528
     14 H                     0.183382
     15 C                    -0.191646
     16 S                     0.016450
     17 C                    -0.268082
     18 H                     0.103044
     19 H                     0.107787
     20 H                     0.107037
     21 H                     0.201510
     22 H                     0.107477
     23 H                     0.109698
     24 H                     0.166289
  ----------------------------------------
  Sum of atomic charges =     0.000000

                    Cartesian Multipole Moments
 -----------------------------------------------------------------
    Charge (ESU x 10^10)
                -0.0000
    Dipole Moment (Debye)
         X      -0.2237      Y       1.0911      Z       0.9527
       Tot       1.4656
    Quadrupole Moments (Debye-Ang)
        XX     -84.8617     XY       9.7273     YY     -81.6846
        XZ       0.3009     YZ       1.9839     ZZ     -85.3105

 Total job time:  54.35s(wall), 1920.40s(cpu)
        *  Thank you very much for using Q-Chem.  Have a nice day.  *
