 Q-Chem 5.4, Q-Chem, Inc., Pleasanton, CA (2021)
 Q-Chem 5.4.0 for Intel X86 EM64T Linux

User input:
--------------------------------------------------------------
$molecule
0 1
C	0.246754	-3.887800	0.681143
C	-0.227093	-3.701456	-0.620906
C	-0.371543	-2.345170	-1.019618
H	-0.468992	-4.545233	-1.284357
C	-0.000000	-1.450135	-0.000000
S	0.522097	-2.321334	1.435522
C	-0.866035	-1.934439	-2.378731
H	-1.093799	-2.819799	-3.003272
H	-0.114688	-1.326210	-2.924444
H	-1.791841	-1.325374	-2.313987
C	0.000000	0.000000	0.000000
C	0.215623	0.816623	1.113020
C	0.571102	2.161411	0.820578
H	0.116470	0.441406	2.142881
C	0.634696	2.401276	-0.563588
S	0.247646	0.938489	-1.464748
C	0.843182	3.190669	1.882380
H	0.728628	2.757614	2.894974
H	0.148095	4.052998	1.808137
H	1.873652	3.596752	1.808230
H	0.879464	3.327513	-1.097114
H	1.204454	-4.420219	0.688686
H	-0.482482	-4.419395	1.302703
H	1.014863	-1.450628	-0.369395
$end

$rem
JOBTYPE		SP
EXCHANGE	HF
CORRELATION	pRIMP2
BASIS		cc-pvtz
METHOD		rimp2
AUX_BASIS	rimp2-cc-pvtz
SOLVENT_METHOD	PCM
PURECART	11111
SYMMETRY	false
MEM_TOTAL	110000
SCF_CONVERGENCE = 6
THRESH=10
GUI = 2
$end

$solvent
dielectric 4.90
$end
--------------------------------------------------------------

             Standard Nuclear Orientation (Angstroms)
    I     Atom           X                Y                Z
 ----------------------------------------------------------------
    1      C       0.2467540000    -3.8878000000     0.6811430000
    2      C      -0.2270930000    -3.7014560000    -0.6209060000
    3      C      -0.3715430000    -2.3451700000    -1.0196180000
    4      H      -0.4689920000    -4.5452330000    -1.2843570000
    5      C       0.0000000000    -1.4501350000     0.0000000000
    6      S       0.5220970000    -2.3213340000     1.4355220000
    7      C      -0.8660350000    -1.9344390000    -2.3787310000
    8      H      -1.0937990000    -2.8197990000    -3.0032720000
    9      H      -0.1146880000    -1.3262100000    -2.9244440000
   10      H      -1.7918410000    -1.3253740000    -2.3139870000
   11      C       0.0000000000     0.0000000000     0.0000000000
   12      C       0.2156230000     0.8166230000     1.1130200000
   13      C       0.5711020000     2.1614110000     0.8205780000
   14      H       0.1164700000     0.4414060000     2.1428810000
   15      C       0.6346960000     2.4012760000    -0.5635880000
   16      S       0.2476460000     0.9384890000    -1.4647480000
   17      C       0.8431820000     3.1906690000     1.8823800000
   18      H       0.7286280000     2.7576140000     2.8949740000
   19      H       0.1480950000     4.0529980000     1.8081370000
   20      H       1.8736520000     3.5967520000     1.8082300000
   21      H       0.8794640000     3.3275130000    -1.0971140000
   22      H       1.2044540000    -4.4202190000     0.6886860000
   23      H      -0.4824820000    -4.4193950000     1.3027030000
   24      H       1.0148630000    -1.4506280000    -0.3693950000
 ----------------------------------------------------------------

   10   -1180.7592388589      4.94e-07  Convergence criterion met
 Total energy in the final basis set =    -1180.7592388589
        RIMP2         total energy =     -1182.7642742465 a.u.

                    Orbital Energies (a.u.)
 --------------------------------------------------------------

 Alpha MOs
 -- Occupied --
-91.9815 -91.9469 -11.2892 -11.2643 -11.2624 -11.2562 -11.2502 -11.2442
-11.2329 -11.2316 -11.2278 -11.2231  -8.9817  -8.9513  -6.6626  -6.6621
 -6.6613  -6.6327  -6.6316  -6.6304  -1.2020  -1.1529  -1.0601  -1.0279
 -1.0062  -0.9573  -0.9163  -0.9016  -0.8139  -0.7714  -0.7200  -0.7042
 -0.6579  -0.6469  -0.6116  -0.5925  -0.5804  -0.5724  -0.5689  -0.5534
 -0.5423  -0.5338  -0.5151  -0.5087  -0.4888  -0.4859  -0.4592  -0.4461
 -0.3589  -0.3425  -0.3265  -0.2670

          Ground-State Mulliken Net Atomic Charges

     Atom                 Charge (a.u.)
  ----------------------------------------
      1 C                    -0.073780
      2 C                    -0.314362
      3 C                    -0.060192
      4 H                     0.179040
      5 C                     0.133092
      6 S                    -0.183349
      7 C                    -0.302353
      8 H                     0.119514
      9 H                     0.106941
     10 H                     0.119227
     11 C                    -0.004594
     12 C                    -0.339735
     13 C                     0.058545
     14 H                     0.178101
     15 C                    -0.278573
     16 S                     0.006219
     17 C                    -0.271485
     18 H                     0.102968
     19 H                     0.108227
     20 H                     0.109038
     21 H                     0.196233
     22 H                     0.112457
     23 H                     0.111872
     24 H                     0.186947
  ----------------------------------------
  Sum of atomic charges =     0.000000

                    Cartesian Multipole Moments
 -----------------------------------------------------------------
    Charge (ESU x 10^10)
                -0.0000
    Dipole Moment (Debye)
         X       0.3229      Y      -0.3616      Z      -1.1325
       Tot       1.2319
    Quadrupole Moments (Debye-Ang)
        XX     -90.8986     XY       2.3220     YY     -73.5355
        XZ       0.7569     YZ       5.2035     ZZ     -85.8487

 Total job time:  56.27s(wall), 1950.05s(cpu)
        *  Thank you very much for using Q-Chem.  Have a nice day.  *
