 Q-Chem 5.4, Q-Chem, Inc., Pleasanton, CA (2021)
 Q-Chem 5.4.0 for Intel X86 EM64T Linux

User input:
--------------------------------------------------------------
$molecule
0 1
C	0.681143	-3.887800	-0.246754
C	-0.620906	-3.701456	0.227093
C	-1.019618	-2.345170	0.371543
H	-1.284357	-4.545233	0.468992
C	0.000000	-1.450135	0.000000
S	1.435522	-2.321334	-0.522097
C	-2.378731	-1.934439	0.866035
H	-3.003272	-2.819799	1.093799
H	-2.924444	-1.326210	0.114688
H	-2.313987	-1.325374	1.791841
C	0.000000	0.000000	0.000000
C	0.285976	0.794723	1.113020
C	0.757308	2.103412	0.820578
H	0.154498	0.429575	2.142881
C	0.841565	2.336821	-0.563588
S	0.328498	0.913334	-1.464748
C	1.118059	3.105040	1.882380
H	0.966197	2.683616	2.894974
H	0.500773	4.024668	1.808137
H	2.180000	3.419766	1.808230
H	1.166129	3.238200	-1.097114
H	0.688686	-4.420219	-1.204454
H	1.302703	-4.419395	0.482482
H	-0.369395	-1.450628	-1.014863
$end

$rem
JOBTYPE		SP
EXCHANGE	HF
CORRELATION	pRIMP2
BASIS		cc-pvtz
METHOD		rimp2
AUX_BASIS	rimp2-cc-pvtz
SOLVENT_METHOD	PCM
PURECART	11111
SYMMETRY	false
MEM_TOTAL	110000
SCF_CONVERGENCE = 6
THRESH=10
GUI = 2
$end

$solvent
dielectric 4.90
$end
--------------------------------------------------------------

             Standard Nuclear Orientation (Angstroms)
    I     Atom           X                Y                Z
 ----------------------------------------------------------------
    1      C       0.6811430000    -3.8878000000    -0.2467540000
    2      C      -0.6209060000    -3.7014560000     0.2270930000
    3      C      -1.0196180000    -2.3451700000     0.3715430000
    4      H      -1.2843570000    -4.5452330000     0.4689920000
    5      C       0.0000000000    -1.4501350000     0.0000000000
    6      S       1.4355220000    -2.3213340000    -0.5220970000
    7      C      -2.3787310000    -1.9344390000     0.8660350000
    8      H      -3.0032720000    -2.8197990000     1.0937990000
    9      H      -2.9244440000    -1.3262100000     0.1146880000
   10      H      -2.3139870000    -1.3253740000     1.7918410000
   11      C       0.0000000000     0.0000000000     0.0000000000
   12      C       0.2859760000     0.7947230000     1.1130200000
   13      C       0.7573080000     2.1034120000     0.8205780000
   14      H       0.1544980000     0.4295750000     2.1428810000
   15      C       0.8415650000     2.3368210000    -0.5635880000
   16      S       0.3284980000     0.9133340000    -1.4647480000
   17      C       1.1180590000     3.1050400000     1.8823800000
   18      H       0.9661970000     2.6836160000     2.8949740000
   19      H       0.5007730000     4.0246680000     1.8081370000
   20      H       2.1800000000     3.4197660000     1.8082300000
   21      H       1.1661290000     3.2382000000    -1.0971140000
   22      H       0.6886860000    -4.4202190000    -1.2044540000
   23      H       1.3027030000    -4.4193950000     0.4824820000
   24      H      -0.3693950000    -1.4506280000    -1.0148630000
 ----------------------------------------------------------------

   10   -1180.7538373701      5.23e-07  Convergence criterion met
 Total energy in the final basis set =    -1180.7538373701
        RIMP2         total energy =     -1182.7593726236 a.u.

                    Orbital Energies (a.u.)
 --------------------------------------------------------------

 Alpha MOs
 -- Occupied --
-91.9860 -91.9412 -11.2763 -11.2676 -11.2618 -11.2547 -11.2509 -11.2407
-11.2393 -11.2313 -11.2289 -11.2180  -8.9856  -8.9458  -6.6665  -6.6660
 -6.6654  -6.6272  -6.6262  -6.6249  -1.1971  -1.1538  -1.0569  -1.0267
 -1.0014  -0.9631  -0.9121  -0.9007  -0.8128  -0.7589  -0.7429  -0.7028
 -0.6530  -0.6334  -0.6112  -0.5876  -0.5787  -0.5709  -0.5673  -0.5533
 -0.5423  -0.5299  -0.5106  -0.5059  -0.4920  -0.4801  -0.4634  -0.4493
 -0.3567  -0.3395  -0.3150  -0.2783

          Ground-State Mulliken Net Atomic Charges

     Atom                 Charge (a.u.)
  ----------------------------------------
      1 C                    -0.073311
      2 C                    -0.327949
      3 C                    -0.030205
      4 H                     0.176488
      5 C                     0.085476
      6 S                    -0.173322
      7 C                    -0.269195
      8 H                     0.112891
      9 H                     0.103763
     10 H                     0.103403
     11 C                    -0.108560
     12 C                    -0.211264
     13 C                     0.017743
     14 H                     0.186111
     15 C                    -0.233735
     16 S                     0.012393
     17 C                    -0.271744
     18 H                     0.102580
     19 H                     0.107396
     20 H                     0.108291
     21 H                     0.198933
     22 H                     0.109130
     23 H                     0.112370
     24 H                     0.162316
  ----------------------------------------
  Sum of atomic charges =     0.000000

                    Cartesian Multipole Moments
 -----------------------------------------------------------------
    Charge (ESU x 10^10)
                -0.0000
    Dipole Moment (Debye)
         X      -1.8346      Y       0.7598      Z       1.6048
       Tot       2.5531
    Quadrupole Moments (Debye-Ang)
        XX     -90.6720     XY       7.5033     YY     -75.0139
        XZ       0.0778     YZ       0.9964     ZZ     -85.6649

 Total job time:  54.52s(wall), 1906.49s(cpu)
        *  Thank you very much for using Q-Chem.  Have a nice day.  *
