 Q-Chem 5.4, Q-Chem, Inc., Pleasanton, CA (2021)
 Q-Chem 5.4.0 for Intel X86 EM64T Linux

User input:
--------------------------------------------------------------
$molecule
0 1
C	-0.361285	-3.887800	-0.627947
C	0.331462	-3.701456	0.572038
C	0.542953	-2.345170	0.939610
H	0.684893	-4.545233	1.183405
C	-0.000000	-1.450135	-0.000000
S	-0.763441	-2.321334	-1.323052
C	1.265941	-1.934439	2.192207
H	1.598695	-2.819799	2.767709
H	0.620770	-1.326210	2.860100
H	2.166438	-1.325374	1.967682
C	0.000000	0.000000	0.000000
C	0.540541	0.648986	1.113020
C	1.431046	1.717546	0.820578
H	0.292104	0.350827	2.142881
C	1.590053	1.908061	-0.563588
S	0.621066	0.745901	-1.464748
C	2.112618	2.535384	1.882380
H	1.825779	2.191315	2.894974
H	1.847090	3.610676	1.808137
H	3.218159	2.467925	1.808230
H	2.203332	2.644073	-1.097114
H	-1.305744	-4.420219	-0.469073
H	0.248940	-4.419395	-1.366694
H	-0.935300	-1.450628	0.540012
$end

$rem
JOBTYPE		SP
EXCHANGE	HF
CORRELATION	pRIMP2
BASIS		cc-pvtz
METHOD		rimp2
AUX_BASIS	rimp2-cc-pvtz
SOLVENT_METHOD	PCM
PURECART	11111
SYMMETRY	false
MEM_TOTAL	110000
SCF_CONVERGENCE = 6
THRESH=10
GUI = 2
$end

$solvent
dielectric 4.90
$end
--------------------------------------------------------------

             Standard Nuclear Orientation (Angstroms)
    I     Atom           X                Y                Z
 ----------------------------------------------------------------
    1      C      -0.3612850000    -3.8878000000    -0.6279470000
    2      C       0.3314620000    -3.7014560000     0.5720380000
    3      C       0.5429530000    -2.3451700000     0.9396100000
    4      H       0.6848930000    -4.5452330000     1.1834050000
    5      C       0.0000000000    -1.4501350000     0.0000000000
    6      S      -0.7634410000    -2.3213340000    -1.3230520000
    7      C       1.2659410000    -1.9344390000     2.1922070000
    8      H       1.5986950000    -2.8197990000     2.7677090000
    9      H       0.6207700000    -1.3262100000     2.8601000000
   10      H       2.1664380000    -1.3253740000     1.9676820000
   11      C       0.0000000000     0.0000000000     0.0000000000
   12      C       0.5405410000     0.6489860000     1.1130200000
   13      C       1.4310460000     1.7175460000     0.8205780000
   14      H       0.2921040000     0.3508270000     2.1428810000
   15      C       1.5900530000     1.9080610000    -0.5635880000
   16      S       0.6210660000     0.7459010000    -1.4647480000
   17      C       2.1126180000     2.5353840000     1.8823800000
   18      H       1.8257790000     2.1913150000     2.8949740000
   19      H       1.8470900000     3.6106760000     1.8081370000
   20      H       3.2181590000     2.4679250000     1.8082300000
   21      H       2.2033320000     2.6440730000    -1.0971140000
   22      H      -1.3057440000    -4.4202190000    -0.4690730000
   23      H       0.2489400000    -4.4193950000    -1.3666940000
   24      H      -0.9353000000    -1.4506280000     0.5400120000
 ----------------------------------------------------------------

   10   -1180.7199052802      7.95e-07  Convergence criterion met
 Total energy in the final basis set =    -1180.7199052802
        RIMP2         total energy =     -1182.7373503080 a.u.

                    Orbital Energies (a.u.)
 --------------------------------------------------------------

 Alpha MOs
 -- Occupied --
-91.9785 -91.9414 -11.2713 -11.2699 -11.2630 -11.2543 -11.2515 -11.2441
-11.2412 -11.2318 -11.2300 -11.2180  -8.9788  -8.9460  -6.6597  -6.6590
 -6.6585  -6.6274  -6.6264  -6.6252  -1.2002  -1.1535  -1.0576  -1.0297
 -1.0007  -0.9631  -0.9137  -0.9013  -0.8128  -0.7599  -0.7309  -0.7112
 -0.6522  -0.6442  -0.6119  -0.5928  -0.5910  -0.5705  -0.5589  -0.5518
 -0.5405  -0.5332  -0.5233  -0.5069  -0.4812  -0.4689  -0.4603  -0.4436
 -0.3563  -0.3406  -0.3228  -0.2645

          Ground-State Mulliken Net Atomic Charges

     Atom                 Charge (a.u.)
  ----------------------------------------
      1 C                    -0.071788
      2 C                    -0.330744
      3 C                    -0.061066
      4 H                     0.178349
      5 C                     0.103797
      6 S                    -0.186776
      7 C                    -0.291078
      8 H                     0.120945
      9 H                     0.095030
     10 H                     0.116774
     11 C                    -0.064952
     12 C                    -0.280486
     13 C                     0.041701
     14 H                     0.197011
     15 C                    -0.231640
     16 S                     0.017246
     17 C                    -0.272752
     18 H                     0.101944
     19 H                     0.111303
     20 H                     0.107587
     21 H                     0.197176
     22 H                     0.109053
     23 H                     0.110923
     24 H                     0.182445
  ----------------------------------------
  Sum of atomic charges =     0.000000

                    Cartesian Multipole Moments
 -----------------------------------------------------------------
    Charge (ESU x 10^10)
                -0.0000
    Dipole Moment (Debye)
         X       1.9038      Y       0.3738      Z       4.1909
       Tot       4.6182
    Quadrupole Moments (Debye-Ang)
        XX     -86.9099     XY       4.8965     YY     -78.4050
        XZ       1.0179     YZ      -2.8988     ZZ     -86.0298

 Total job time:  58.95s(wall), 1951.12s(cpu)
        *  Thank you very much for using Q-Chem.  Have a nice day.  *
