 Q-Chem 5.4, Q-Chem, Inc., Pleasanton, CA (2021)
 Q-Chem 5.4.0 for Intel X86 EM64T Linux

User input:
--------------------------------------------------------------
$molecule
0 1
C	-0.126876	-3.887800	0.713264
C	0.113784	-3.701456	-0.651267
C	0.188043	-2.345170	-1.068787
H	0.236019	-4.545233	-1.346782
C	0.000000	-1.450135	0.000000
S	-0.265612	-2.321334	1.504247
C	0.439357	-1.934439	-2.493059
H	0.554378	-2.819799	-3.147809
H	1.362899	-1.326210	-2.589987
H	-0.394786	-1.325374	-2.899892
C	0.000000	0.000000	0.000000
C	0.354153	0.766774	1.113020
C	0.937751	2.029404	0.820578
H	0.191350	0.414475	2.142881
C	1.042030	2.254581	-0.563588
S	0.406851	0.881228	-1.464748
C	1.384426	2.995779	1.882380
H	1.196413	2.589194	2.894974
H	0.849641	3.965707	1.808137
H	2.469756	3.216753	1.808230
H	1.443919	3.124243	-1.097114
H	0.698744	-4.420219	1.198647
H	-1.069193	-4.419395	0.886933
H	1.063595	-1.450628	0.187526
$end

$rem
JOBTYPE		SP
EXCHANGE	HF
CORRELATION	pRIMP2
BASIS		cc-pvtz
METHOD		rimp2
AUX_BASIS	rimp2-cc-pvtz
SOLVENT_METHOD	PCM
PURECART	11111
SYMMETRY	false
MEM_TOTAL	110000
SCF_CONVERGENCE = 6
THRESH=10
GUI = 2
$end

$solvent
dielectric 4.90
$end
--------------------------------------------------------------

             Standard Nuclear Orientation (Angstroms)
    I     Atom           X                Y                Z
 ----------------------------------------------------------------
    1      C      -0.1268760000    -3.8878000000     0.7132640000
    2      C       0.1137840000    -3.7014560000    -0.6512670000
    3      C       0.1880430000    -2.3451700000    -1.0687870000
    4      H       0.2360190000    -4.5452330000    -1.3467820000
    5      C       0.0000000000    -1.4501350000     0.0000000000
    6      S      -0.2656120000    -2.3213340000     1.5042470000
    7      C       0.4393570000    -1.9344390000    -2.4930590000
    8      H       0.5543780000    -2.8197990000    -3.1478090000
    9      H       1.3628990000    -1.3262100000    -2.5899870000
   10      H      -0.3947860000    -1.3253740000    -2.8998920000
   11      C       0.0000000000     0.0000000000     0.0000000000
   12      C       0.3541530000     0.7667740000     1.1130200000
   13      C       0.9377510000     2.0294040000     0.8205780000
   14      H       0.1913500000     0.4144750000     2.1428810000
   15      C       1.0420300000     2.2545810000    -0.5635880000
   16      S       0.4068510000     0.8812280000    -1.4647480000
   17      C       1.3844260000     2.9957790000     1.8823800000
   18      H       1.1964130000     2.5891940000     2.8949740000
   19      H       0.8496410000     3.9657070000     1.8081370000
   20      H       2.4697560000     3.2167530000     1.8082300000
   21      H       1.4439190000     3.1242430000    -1.0971140000
   22      H       0.6987440000    -4.4202190000     1.1986470000
   23      H      -1.0691930000    -4.4193950000     0.8869330000
   24      H       1.0635950000    -1.4506280000     0.1875260000
 ----------------------------------------------------------------

   10   -1180.7462080241      4.90e-07  Convergence criterion met
 Total energy in the final basis set =    -1180.7462080241
        RIMP2         total energy =     -1182.7556563028 a.u.

                    Orbital Energies (a.u.)
 --------------------------------------------------------------

 Alpha MOs
 -- Occupied --
-91.9808 -91.9459 -11.2880 -11.2643 -11.2621 -11.2558 -11.2503 -11.2440
-11.2312 -11.2305 -11.2278 -11.2217  -8.9811  -8.9505  -6.6619  -6.6614
 -6.6607  -6.6319  -6.6309  -6.6296  -1.2028  -1.1523  -1.0599  -1.0278
 -1.0068  -0.9555  -0.9154  -0.9024  -0.8121  -0.7716  -0.7177  -0.7029
 -0.6620  -0.6474  -0.6115  -0.5887  -0.5823  -0.5722  -0.5686  -0.5536
 -0.5418  -0.5329  -0.5164  -0.5114  -0.4913  -0.4789  -0.4561  -0.4449
 -0.3582  -0.3409  -0.3268  -0.2638

          Ground-State Mulliken Net Atomic Charges

     Atom                 Charge (a.u.)
  ----------------------------------------
      1 C                    -0.073970
      2 C                    -0.317082
      3 C                    -0.046413
      4 H                     0.179406
      5 C                     0.093078
      6 S                    -0.188395
      7 C                    -0.305829
      8 H                     0.118226
      9 H                     0.113316
     10 H                     0.113124
     11 C                     0.004183
     12 C                    -0.310442
     13 C                     0.046427
     14 H                     0.177022
     15 C                    -0.279288
     16 S                     0.011554
     17 C                    -0.270006
     18 H                     0.102906
     19 H                     0.108644
     20 H                     0.107568
     21 H                     0.197035
     22 H                     0.111309
     23 H                     0.113289
     24 H                     0.194337
  ----------------------------------------
  Sum of atomic charges =     0.000000

                    Cartesian Multipole Moments
 -----------------------------------------------------------------
    Charge (ESU x 10^10)
                -0.0000
    Dipole Moment (Debye)
         X       1.9157      Y      -0.3974      Z      -0.9328
       Tot       2.1674
    Quadrupole Moments (Debye-Ang)
        XX     -90.0251     XY       1.6871     YY     -75.3991
        XZ       0.6607     YZ       4.3386     ZZ     -85.3844

 Total job time:  53.69s(wall), 1919.40s(cpu)
        *  Thank you very much for using Q-Chem.  Have a nice day.  *
