 Q-Chem 5.4, Q-Chem, Inc., Pleasanton, CA (2021)
 Q-Chem 5.4.0 for Intel X86 EM64T Linux

User input:
--------------------------------------------------------------
$molecule
0 1
C	-0.724460	-3.887800	-0.001092
C	0.661131	-3.701456	-0.001036
C	1.085203	-2.345170	-0.000406
H	1.367305	-4.545233	-0.001433
C	0.000000	-1.450135	0.000000
S	-1.527517	-2.321334	-0.000367
C	2.531478	-1.934439	-0.000233
H	3.196254	-2.819799	-0.000656
H	2.787305	-1.326210	0.892447
H	2.787282	-1.325374	-0.892350
C	0.000000	0.000000	0.000000
C	0.285976	0.794723	1.113020
C	0.757308	2.103412	0.820578
H	0.154498	0.429575	2.142881
C	0.841565	2.336821	-0.563588
S	0.328498	0.913334	-1.464748
C	1.118059	3.105040	1.882380
H	0.966197	2.683616	2.894974
H	0.500773	4.024668	1.808137
H	2.180000	3.419766	1.808230
H	1.166129	3.238200	-1.097114
H	-1.059101	-4.420219	0.896272
H	-1.059122	-4.419395	-0.898936
H	0.000014	-1.450628	1.080000
$end

$rem
JOBTYPE		SP
EXCHANGE	HF
CORRELATION	pRIMP2
BASIS		cc-pvtz
METHOD		rimp2
AUX_BASIS	rimp2-cc-pvtz
SOLVENT_METHOD	PCM
PURECART	11111
SYMMETRY	false
MEM_TOTAL	110000
SCF_CONVERGENCE = 6
THRESH=10
GUI = 2
$end

$solvent
dielectric 4.90
$end
--------------------------------------------------------------

             Standard Nuclear Orientation (Angstroms)
    I     Atom           X                Y                Z
 ----------------------------------------------------------------
    1      C      -0.7244600000    -3.8878000000    -0.0010920000
    2      C       0.6611310000    -3.7014560000    -0.0010360000
    3      C       1.0852030000    -2.3451700000    -0.0004060000
    4      H       1.3673050000    -4.5452330000    -0.0014330000
    5      C       0.0000000000    -1.4501350000     0.0000000000
    6      S      -1.5275170000    -2.3213340000    -0.0003670000
    7      C       2.5314780000    -1.9344390000    -0.0002330000
    8      H       3.1962540000    -2.8197990000    -0.0006560000
    9      H       2.7873050000    -1.3262100000     0.8924470000
   10      H       2.7872820000    -1.3253740000    -0.8923500000
   11      C       0.0000000000     0.0000000000     0.0000000000
   12      C       0.2859760000     0.7947230000     1.1130200000
   13      C       0.7573080000     2.1034120000     0.8205780000
   14      H       0.1544980000     0.4295750000     2.1428810000
   15      C       0.8415650000     2.3368210000    -0.5635880000
   16      S       0.3284980000     0.9133340000    -1.4647480000
   17      C       1.1180590000     3.1050400000     1.8823800000
   18      H       0.9661970000     2.6836160000     2.8949740000
   19      H       0.5007730000     4.0246680000     1.8081370000
   20      H       2.1800000000     3.4197660000     1.8082300000
   21      H       1.1661290000     3.2382000000    -1.0971140000
   22      H      -1.0591010000    -4.4202190000     0.8962720000
   23      H      -1.0591220000    -4.4193950000    -0.8989360000
   24      H       0.0000140000    -1.4506280000     1.0800000000
 ----------------------------------------------------------------

   10   -1180.7577701534      5.30e-07  Convergence criterion met
 Total energy in the final basis set =    -1180.7577701534
        RIMP2         total energy =     -1182.7641988409 a.u.

                    Orbital Energies (a.u.)
 --------------------------------------------------------------

 Alpha MOs
 -- Occupied --
-91.9808 -91.9392 -11.2787 -11.2683 -11.2623 -11.2551 -11.2516 -11.2459
-11.2401 -11.2306 -11.2301 -11.2190  -8.9808  -8.9439  -6.6617  -6.6612
 -6.6607  -6.6253  -6.6243  -6.6230  -1.1975  -1.1542  -1.0570  -1.0244
 -1.0065  -0.9604  -0.9113  -0.9018  -0.8131  -0.7608  -0.7365  -0.7027
 -0.6597  -0.6400  -0.6109  -0.5894  -0.5797  -0.5723  -0.5660  -0.5504
 -0.5411  -0.5283  -0.5166  -0.5045  -0.4934  -0.4771  -0.4598  -0.4476
 -0.3547  -0.3422  -0.3136  -0.2810

          Ground-State Mulliken Net Atomic Charges

     Atom                 Charge (a.u.)
  ----------------------------------------
      1 C                    -0.076703
      2 C                    -0.328498
      3 C                    -0.012913
      4 H                     0.176877
      5 C                     0.064604
      6 S                    -0.182629
      7 C                    -0.268660
      8 H                     0.114582
      9 H                     0.102077
     10 H                     0.108823
     11 C                    -0.061993
     12 C                    -0.254630
     13 C                     0.031217
     14 H                     0.181726
     15 C                    -0.234491
     16 S                     0.005497
     17 C                    -0.270724
     18 H                     0.102336
     19 H                     0.108656
     20 H                     0.107886
     21 H                     0.197938
     22 H                     0.109948
     23 H                     0.110966
     24 H                     0.168107
  ----------------------------------------
  Sum of atomic charges =     0.000000

                    Cartesian Multipole Moments
 -----------------------------------------------------------------
    Charge (ESU x 10^10)
                -0.0000
    Dipole Moment (Debye)
         X       3.1515      Y       0.7475      Z       2.3475
       Tot       4.0002
    Quadrupole Moments (Debye-Ang)
        XX     -90.6335     XY      -0.3812     YY     -75.1192
        XZ       0.0805     YZ      -0.2428     ZZ     -85.9773

 Total job time:  56.21s(wall), 1945.23s(cpu)
        *  Thank you very much for using Q-Chem.  Have a nice day.  *
