 Q-Chem 5.4, Q-Chem, Inc., Pleasanton, CA (2021)
 Q-Chem 5.4.0 for Intel X86 EM64T Linux

User input:
--------------------------------------------------------------
$molecule
0 1
C	0.246754	-3.887800	0.681143
C	-0.227093	-3.701456	-0.620906
C	-0.371543	-2.345170	-1.019618
H	-0.468992	-4.545233	-1.284357
C	0.000000	-1.450135	0.000000
S	0.522097	-2.321334	1.435522
C	-0.866035	-1.934439	-2.378731
H	-1.093799	-2.819799	-3.003272
H	-0.114688	-1.326210	-2.924444
H	-1.791841	-1.325374	-2.313987
C	0.000000	0.000000	0.000000
C	0.354153	0.766774	1.113020
C	0.937751	2.029404	0.820578
H	0.191350	0.414475	2.142881
C	1.042030	2.254581	-0.563588
S	0.406851	0.881228	-1.464748
C	1.384426	2.995779	1.882380
H	1.196413	2.589194	2.894974
H	0.849641	3.965707	1.808137
H	2.469756	3.216753	1.808230
H	1.443919	3.124243	-1.097114
H	1.204454	-4.420219	0.688686
H	-0.482482	-4.419395	1.302703
H	1.014863	-1.450628	-0.369395
$end

$rem
JOBTYPE		SP
EXCHANGE	HF
CORRELATION	pRIMP2
BASIS		cc-pvtz
METHOD		rimp2
AUX_BASIS	rimp2-cc-pvtz
SOLVENT_METHOD	PCM
PURECART	11111
SYMMETRY	false
MEM_TOTAL	110000
SCF_CONVERGENCE = 6
THRESH=10
GUI = 2
$end

$solvent
dielectric 4.90
$end
--------------------------------------------------------------

             Standard Nuclear Orientation (Angstroms)
    I     Atom           X                Y                Z
 ----------------------------------------------------------------
    1      C       0.2467540000    -3.8878000000     0.6811430000
    2      C      -0.2270930000    -3.7014560000    -0.6209060000
    3      C      -0.3715430000    -2.3451700000    -1.0196180000
    4      H      -0.4689920000    -4.5452330000    -1.2843570000
    5      C       0.0000000000    -1.4501350000     0.0000000000
    6      S       0.5220970000    -2.3213340000     1.4355220000
    7      C      -0.8660350000    -1.9344390000    -2.3787310000
    8      H      -1.0937990000    -2.8197990000    -3.0032720000
    9      H      -0.1146880000    -1.3262100000    -2.9244440000
   10      H      -1.7918410000    -1.3253740000    -2.3139870000
   11      C       0.0000000000     0.0000000000     0.0000000000
   12      C       0.3541530000     0.7667740000     1.1130200000
   13      C       0.9377510000     2.0294040000     0.8205780000
   14      H       0.1913500000     0.4144750000     2.1428810000
   15      C       1.0420300000     2.2545810000    -0.5635880000
   16      S       0.4068510000     0.8812280000    -1.4647480000
   17      C       1.3844260000     2.9957790000     1.8823800000
   18      H       1.1964130000     2.5891940000     2.8949740000
   19      H       0.8496410000     3.9657070000     1.8081370000
   20      H       2.4697560000     3.2167530000     1.8082300000
   21      H       1.4439190000     3.1242430000    -1.0971140000
   22      H       1.2044540000    -4.4202190000     0.6886860000
   23      H      -0.4824820000    -4.4193950000     1.3027030000
   24      H       1.0148630000    -1.4506280000    -0.3693950000
 ----------------------------------------------------------------

   10   -1180.7522216025      4.88e-07  Convergence criterion met
 Total energy in the final basis set =    -1180.7522216025
        RIMP2         total energy =     -1182.7592779600 a.u.

                    Orbital Energies (a.u.)
 --------------------------------------------------------------

 Alpha MOs
 -- Occupied --
-91.9803 -91.9462 -11.2870 -11.2631 -11.2616 -11.2586 -11.2506 -11.2435
-11.2335 -11.2326 -11.2280 -11.2225  -8.9807  -8.9506  -6.6617  -6.6611
 -6.6604  -6.6319  -6.6309  -6.6297  -1.2025  -1.1531  -1.0600  -1.0277
 -1.0059  -0.9572  -0.9160  -0.9018  -0.8128  -0.7715  -0.7204  -0.7038
 -0.6578  -0.6467  -0.6119  -0.5919  -0.5803  -0.5731  -0.5691  -0.5531
 -0.5423  -0.5341  -0.5149  -0.5097  -0.4888  -0.4821  -0.4591  -0.4451
 -0.3586  -0.3426  -0.3269  -0.2661

          Ground-State Mulliken Net Atomic Charges

     Atom                 Charge (a.u.)
  ----------------------------------------
      1 C                    -0.074726
      2 C                    -0.314036
      3 C                    -0.058781
      4 H                     0.178384
      5 C                     0.118430
      6 S                    -0.185345
      7 C                    -0.301676
      8 H                     0.119082
      9 H                     0.107790
     10 H                     0.118434
     11 C                     0.011721
     12 C                    -0.347512
     13 C                     0.062662
     14 H                     0.178491
     15 C                    -0.274909
     16 S                     0.004502
     17 C                    -0.270064
     18 H                     0.103156
     19 H                     0.108478
     20 H                     0.108929
     21 H                     0.196285
     22 H                     0.112030
     23 H                     0.111533
     24 H                     0.187143
  ----------------------------------------
  Sum of atomic charges =     0.000000

                    Cartesian Multipole Moments
 -----------------------------------------------------------------
    Charge (ESU x 10^10)
                -0.0000
    Dipole Moment (Debye)
         X       0.6034      Y      -0.2941      Z      -1.0704
       Tot       1.2635
    Quadrupole Moments (Debye-Ang)
        XX     -89.7286     XY       3.7523     YY     -74.7608
        XZ       0.9337     YZ       5.1442     ZZ     -85.8594

 Total job time:  54.70s(wall), 1925.05s(cpu)
        *  Thank you very much for using Q-Chem.  Have a nice day.  *
