 Q-Chem 5.4, Q-Chem, Inc., Pleasanton, CA (2021)
 Q-Chem 5.4.0 for Intel X86 EM64T Linux

User input:
--------------------------------------------------------------
$molecule
0 1
C	-0.464838	-3.887800	-0.555670
C	0.425760	-3.701456	0.505790
C	0.697866	-2.345170	0.831053
H	0.879984	-4.545233	1.046496
C	-0.000000	-1.450135	-0.000000
S	-0.981588	-2.321334	-1.170382
C	1.627381	-1.934439	1.939074
H	2.055015	-2.819799	2.448051
H	1.107991	-1.326210	2.708853
H	2.475210	-1.325374	1.561590
C	0.000000	0.000000	0.000000
C	0.215623	0.816623	1.113020
C	0.571102	2.161411	0.820578
H	0.116470	0.441406	2.142881
C	0.634696	2.401276	-0.563588
S	0.247646	0.938489	-1.464748
C	0.843182	3.190669	1.882380
H	0.728628	2.757614	2.894974
H	0.148095	4.052998	1.808137
H	1.873652	3.596752	1.808230
H	0.879464	3.327513	-1.097114
H	-1.367361	-4.420219	-0.235206
H	0.007834	-4.419395	-1.389159
H	-0.827319	-1.450628	0.694221
$end

$rem
JOBTYPE		SP
EXCHANGE	HF
CORRELATION	pRIMP2
BASIS		cc-pvtz
METHOD		rimp2
AUX_BASIS	rimp2-cc-pvtz
SOLVENT_METHOD	PCM
PURECART	11111
SYMMETRY	false
MEM_TOTAL	110000
SCF_CONVERGENCE = 6
THRESH=10
GUI = 2
$end

$solvent
dielectric 4.90
$end
--------------------------------------------------------------

             Standard Nuclear Orientation (Angstroms)
    I     Atom           X                Y                Z
 ----------------------------------------------------------------
    1      C      -0.4648380000    -3.8878000000    -0.5556700000
    2      C       0.4257600000    -3.7014560000     0.5057900000
    3      C       0.6978660000    -2.3451700000     0.8310530000
    4      H       0.8799840000    -4.5452330000     1.0464960000
    5      C       0.0000000000    -1.4501350000     0.0000000000
    6      S      -0.9815880000    -2.3213340000    -1.1703820000
    7      C       1.6273810000    -1.9344390000     1.9390740000
    8      H       2.0550150000    -2.8197990000     2.4480510000
    9      H       1.1079910000    -1.3262100000     2.7088530000
   10      H       2.4752100000    -1.3253740000     1.5615900000
   11      C       0.0000000000     0.0000000000     0.0000000000
   12      C       0.2156230000     0.8166230000     1.1130200000
   13      C       0.5711020000     2.1614110000     0.8205780000
   14      H       0.1164700000     0.4414060000     2.1428810000
   15      C       0.6346960000     2.4012760000    -0.5635880000
   16      S       0.2476460000     0.9384890000    -1.4647480000
   17      C       0.8431820000     3.1906690000     1.8823800000
   18      H       0.7286280000     2.7576140000     2.8949740000
   19      H       0.1480950000     4.0529980000     1.8081370000
   20      H       1.8736520000     3.5967520000     1.8082300000
   21      H       0.8794640000     3.3275130000    -1.0971140000
   22      H      -1.3673610000    -4.4202190000    -0.2352060000
   23      H       0.0078340000    -4.4193950000    -1.3891590000
   24      H      -0.8273190000    -1.4506280000     0.6942210000
 ----------------------------------------------------------------

   10   -1180.7559906238      5.10e-07  Convergence criterion met
 Total energy in the final basis set =    -1180.7559906238
        RIMP2         total energy =     -1182.7632344590 a.u.

                    Orbital Energies (a.u.)
 --------------------------------------------------------------

 Alpha MOs
 -- Occupied --
-91.9820 -91.9441 -11.2844 -11.2646 -11.2604 -11.2586 -11.2511 -11.2429
-11.2370 -11.2321 -11.2292 -11.2211  -8.9817  -8.9487  -6.6626  -6.6621
 -6.6615  -6.6301  -6.6290  -6.6278  -1.1994  -1.1532  -1.0581  -1.0286
 -1.0030  -0.9615  -0.9136  -0.9008  -0.8160  -0.7607  -0.7293  -0.7074
 -0.6579  -0.6450  -0.6112  -0.5915  -0.5861  -0.5704  -0.5595  -0.5539
 -0.5415  -0.5322  -0.5194  -0.5054  -0.4846  -0.4814  -0.4638  -0.4468
 -0.3571  -0.3422  -0.3217  -0.2703

          Ground-State Mulliken Net Atomic Charges

     Atom                 Charge (a.u.)
  ----------------------------------------
      1 C                    -0.073560
      2 C                    -0.320378
      3 C                    -0.057510
      4 H                     0.178734
      5 C                     0.116289
      6 S                    -0.177457
      7 C                    -0.281972
      8 H                     0.119265
      9 H                     0.096335
     10 H                     0.115635
     11 C                    -0.056909
     12 C                    -0.285695
     13 C                     0.036898
     14 H                     0.190429
     15 C                    -0.256934
     16 S                     0.011523
     17 C                    -0.272687
     18 H                     0.101320
     19 H                     0.108885
     20 H                     0.108483
     21 H                     0.196387
     22 H                     0.111586
     23 H                     0.111341
     24 H                     0.179991
  ----------------------------------------
  Sum of atomic charges =     0.000000

                    Cartesian Multipole Moments
 -----------------------------------------------------------------
    Charge (ESU x 10^10)
                -0.0000
    Dipole Moment (Debye)
         X       1.3476      Y       0.1047      Z       3.8798
       Tot       4.1085
    Quadrupole Moments (Debye-Ang)
        XX     -90.7147     XY       1.4440     YY     -74.1109
        XZ       0.5132     YZ      -2.4885     ZZ     -86.2647

 Total job time:  57.16s(wall), 1966.75s(cpu)
        *  Thank you very much for using Q-Chem.  Have a nice day.  *
