 Q-Chem 5.4, Q-Chem, Inc., Pleasanton, CA (2021)
 Q-Chem 5.4.0 for Intel X86 EM64T Linux

User input:
--------------------------------------------------------------
$molecule
0 1
C	0.680396	-3.887800	0.248806
C	-0.621614	-3.701456	-0.225147
C	-1.019896	-2.345170	-0.370780
H	-1.285337	-4.545233	-0.466300
C	-0.000000	-1.450135	-0.000000
S	1.435271	-2.321334	0.522786
C	-2.378891	-1.934439	-0.865597
H	-3.003720	-2.819799	-1.092567
H	-2.313975	-1.326210	-1.791940
H	-2.924390	-1.325374	-0.114772
C	0.000000	0.000000	0.000000
C	0.070542	0.841660	1.113020
C	0.187101	2.227746	0.820578
H	0.038051	0.454925	2.142881
C	0.208076	2.475009	-0.563588
S	0.080917	0.967235	-1.464748
C	0.276318	3.288613	1.882380
H	0.238704	2.842244	2.894974
H	-0.557951	4.017140	1.808137
H	1.220618	3.867466	1.808230
H	0.288286	3.429678	-1.097114
H	1.301772	-4.420219	-0.479986
H	0.687795	-4.419395	1.206964
H	0.369368	-1.450628	-1.014873
$end

$rem
JOBTYPE		SP
EXCHANGE	HF
CORRELATION	pRIMP2
BASIS		cc-pvtz
METHOD		rimp2
AUX_BASIS	rimp2-cc-pvtz
SOLVENT_METHOD	PCM
PURECART	11111
SYMMETRY	false
MEM_TOTAL	110000
SCF_CONVERGENCE = 6
THRESH=10
GUI = 2
$end

$solvent
dielectric 4.90
$end
--------------------------------------------------------------

             Standard Nuclear Orientation (Angstroms)
    I     Atom           X                Y                Z
 ----------------------------------------------------------------
    1      C       0.6803960000    -3.8878000000     0.2488060000
    2      C      -0.6216140000    -3.7014560000    -0.2251470000
    3      C      -1.0198960000    -2.3451700000    -0.3707800000
    4      H      -1.2853370000    -4.5452330000    -0.4663000000
    5      C       0.0000000000    -1.4501350000     0.0000000000
    6      S       1.4352710000    -2.3213340000     0.5227860000
    7      C      -2.3788910000    -1.9344390000    -0.8655970000
    8      H      -3.0037200000    -2.8197990000    -1.0925670000
    9      H      -2.3139750000    -1.3262100000    -1.7919400000
   10      H      -2.9243900000    -1.3253740000    -0.1147720000
   11      C       0.0000000000     0.0000000000     0.0000000000
   12      C       0.0705420000     0.8416600000     1.1130200000
   13      C       0.1871010000     2.2277460000     0.8205780000
   14      H       0.0380510000     0.4549250000     2.1428810000
   15      C       0.2080760000     2.4750090000    -0.5635880000
   16      S       0.0809170000     0.9672350000    -1.4647480000
   17      C       0.2763180000     3.2886130000     1.8823800000
   18      H       0.2387040000     2.8422440000     2.8949740000
   19      H      -0.5579510000     4.0171400000     1.8081370000
   20      H       1.2206180000     3.8674660000     1.8082300000
   21      H       0.2882860000     3.4296780000    -1.0971140000
   22      H       1.3017720000    -4.4202190000    -0.4799860000
   23      H       0.6877950000    -4.4193950000     1.2069640000
   24      H       0.3693680000    -1.4506280000    -1.0148730000
 ----------------------------------------------------------------

   10   -1180.7612230617      4.98e-07  Convergence criterion met
 Total energy in the final basis set =    -1180.7612230617
        RIMP2         total energy =     -1182.7649131575 a.u.

                    Orbital Energies (a.u.)
 --------------------------------------------------------------

 Alpha MOs
 -- Occupied --
-91.9864 -91.9429 -11.2805 -11.2646 -11.2622 -11.2562 -11.2510 -11.2413
-11.2373 -11.2312 -11.2287 -11.2189  -8.9861  -8.9474  -6.6670  -6.6665
 -6.6658  -6.6287  -6.6277  -6.6264  -1.1976  -1.1537  -1.0578  -1.0254
 -1.0040  -0.9615  -0.9136  -0.9005  -0.8124  -0.7652  -0.7354  -0.7038
 -0.6540  -0.6351  -0.6111  -0.5888  -0.5763  -0.5731  -0.5691  -0.5529
 -0.5418  -0.5303  -0.5125  -0.5051  -0.4907  -0.4841  -0.4629  -0.4486
 -0.3561  -0.3418  -0.3155  -0.2794

          Ground-State Mulliken Net Atomic Charges

     Atom                 Charge (a.u.)
  ----------------------------------------
      1 C                    -0.076079
      2 C                    -0.328366
      3 C                    -0.040534
      4 H                     0.177144
      5 C                     0.120361
      6 S                    -0.175070
      7 C                    -0.266873
      8 H                     0.113171
      9 H                     0.100179
     10 H                     0.108110
     11 C                    -0.114751
     12 C                    -0.227482
     13 C                     0.022712
     14 H                     0.185603
     15 C                    -0.245496
     16 S                     0.014387
     17 C                    -0.272171
     18 H                     0.103177
     19 H                     0.107750
     20 H                     0.108352
     21 H                     0.198927
     22 H                     0.111001
     23 H                     0.111650
     24 H                     0.164298
  ----------------------------------------
  Sum of atomic charges =     0.000000

                    Cartesian Multipole Moments
 -----------------------------------------------------------------
    Charge (ESU x 10^10)
                -0.0000
    Dipole Moment (Debye)
         X      -1.8492      Y       0.6417      Z      -0.0404
       Tot       1.9578
    Quadrupole Moments (Debye-Ang)
        XX     -91.4407     XY       3.8532     YY     -73.7298
        XZ      -0.0547     YZ       3.6817     ZZ     -86.1056

 Total job time:  58.95s(wall), 1874.45s(cpu)
        *  Thank you very much for using Q-Chem.  Have a nice day.  *
