 Q-Chem 5.4, Q-Chem, Inc., Pleasanton, CA (2021)
 Q-Chem 5.4.0 for Intel X86 EM64T Linux

User input:
--------------------------------------------------------------
$molecule
0 1
C	-0.124726	-3.887800	-0.713644
C	0.115824	-3.701456	0.650907
C	0.188844	-2.345170	1.068646
H	0.238841	-4.545233	1.346284
C	0.000000	-1.450135	0.000000
S	-0.264890	-2.321334	-1.504375
C	0.439816	-1.934439	2.492978
H	0.555669	-2.819799	3.147582
H	-0.394879	-1.326210	2.899931
H	1.362799	-1.325374	2.589982
C	0.000000	0.000000	0.000000
C	-0.003081	0.844605	1.113020
C	-0.007772	2.235575	0.820578
H	-0.001743	0.456510	2.142881
C	-0.008427	2.483726	-0.563588
S	-0.003691	0.970607	-1.464748
C	-0.011355	3.300181	1.882380
H	-0.009922	2.852233	2.894974
H	-0.905944	3.953225	1.808137
H	0.878901	3.959133	1.808230
H	-0.011727	3.441752	-1.097114
H	-1.066566	-4.420219	-0.887375
H	0.701364	-4.419395	-1.199130
H	-1.063590	-1.450628	0.187554
$end

$rem
JOBTYPE		SP
EXCHANGE	HF
CORRELATION	pRIMP2
BASIS		cc-pvtz
METHOD		rimp2
AUX_BASIS	rimp2-cc-pvtz
SOLVENT_METHOD	PCM
PURECART	11111
SYMMETRY	false
MEM_TOTAL	110000
SCF_CONVERGENCE = 6
THRESH=10
GUI = 2
$end

$solvent
dielectric 4.90
$end
--------------------------------------------------------------

             Standard Nuclear Orientation (Angstroms)
    I     Atom           X                Y                Z
 ----------------------------------------------------------------
    1      C      -0.1247260000    -3.8878000000    -0.7136440000
    2      C       0.1158240000    -3.7014560000     0.6509070000
    3      C       0.1888440000    -2.3451700000     1.0686460000
    4      H       0.2388410000    -4.5452330000     1.3462840000
    5      C       0.0000000000    -1.4501350000     0.0000000000
    6      S      -0.2648900000    -2.3213340000    -1.5043750000
    7      C       0.4398160000    -1.9344390000     2.4929780000
    8      H       0.5556690000    -2.8197990000     3.1475820000
    9      H      -0.3948790000    -1.3262100000     2.8999310000
   10      H       1.3627990000    -1.3253740000     2.5899820000
   11      C       0.0000000000     0.0000000000     0.0000000000
   12      C      -0.0030810000     0.8446050000     1.1130200000
   13      C      -0.0077720000     2.2355750000     0.8205780000
   14      H      -0.0017430000     0.4565100000     2.1428810000
   15      C      -0.0084270000     2.4837260000    -0.5635880000
   16      S      -0.0036910000     0.9706070000    -1.4647480000
   17      C      -0.0113550000     3.3001810000     1.8823800000
   18      H      -0.0099220000     2.8522330000     2.8949740000
   19      H      -0.9059440000     3.9532250000     1.8081370000
   20      H       0.8789010000     3.9591330000     1.8082300000
   21      H      -0.0117270000     3.4417520000    -1.0971140000
   22      H      -1.0665660000    -4.4202190000    -0.8873750000
   23      H       0.7013640000    -4.4193950000    -1.1991300000
   24      H      -1.0635900000    -1.4506280000     0.1875540000
 ----------------------------------------------------------------

   10   -1180.7573598301      5.01e-07  Convergence criterion met
 Total energy in the final basis set =    -1180.7573598301
        RIMP2         total energy =     -1182.7629171088 a.u.

                    Orbital Energies (a.u.)
 --------------------------------------------------------------

 Alpha MOs
 -- Occupied --
-91.9846 -91.9468 -11.2911 -11.2666 -11.2629 -11.2531 -11.2499 -11.2453
-11.2343 -11.2282 -11.2269 -11.2243  -8.9841  -8.9515  -6.6650  -6.6645
 -6.6638  -6.6329  -6.6318  -6.6306  -1.2020  -1.1523  -1.0596  -1.0320
 -1.0017  -0.9611  -0.9168  -0.8998  -0.8179  -0.7628  -0.7264  -0.7073
 -0.6582  -0.6490  -0.6111  -0.5944  -0.5867  -0.5690  -0.5593  -0.5521
 -0.5441  -0.5354  -0.5243  -0.4999  -0.4875  -0.4831  -0.4684  -0.4445
 -0.3612  -0.3438  -0.3244  -0.2645

          Ground-State Mulliken Net Atomic Charges

     Atom                 Charge (a.u.)
  ----------------------------------------
      1 C                    -0.072294
      2 C                    -0.309455
      3 C                    -0.068028
      4 H                     0.179966
      5 C                     0.137561
      6 S                    -0.180901
      7 C                    -0.300464
      8 H                     0.123310
      9 H                     0.100420
     10 H                     0.115954
     11 C                    -0.055685
     12 C                    -0.269272
     13 C                     0.032458
     14 H                     0.189512
     15 C                    -0.284504
     16 S                     0.006952
     17 C                    -0.273229
     18 H                     0.100355
     19 H                     0.108514
     20 H                     0.108445
     21 H                     0.196815
     22 H                     0.112133
     23 H                     0.113169
     24 H                     0.188265
  ----------------------------------------
  Sum of atomic charges =     0.000000

                    Cartesian Multipole Moments
 -----------------------------------------------------------------
    Charge (ESU x 10^10)
                -0.0000
    Dipole Moment (Debye)
         X      -0.4459      Y      -0.5461      Z       3.8985
       Tot       3.9617
    Quadrupole Moments (Debye-Ang)
        XX     -91.6681     XY       0.8385     YY     -72.8335
        XZ       0.3148     YZ      -2.6023     ZZ     -85.7849

 Total job time:  56.58s(wall), 1859.23s(cpu)
        *  Thank you very much for using Q-Chem.  Have a nice day.  *
