 Q-Chem 5.4, Q-Chem, Inc., Pleasanton, CA (2021)
 Q-Chem 5.4.0 for Intel X86 EM64T Linux

User input:
--------------------------------------------------------------
$molecule
0 1
C	0.126876	-3.887800	-0.713264
C	-0.113784	-3.701456	0.651267
C	-0.188043	-2.345170	1.068787
H	-0.236019	-4.545233	1.346782
C	0.000000	-1.450135	0.000000
S	0.265612	-2.321334	-1.504247
C	-0.439357	-1.934439	2.493059
H	-0.554378	-2.819799	3.147809
H	-1.362899	-1.326210	2.589987
H	0.394786	-1.325374	2.899892
C	0.000000	0.000000	0.000000
C	0.143630	0.832309	1.113020
C	0.380550	2.202961	0.820578
H	0.077556	0.449877	2.142881
C	0.422995	2.447456	-0.563588
S	0.164909	0.956502	-1.464748
C	0.561888	3.252016	1.882380
H	0.485513	2.810624	2.894974
H	-0.205711	4.050482	1.808137
H	1.553045	3.746365	1.808230
H	0.586105	3.391501	-1.097114
H	-0.698744	-4.420219	-1.198647
H	1.069193	-4.419395	-0.886933
H	-1.063595	-1.450628	-0.187526
$end

$rem
JOBTYPE		SP
EXCHANGE	HF
CORRELATION	pRIMP2
BASIS		cc-pvtz
METHOD		rimp2
AUX_BASIS	rimp2-cc-pvtz
SOLVENT_METHOD	PCM
PURECART	11111
SYMMETRY	false
MEM_TOTAL	110000
SCF_CONVERGENCE = 6
THRESH=10
GUI = 2
$end

$solvent
dielectric 4.90
$end
--------------------------------------------------------------

             Standard Nuclear Orientation (Angstroms)
    I     Atom           X                Y                Z
 ----------------------------------------------------------------
    1      C       0.1268760000    -3.8878000000    -0.7132640000
    2      C      -0.1137840000    -3.7014560000     0.6512670000
    3      C      -0.1880430000    -2.3451700000     1.0687870000
    4      H      -0.2360190000    -4.5452330000     1.3467820000
    5      C       0.0000000000    -1.4501350000     0.0000000000
    6      S       0.2656120000    -2.3213340000    -1.5042470000
    7      C      -0.4393570000    -1.9344390000     2.4930590000
    8      H      -0.5543780000    -2.8197990000     3.1478090000
    9      H      -1.3628990000    -1.3262100000     2.5899870000
   10      H       0.3947860000    -1.3253740000     2.8998920000
   11      C       0.0000000000     0.0000000000     0.0000000000
   12      C       0.1436300000     0.8323090000     1.1130200000
   13      C       0.3805500000     2.2029610000     0.8205780000
   14      H       0.0775560000     0.4498770000     2.1428810000
   15      C       0.4229950000     2.4474560000    -0.5635880000
   16      S       0.1649090000     0.9565020000    -1.4647480000
   17      C       0.5618880000     3.2520160000     1.8823800000
   18      H       0.4855130000     2.8106240000     2.8949740000
   19      H      -0.2057110000     4.0504820000     1.8081370000
   20      H       1.5530450000     3.7463650000     1.8082300000
   21      H       0.5861050000     3.3915010000    -1.0971140000
   22      H      -0.6987440000    -4.4202190000    -1.1986470000
   23      H       1.0691930000    -4.4193950000    -0.8869330000
   24      H      -1.0635950000    -1.4506280000    -0.1875260000
 ----------------------------------------------------------------

   10   -1180.7539741248      5.07e-07  Convergence criterion met
 Total energy in the final basis set =    -1180.7539741248
        RIMP2         total energy =     -1182.7600947118 a.u.

                    Orbital Energies (a.u.)
 --------------------------------------------------------------

 Alpha MOs
 -- Occupied --
-91.9843 -91.9469 -11.2892 -11.2665 -11.2617 -11.2548 -11.2498 -11.2450
-11.2342 -11.2283 -11.2281 -11.2236  -8.9839  -8.9515  -6.6649  -6.6643
 -6.6637  -6.6329  -6.6319  -6.6306  -1.2016  -1.1525  -1.0593  -1.0320
 -1.0012  -0.9618  -0.9167  -0.8998  -0.8176  -0.7623  -0.7303  -0.7062
 -0.6558  -0.6473  -0.6106  -0.5947  -0.5849  -0.5685  -0.5629  -0.5498
 -0.5467  -0.5348  -0.5237  -0.5003  -0.4874  -0.4819  -0.4685  -0.4447
 -0.3608  -0.3434  -0.3247  -0.2642

          Ground-State Mulliken Net Atomic Charges

     Atom                 Charge (a.u.)
  ----------------------------------------
      1 C                    -0.072068
      2 C                    -0.316240
      3 C                    -0.043238
      4 H                     0.179994
      5 C                     0.128242
      6 S                    -0.178607
      7 C                    -0.303222
      8 H                     0.123126
      9 H                     0.111125
     10 H                     0.105044
     11 C                    -0.065979
     12 C                    -0.262405
     13 C                     0.031467
     14 H                     0.191509
     15 C                    -0.277073
     16 S                     0.001425
     17 C                    -0.272876
     18 H                     0.100273
     19 H                     0.108368
     20 H                     0.108683
     21 H                     0.197694
     22 H                     0.111093
     23 H                     0.114352
     24 H                     0.179311
  ----------------------------------------
  Sum of atomic charges =     0.000000

                    Cartesian Multipole Moments
 -----------------------------------------------------------------
    Charge (ESU x 10^10)
                -0.0000
    Dipole Moment (Debye)
         X      -1.0547      Y      -0.4209      Z       3.6035
       Tot       3.7782
    Quadrupole Moments (Debye-Ang)
        XX     -91.6145     XY       3.7489     YY     -73.0752
        XZ       0.3581     YZ      -2.0916     ZZ     -85.5809

 Total job time:  55.24s(wall), 1935.16s(cpu)
        *  Thank you very much for using Q-Chem.  Have a nice day.  *
