 Q-Chem 5.4, Q-Chem, Inc., Pleasanton, CA (2021)
 Q-Chem 5.4.0 for Intel X86 EM64T Linux

User input:
--------------------------------------------------------------
$molecule
0 1
C	0.626855	-3.887800	0.363176
C	-0.573074	-3.701456	-0.329669
C	-0.940016	-2.345170	-0.542250
H	-1.184837	-4.545233	-0.682412
C	0.000000	-1.450135	0.000000
S	1.322686	-2.321334	0.764076
C	-2.192440	-1.934439	-1.265537
H	-2.768365	-2.819799	-1.597559
H	-1.967653	-1.326210	-2.166534
H	-2.860032	-1.325374	-0.620843
C	0.000000	0.000000	0.000000
C	0.729909	0.424971	1.113020
C	1.932179	1.124518	0.820578
H	0.394478	0.229765	2.142881
C	2.146756	1.249161	-0.563588
S	0.838724	0.488500	-1.464748
C	2.852364	1.659924	1.882380
H	2.465145	1.434710	2.894974
H	2.970621	2.761183	1.808137
H	3.868160	1.218416	1.808230
H	2.974781	1.731032	-1.097114
H	1.365344	-4.420219	-0.246643
H	0.467758	-4.419395	1.308062
H	0.539988	-1.450628	-0.935314
$end

$rem
JOBTYPE		SP
EXCHANGE	HF
CORRELATION	pRIMP2
BASIS		cc-pvtz
METHOD		rimp2
AUX_BASIS	rimp2-cc-pvtz
SOLVENT_METHOD	PCM
PURECART	11111
SYMMETRY	false
MEM_TOTAL	110000
SCF_CONVERGENCE = 6
THRESH=10
GUI = 2
$end

$solvent
dielectric 4.90
$end
--------------------------------------------------------------

             Standard Nuclear Orientation (Angstroms)
    I     Atom           X                Y                Z
 ----------------------------------------------------------------
    1      C       0.6268550000    -3.8878000000     0.3631760000
    2      C      -0.5730740000    -3.7014560000    -0.3296690000
    3      C      -0.9400160000    -2.3451700000    -0.5422500000
    4      H      -1.1848370000    -4.5452330000    -0.6824120000
    5      C       0.0000000000    -1.4501350000     0.0000000000
    6      S       1.3226860000    -2.3213340000     0.7640760000
    7      C      -2.1924400000    -1.9344390000    -1.2655370000
    8      H      -2.7683650000    -2.8197990000    -1.5975590000
    9      H      -1.9676530000    -1.3262100000    -2.1665340000
   10      H      -2.8600320000    -1.3253740000    -0.6208430000
   11      C       0.0000000000     0.0000000000     0.0000000000
   12      C       0.7299090000     0.4249710000     1.1130200000
   13      C       1.9321790000     1.1245180000     0.8205780000
   14      H       0.3944780000     0.2297650000     2.1428810000
   15      C       2.1467560000     1.2491610000    -0.5635880000
   16      S       0.8387240000     0.4885000000    -1.4647480000
   17      C       2.8523640000     1.6599240000     1.8823800000
   18      H       2.4651450000     1.4347100000     2.8949740000
   19      H       2.9706210000     2.7611830000     1.8081370000
   20      H       3.8681600000     1.2184160000     1.8082300000
   21      H       2.9747810000     1.7310320000    -1.0971140000
   22      H       1.3653440000    -4.4202190000    -0.2466430000
   23      H       0.4677580000    -4.4193950000     1.3080620000
   24      H       0.5399880000    -1.4506280000    -0.9353140000
 ----------------------------------------------------------------

   10   -1180.6783366708      8.17e-07  Convergence criterion met
 Total energy in the final basis set =    -1180.6783366708
        RIMP2         total energy =     -1182.6997444546 a.u.

                    Orbital Energies (a.u.)
 --------------------------------------------------------------

 Alpha MOs
 -- Occupied --
-91.9776 -91.9365 -11.2883 -11.2623 -11.2541 -11.2528 -11.2527 -11.2443
-11.2358 -11.2304 -11.2286 -11.2094  -8.9795  -8.9413  -6.6602  -6.6593
 -6.6590  -6.6227  -6.6217  -6.6204  -1.2079  -1.1529  -1.0596  -1.0232
 -1.0048  -0.9612  -0.9134  -0.8997  -0.8055  -0.7694  -0.7384  -0.7039
 -0.6493  -0.6310  -0.6163  -0.5878  -0.5807  -0.5752  -0.5668  -0.5501
 -0.5408  -0.5342  -0.5119  -0.5051  -0.4872  -0.4660  -0.4585  -0.4390
 -0.3542  -0.3426  -0.3223  -0.2600

          Ground-State Mulliken Net Atomic Charges

     Atom                 Charge (a.u.)
  ----------------------------------------
      1 C                    -0.085910
      2 C                    -0.337410
      3 C                    -0.065007
      4 H                     0.172651
      5 C                     0.090142
      6 S                    -0.199140
      7 C                    -0.277081
      8 H                     0.113603
      9 H                     0.100311
     10 H                     0.106935
     11 C                    -0.150432
     12 C                    -0.136405
     13 C                    -0.011982
     14 H                     0.193571
     15 C                    -0.165673
     16 S                     0.006411
     17 C                    -0.267918
     18 H                     0.104108
     19 H                     0.110796
     20 H                     0.107191
     21 H                     0.202651
     22 H                     0.107820
     23 H                     0.106361
     24 H                     0.174405
  ----------------------------------------
  Sum of atomic charges =     0.000000

                    Cartesian Multipole Moments
 -----------------------------------------------------------------
    Charge (ESU x 10^10)
                -0.0000
    Dipole Moment (Debye)
         X       0.9944      Y       0.9971      Z       0.0532
       Tot       1.4092
    Quadrupole Moments (Debye-Ang)
        XX     -82.1457     XY       7.9918     YY     -84.6928
        XZ       0.5055     YZ       3.6813     ZZ     -85.3443

 Total job time:  56.64s(wall), 1968.81s(cpu)
        *  Thank you very much for using Q-Chem.  Have a nice day.  *
