 Q-Chem 5.4, Q-Chem, Inc., Pleasanton, CA (2021)
 Q-Chem 5.4.0 for Intel X86 EM64T Linux

User input:
--------------------------------------------------------------
$molecule
0 1
C	0.464838	-3.887800	0.555670
C	-0.425760	-3.701456	-0.505790
C	-0.697866	-2.345170	-0.831053
H	-0.879984	-4.545233	-1.046496
C	-0.000000	-1.450135	-0.000000
S	0.981588	-2.321334	1.170382
C	-1.627381	-1.934439	-1.939074
H	-2.055015	-2.819799	-2.448051
H	-1.107991	-1.326210	-2.708853
H	-2.475210	-1.325374	-1.561590
C	0.000000	0.000000	0.000000
C	0.540541	0.648986	1.113020
C	1.431046	1.717546	0.820578
H	0.292104	0.350827	2.142881
C	1.590053	1.908061	-0.563588
S	0.621066	0.745901	-1.464748
C	2.112618	2.535384	1.882380
H	1.825779	2.191315	2.894974
H	1.847090	3.610676	1.808137
H	3.218159	2.467925	1.808230
H	2.203332	2.644073	-1.097114
H	1.367361	-4.420219	0.235206
H	-0.007834	-4.419395	1.389159
H	0.827319	-1.450628	-0.694221
$end

$rem
JOBTYPE		SP
EXCHANGE	HF
CORRELATION	pRIMP2
BASIS		cc-pvtz
METHOD		rimp2
AUX_BASIS	rimp2-cc-pvtz
SOLVENT_METHOD	PCM
PURECART	11111
SYMMETRY	false
MEM_TOTAL	110000
SCF_CONVERGENCE = 6
THRESH=10
GUI = 2
$end

$solvent
dielectric 4.90
$end
--------------------------------------------------------------

             Standard Nuclear Orientation (Angstroms)
    I     Atom           X                Y                Z
 ----------------------------------------------------------------
    1      C       0.4648380000    -3.8878000000     0.5556700000
    2      C      -0.4257600000    -3.7014560000    -0.5057900000
    3      C      -0.6978660000    -2.3451700000    -0.8310530000
    4      H      -0.8799840000    -4.5452330000    -1.0464960000
    5      C       0.0000000000    -1.4501350000     0.0000000000
    6      S       0.9815880000    -2.3213340000     1.1703820000
    7      C      -1.6273810000    -1.9344390000    -1.9390740000
    8      H      -2.0550150000    -2.8197990000    -2.4480510000
    9      H      -1.1079910000    -1.3262100000    -2.7088530000
   10      H      -2.4752100000    -1.3253740000    -1.5615900000
   11      C       0.0000000000     0.0000000000     0.0000000000
   12      C       0.5405410000     0.6489860000     1.1130200000
   13      C       1.4310460000     1.7175460000     0.8205780000
   14      H       0.2921040000     0.3508270000     2.1428810000
   15      C       1.5900530000     1.9080610000    -0.5635880000
   16      S       0.6210660000     0.7459010000    -1.4647480000
   17      C       2.1126180000     2.5353840000     1.8823800000
   18      H       1.8257790000     2.1913150000     2.8949740000
   19      H       1.8470900000     3.6106760000     1.8081370000
   20      H       3.2181590000     2.4679250000     1.8082300000
   21      H       2.2033320000     2.6440730000    -1.0971140000
   22      H       1.3673610000    -4.4202190000     0.2352060000
   23      H      -0.0078340000    -4.4193950000     1.3891590000
   24      H       0.8273190000    -1.4506280000    -0.6942210000
 ----------------------------------------------------------------

   10   -1180.7307081480      5.73e-07  Convergence criterion met
 Total energy in the final basis set =    -1180.7307081480
        RIMP2         total energy =     -1182.7421310038 a.u.

                    Orbital Energies (a.u.)
 --------------------------------------------------------------

 Alpha MOs
 -- Occupied --
-91.9786 -91.9426 -11.2765 -11.2691 -11.2586 -11.2548 -11.2516 -11.2431
-11.2401 -11.2318 -11.2290 -11.2184  -8.9796  -8.9470  -6.6605  -6.6598
 -6.6593  -6.6284  -6.6274  -6.6261  -1.2025  -1.1536  -1.0592  -1.0261
 -1.0045  -0.9591  -0.9145  -0.9011  -0.8099  -0.7699  -0.7279  -0.7031
 -0.6540  -0.6402  -0.6124  -0.5902  -0.5773  -0.5761  -0.5690  -0.5520
 -0.5417  -0.5342  -0.5141  -0.5085  -0.4872  -0.4740  -0.4616  -0.4441
 -0.3555  -0.3441  -0.3251  -0.2651

          Ground-State Mulliken Net Atomic Charges

     Atom                 Charge (a.u.)
  ----------------------------------------
      1 C                    -0.078720
      2 C                    -0.319872
      3 C                    -0.058270
      4 H                     0.175778
      5 C                     0.098926
      6 S                    -0.184391
      7 C                    -0.284243
      8 H                     0.116119
      9 H                     0.104893
     10 H                     0.110722
     11 C                    -0.032587
     12 C                    -0.298293
     13 C                     0.050320
     14 H                     0.188073
     15 C                    -0.237826
     16 S                     0.000984
     17 C                    -0.268119
     18 H                     0.103342
     19 H                     0.108743
     20 H                     0.108486
     21 H                     0.197828
     22 H                     0.110143
     23 H                     0.108641
     24 H                     0.179325
  ----------------------------------------
  Sum of atomic charges =     0.000000

                    Cartesian Multipole Moments
 -----------------------------------------------------------------
    Charge (ESU x 10^10)
                -0.0000
    Dipole Moment (Debye)
         X       0.3840      Y       0.3021      Z      -0.6451
       Tot       0.8093
    Quadrupole Moments (Debye-Ang)
        XX     -86.7676     XY       6.7467     YY     -78.2729
        XZ       0.9139     YZ       4.7863     ZZ     -86.0390

 Total job time:  56.31s(wall), 1902.67s(cpu)
        *  Thank you very much for using Q-Chem.  Have a nice day.  *
