 Q-Chem 5.4, Q-Chem, Inc., Pleasanton, CA (2021)
 Q-Chem 5.4.0 for Intel X86 EM64T Linux

User input:
--------------------------------------------------------------
$molecule
0 1
C	0.713644	-3.887800	-0.124726
C	-0.650907	-3.701456	0.115824
C	-1.068646	-2.345170	0.188844
H	-1.346284	-4.545233	0.238841
C	0.000000	-1.450135	0.000000
S	1.504375	-2.321334	-0.264890
C	-2.492978	-1.934439	0.439816
H	-3.147582	-2.819799	0.555669
H	-2.899931	-1.326210	-0.394879
H	-2.589982	-1.325374	1.362799
C	0.000000	0.000000	0.000000
C	0.285976	0.794723	1.113020
C	0.757308	2.103412	0.820578
H	0.154498	0.429575	2.142881
C	0.841565	2.336821	-0.563588
S	0.328498	0.913334	-1.464748
C	1.118059	3.105040	1.882380
H	0.966197	2.683616	2.894974
H	0.500773	4.024668	1.808137
H	2.180000	3.419766	1.808230
H	1.166129	3.238200	-1.097114
H	0.887375	-4.420219	-1.066566
H	1.199130	-4.419395	0.701364
H	-0.187554	-1.450628	-1.063590
$end

$rem
JOBTYPE		SP
EXCHANGE	HF
CORRELATION	pRIMP2
BASIS		cc-pvtz
METHOD		rimp2
AUX_BASIS	rimp2-cc-pvtz
SOLVENT_METHOD	PCM
PURECART	11111
SYMMETRY	false
MEM_TOTAL	110000
SCF_CONVERGENCE = 6
THRESH=10
GUI = 2
$end

$solvent
dielectric 4.90
$end
--------------------------------------------------------------

             Standard Nuclear Orientation (Angstroms)
    I     Atom           X                Y                Z
 ----------------------------------------------------------------
    1      C       0.7136440000    -3.8878000000    -0.1247260000
    2      C      -0.6509070000    -3.7014560000     0.1158240000
    3      C      -1.0686460000    -2.3451700000     0.1888440000
    4      H      -1.3462840000    -4.5452330000     0.2388410000
    5      C       0.0000000000    -1.4501350000     0.0000000000
    6      S       1.5043750000    -2.3213340000    -0.2648900000
    7      C      -2.4929780000    -1.9344390000     0.4398160000
    8      H      -3.1475820000    -2.8197990000     0.5556690000
    9      H      -2.8999310000    -1.3262100000    -0.3948790000
   10      H      -2.5899820000    -1.3253740000     1.3627990000
   11      C       0.0000000000     0.0000000000     0.0000000000
   12      C       0.2859760000     0.7947230000     1.1130200000
   13      C       0.7573080000     2.1034120000     0.8205780000
   14      H       0.1544980000     0.4295750000     2.1428810000
   15      C       0.8415650000     2.3368210000    -0.5635880000
   16      S       0.3284980000     0.9133340000    -1.4647480000
   17      C       1.1180590000     3.1050400000     1.8823800000
   18      H       0.9661970000     2.6836160000     2.8949740000
   19      H       0.5007730000     4.0246680000     1.8081370000
   20      H       2.1800000000     3.4197660000     1.8082300000
   21      H       1.1661290000     3.2382000000    -1.0971140000
   22      H       0.8873750000    -4.4202190000    -1.0665660000
   23      H       1.1991300000    -4.4193950000     0.7013640000
   24      H      -0.1875540000    -1.4506280000    -1.0635900000
 ----------------------------------------------------------------

   10   -1180.7541866519      5.21e-07  Convergence criterion met
 Total energy in the final basis set =    -1180.7541866519
        RIMP2         total energy =     -1182.7596260974 a.u.

                    Orbital Energies (a.u.)
 --------------------------------------------------------------

 Alpha MOs
 -- Occupied --
-91.9862 -91.9411 -11.2756 -11.2681 -11.2613 -11.2546 -11.2510 -11.2406
-11.2398 -11.2311 -11.2289 -11.2176  -8.9859  -8.9457  -6.6667  -6.6662
 -6.6656  -6.6270  -6.6260  -6.6247  -1.1970  -1.1538  -1.0570  -1.0262
 -1.0018  -0.9629  -0.9123  -0.9006  -0.8123  -0.7601  -0.7421  -0.7029
 -0.6529  -0.6328  -0.6114  -0.5872  -0.5780  -0.5718  -0.5675  -0.5531
 -0.5420  -0.5297  -0.5099  -0.5060  -0.4917  -0.4806  -0.4634  -0.4491
 -0.3570  -0.3391  -0.3130  -0.2809

          Ground-State Mulliken Net Atomic Charges

     Atom                 Charge (a.u.)
  ----------------------------------------
      1 C                    -0.072755
      2 C                    -0.327240
      3 C                    -0.034824
      4 H                     0.176271
      5 C                     0.089370
      6 S                    -0.173329
      7 C                    -0.268653
      8 H                     0.112397
      9 H                     0.103133
     10 H                     0.104036
     11 C                    -0.104736
     12 C                    -0.216376
     13 C                     0.022970
     14 H                     0.183971
     15 C                    -0.237149
     16 S                     0.014180
     17 C                    -0.271304
     18 H                     0.102850
     19 H                     0.107373
     20 H                     0.108220
     21 H                     0.199279
     22 H                     0.109016
     23 H                     0.111806
     24 H                     0.161492
  ----------------------------------------
  Sum of atomic charges =     0.000000

                    Cartesian Multipole Moments
 -----------------------------------------------------------------
    Charge (ESU x 10^10)
                -0.0000
    Dipole Moment (Debye)
         X      -1.8011      Y       0.8162      Z       1.1952
       Tot       2.3105
    Quadrupole Moments (Debye-Ang)
        XX     -90.5726     XY       7.4393     YY     -75.0713
        XZ       0.0613     YZ       1.6681     ZZ     -85.7414

 Total job time:  56.38s(wall), 1986.83s(cpu)
        *  Thank you very much for using Q-Chem.  Have a nice day.  *
