 Q-Chem 5.4, Q-Chem, Inc., Pleasanton, CA (2021)
 Q-Chem 5.4.0 for Intel X86 EM64T Linux

User input:
--------------------------------------------------------------
$molecule
0 1
C	0.713264	-3.887800	0.126876
C	-0.651267	-3.701456	-0.113784
C	-1.068787	-2.345170	-0.188043
H	-1.346782	-4.545233	-0.236019
C	0.000000	-1.450135	0.000000
S	1.504247	-2.321334	0.265612
C	-2.493059	-1.934439	-0.439357
H	-3.147809	-2.819799	-0.554378
H	-2.589987	-1.326210	-1.362899
H	-2.899892	-1.325374	0.394786
C	0.000000	0.000000	0.000000
C	0.419634	0.732990	1.113020
C	1.111057	1.939951	0.820578
H	0.226746	0.396221	2.142881
C	1.234565	2.155183	-0.563588
S	0.482106	0.842416	-1.464748
C	1.640257	2.863718	1.882380
H	1.417524	2.475067	2.894974
H	1.192042	3.876565	1.808137
H	2.740717	2.989259	1.808230
H	1.710720	2.986508	-1.097114
H	1.198647	-4.420219	-0.698744
H	0.886933	-4.419395	1.069193
H	0.187526	-1.450628	-1.063595
$end

$rem
JOBTYPE		SP
EXCHANGE	HF
CORRELATION	pRIMP2
BASIS		cc-pvtz
METHOD		rimp2
AUX_BASIS	rimp2-cc-pvtz
SOLVENT_METHOD	PCM
PURECART	11111
SYMMETRY	false
MEM_TOTAL	110000
SCF_CONVERGENCE = 6
THRESH=10
GUI = 2
$end

$solvent
dielectric 4.90
$end
--------------------------------------------------------------

             Standard Nuclear Orientation (Angstroms)
    I     Atom           X                Y                Z
 ----------------------------------------------------------------
    1      C       0.7132640000    -3.8878000000     0.1268760000
    2      C      -0.6512670000    -3.7014560000    -0.1137840000
    3      C      -1.0687870000    -2.3451700000    -0.1880430000
    4      H      -1.3467820000    -4.5452330000    -0.2360190000
    5      C       0.0000000000    -1.4501350000     0.0000000000
    6      S       1.5042470000    -2.3213340000     0.2656120000
    7      C      -2.4930590000    -1.9344390000    -0.4393570000
    8      H      -3.1478090000    -2.8197990000    -0.5543780000
    9      H      -2.5899870000    -1.3262100000    -1.3628990000
   10      H      -2.8998920000    -1.3253740000     0.3947860000
   11      C       0.0000000000     0.0000000000     0.0000000000
   12      C       0.4196340000     0.7329900000     1.1130200000
   13      C       1.1110570000     1.9399510000     0.8205780000
   14      H       0.2267460000     0.3962210000     2.1428810000
   15      C       1.2345650000     2.1551830000    -0.5635880000
   16      S       0.4821060000     0.8424160000    -1.4647480000
   17      C       1.6402570000     2.8637180000     1.8823800000
   18      H       1.4175240000     2.4750670000     2.8949740000
   19      H       1.1920420000     3.8765650000     1.8081370000
   20      H       2.7407170000     2.9892590000     1.8082300000
   21      H       1.7107200000     2.9865080000    -1.0971140000
   22      H       1.1986470000    -4.4202190000    -0.6987440000
   23      H       0.8869330000    -4.4193950000     1.0691930000
   24      H       0.1875260000    -1.4506280000    -1.0635950000
 ----------------------------------------------------------------

   10   -1180.7445305918      5.45e-07  Convergence criterion met
 Total energy in the final basis set =    -1180.7445305918
        RIMP2         total energy =     -1182.7521910814 a.u.

                    Orbital Energies (a.u.)
 --------------------------------------------------------------

 Alpha MOs
 -- Occupied --
-91.9845 -91.9407 -11.2724 -11.2706 -11.2593 -11.2532 -11.2512 -11.2428
-11.2398 -11.2306 -11.2290 -11.2159  -8.9845  -8.9453  -6.6654  -6.6648
 -6.6642  -6.6266  -6.6256  -6.6244  -1.1978  -1.1538  -1.0572  -1.0253
 -1.0021  -0.9621  -0.9124  -0.9004  -0.8106  -0.7631  -0.7390  -0.7030
 -0.6523  -0.6322  -0.6118  -0.5872  -0.5773  -0.5736  -0.5674  -0.5522
 -0.5414  -0.5306  -0.5094  -0.5066  -0.4889  -0.4780  -0.4636  -0.4477
 -0.3568  -0.3390  -0.3140  -0.2792

          Ground-State Mulliken Net Atomic Charges

     Atom                 Charge (a.u.)
  ----------------------------------------
      1 C                    -0.072687
      2 C                    -0.328844
      3 C                    -0.041259
      4 H                     0.175119
      5 C                     0.076591
      6 S                    -0.175311
      7 C                    -0.271079
      8 H                     0.112659
      9 H                     0.101371
     10 H                     0.106610
     11 C                    -0.076147
     12 C                    -0.245359
     13 C                     0.043844
     14 H                     0.182770
     15 C                    -0.234631
     16 S                     0.011826
     17 C                    -0.269611
     18 H                     0.103117
     19 H                     0.107587
     20 H                     0.107930
     21 H                     0.199932
     22 H                     0.108787
     23 H                     0.109726
     24 H                     0.167061
  ----------------------------------------
  Sum of atomic charges =     0.000000

                    Cartesian Multipole Moments
 -----------------------------------------------------------------
    Charge (ESU x 10^10)
                -0.0000
    Dipole Moment (Debye)
         X      -1.1353      Y       0.8782      Z       0.4466
       Tot       1.5032
    Quadrupole Moments (Debye-Ang)
        XX     -88.8784     XY       8.2155     YY     -76.9128
        XZ       0.2754     YZ       2.8864     ZZ     -85.8195

 Total job time:  55.29s(wall), 1873.14s(cpu)
        *  Thank you very much for using Q-Chem.  Have a nice day.  *
