 Q-Chem 5.4, Q-Chem, Inc., Pleasanton, CA (2021)
 Q-Chem 5.4.0 for Intel X86 EM64T Linux

User input:
--------------------------------------------------------------
$molecule
0 1
C	0.713264	-3.887800	0.126876
C	-0.651267	-3.701456	-0.113784
C	-1.068787	-2.345170	-0.188043
H	-1.346782	-4.545233	-0.236019
C	0.000000	-1.450135	0.000000
S	1.504247	-2.321334	0.265612
C	-2.493059	-1.934439	-0.439357
H	-3.147809	-2.819799	-0.554378
H	-2.589987	-1.326210	-1.362899
H	-2.899892	-1.325374	0.394786
C	0.000000	0.000000	0.000000
C	0.354153	0.766774	1.113020
C	0.937751	2.029404	0.820578
H	0.191350	0.414475	2.142881
C	1.042030	2.254581	-0.563588
S	0.406851	0.881228	-1.464748
C	1.384426	2.995779	1.882380
H	1.196413	2.589194	2.894974
H	0.849641	3.965707	1.808137
H	2.469756	3.216753	1.808230
H	1.443919	3.124243	-1.097114
H	1.198647	-4.420219	-0.698744
H	0.886933	-4.419395	1.069193
H	0.187526	-1.450628	-1.063595
$end

$rem
JOBTYPE		SP
EXCHANGE	HF
CORRELATION	pRIMP2
BASIS		cc-pvtz
METHOD		rimp2
AUX_BASIS	rimp2-cc-pvtz
SOLVENT_METHOD	PCM
PURECART	11111
SYMMETRY	false
MEM_TOTAL	110000
SCF_CONVERGENCE = 6
THRESH=10
GUI = 2
$end

$solvent
dielectric 4.90
$end
--------------------------------------------------------------

             Standard Nuclear Orientation (Angstroms)
    I     Atom           X                Y                Z
 ----------------------------------------------------------------
    1      C       0.7132640000    -3.8878000000     0.1268760000
    2      C      -0.6512670000    -3.7014560000    -0.1137840000
    3      C      -1.0687870000    -2.3451700000    -0.1880430000
    4      H      -1.3467820000    -4.5452330000    -0.2360190000
    5      C       0.0000000000    -1.4501350000     0.0000000000
    6      S       1.5042470000    -2.3213340000     0.2656120000
    7      C      -2.4930590000    -1.9344390000    -0.4393570000
    8      H      -3.1478090000    -2.8197990000    -0.5543780000
    9      H      -2.5899870000    -1.3262100000    -1.3628990000
   10      H      -2.8998920000    -1.3253740000     0.3947860000
   11      C       0.0000000000     0.0000000000     0.0000000000
   12      C       0.3541530000     0.7667740000     1.1130200000
   13      C       0.9377510000     2.0294040000     0.8205780000
   14      H       0.1913500000     0.4144750000     2.1428810000
   15      C       1.0420300000     2.2545810000    -0.5635880000
   16      S       0.4068510000     0.8812280000    -1.4647480000
   17      C       1.3844260000     2.9957790000     1.8823800000
   18      H       1.1964130000     2.5891940000     2.8949740000
   19      H       0.8496410000     3.9657070000     1.8081370000
   20      H       2.4697560000     3.2167530000     1.8082300000
   21      H       1.4439190000     3.1242430000    -1.0971140000
   22      H       1.1986470000    -4.4202190000    -0.6987440000
   23      H       0.8869330000    -4.4193950000     1.0691930000
   24      H       0.1875260000    -1.4506280000    -1.0635950000
 ----------------------------------------------------------------

   10   -1180.7499807991      5.27e-07  Convergence criterion met
 Total energy in the final basis set =    -1180.7499807991
        RIMP2         total energy =     -1182.7563188445 a.u.

                    Orbital Energies (a.u.)
 --------------------------------------------------------------

 Alpha MOs
 -- Occupied --
-91.9852 -91.9413 -11.2746 -11.2689 -11.2600 -11.2540 -11.2511 -11.2411
-11.2402 -11.2308 -11.2289 -11.2167  -8.9851  -8.9459  -6.6659  -6.6654
 -6.6648  -6.6272  -6.6262  -6.6249  -1.1976  -1.1538  -1.0572  -1.0254
 -1.0024  -0.9620  -0.9127  -0.9004  -0.8112  -0.7632  -0.7387  -0.7031
 -0.6527  -0.6328  -0.6116  -0.5875  -0.5772  -0.5732  -0.5678  -0.5525
 -0.5415  -0.5304  -0.5099  -0.5064  -0.4893  -0.4801  -0.4635  -0.4481
 -0.3566  -0.3396  -0.3137  -0.2800

          Ground-State Mulliken Net Atomic Charges

     Atom                 Charge (a.u.)
  ----------------------------------------
      1 C                    -0.072722
      2 C                    -0.327657
      3 C                    -0.042191
      4 H                     0.175519
      5 C                     0.086290
      6 S                    -0.173890
      7 C                    -0.270083
      8 H                     0.112422
      9 H                     0.101279
     10 H                     0.106647
     11 C                    -0.080123
     12 C                    -0.245205
     13 C                     0.040621
     14 H                     0.183116
     15 C                    -0.239509
     16 S                     0.012211
     17 C                    -0.270349
     18 H                     0.103135
     19 H                     0.107580
     20 H                     0.108099
     21 H                     0.199669
     22 H                     0.109085
     23 H                     0.110094
     24 H                     0.165962
  ----------------------------------------
  Sum of atomic charges =     0.000000

                    Cartesian Multipole Moments
 -----------------------------------------------------------------
    Charge (ESU x 10^10)
                -0.0000
    Dipole Moment (Debye)
         X      -1.3480      Y       0.8295      Z       0.4167
       Tot       1.6367
    Quadrupole Moments (Debye-Ang)
        XX     -89.6781     XY       7.6022     YY     -75.9655
        XZ       0.2113     YZ       2.9468     ZZ     -85.8797

 Total job time:  54.95s(wall), 1880.05s(cpu)
        *  Thank you very much for using Q-Chem.  Have a nice day.  *
