 Q-Chem 5.4, Q-Chem, Inc., Pleasanton, CA (2021)
 Q-Chem 5.4.0 for Intel X86 EM64T Linux

User input:
--------------------------------------------------------------
$molecule
0 1
C	-0.139145	-3.872011	0.792466
C	0.102109	-3.714320	-0.575568
C	0.180649	-2.367079	-1.020681
H	0.221685	-4.572499	-1.253706
C	-0.004575	-1.449826	0.029601
S	-0.272941	-2.289295	1.551299
C	0.433263	-1.986302	-2.453023
H	0.545494	-2.885200	-3.089557
H	1.358721	-1.383093	-2.562283
H	-0.398952	-1.383040	-2.872261
C	0.000000	0.000000	0.000000
C	-0.000422	0.867154	1.095548
C	-0.000723	2.251873	0.774773
H	-0.000313	0.500160	2.133116
C	-0.000589	2.471718	-0.614169
S	-0.000622	0.940512	-1.484255
C	-0.000952	3.337937	1.814623
H	-0.000937	2.910749	2.836150
H	-0.893476	3.992147	1.727003
H	0.891379	3.992426	1.727100
H	-0.000863	3.418660	-1.167140
H	0.684790	-4.397013	1.288672
H	-1.083135	-4.396976	0.976884
H	1.059012	-1.449845	0.217171
$end

$rem
JOBTYPE		SP
EXCHANGE	HF
CORRELATION	pRIMP2
BASIS		cc-pvtz
METHOD		rimp2
AUX_BASIS	rimp2-cc-pvtz
SOLVENT_METHOD	PCM
PURECART	11111
SYMMETRY	false
MEM_TOTAL	110000
SCF_CONVERGENCE = 6
THRESH=10
GUI = 2
$end

$solvent
dielectric 4.90
$end
--------------------------------------------------------------

             Standard Nuclear Orientation (Angstroms)
    I     Atom           X                Y                Z
 ----------------------------------------------------------------
    1      C      -0.1391450000    -3.8720110000     0.7924660000
    2      C       0.1021090000    -3.7143200000    -0.5755680000
    3      C       0.1806490000    -2.3670790000    -1.0206810000
    4      H       0.2216850000    -4.5724990000    -1.2537060000
    5      C      -0.0045750000    -1.4498260000     0.0296010000
    6      S      -0.2729410000    -2.2892950000     1.5512990000
    7      C       0.4332630000    -1.9863020000    -2.4530230000
    8      H       0.5454940000    -2.8852000000    -3.0895570000
    9      H       1.3587210000    -1.3830930000    -2.5622830000
   10      H      -0.3989520000    -1.3830400000    -2.8722610000
   11      C       0.0000000000     0.0000000000     0.0000000000
   12      C      -0.0004220000     0.8671540000     1.0955480000
   13      C      -0.0007230000     2.2518730000     0.7747730000
   14      H      -0.0003130000     0.5001600000     2.1331160000
   15      C      -0.0005890000     2.4717180000    -0.6141690000
   16      S      -0.0006220000     0.9405120000    -1.4842550000
   17      C      -0.0009520000     3.3379370000     1.8146230000
   18      H      -0.0009370000     2.9107490000     2.8361500000
   19      H      -0.8934760000     3.9921470000     1.7270030000
   20      H       0.8913790000     3.9924260000     1.7271000000
   21      H      -0.0008630000     3.4186600000    -1.1671400000
   22      H       0.6847900000    -4.3970130000     1.2886720000
   23      H      -1.0831350000    -4.3969760000     0.9768840000
   24      H       1.0590120000    -1.4498450000     0.2171710000
 ----------------------------------------------------------------

   10   -1180.7598194750      5.04e-07  Convergence criterion met
 Total energy in the final basis set =    -1180.7598194750
        RIMP2         total energy =     -1182.7651386853 a.u.

                    Orbital Energies (a.u.)
 --------------------------------------------------------------

 Alpha MOs
 -- Occupied --
-91.9821 -91.9475 -11.2912 -11.2658 -11.2627 -11.2529 -11.2501 -11.2449
-11.2329 -11.2296 -11.2276 -11.2230  -8.9820  -8.9520  -6.6629  -6.6624
 -6.6617  -6.6334  -6.6324  -6.6311  -1.2019  -1.1523  -1.0599  -1.0283
 -1.0072  -0.9561  -0.9165  -0.9017  -0.8149  -0.7715  -0.7172  -0.7039
 -0.6612  -0.6481  -0.6112  -0.5906  -0.5820  -0.5723  -0.5681  -0.5541
 -0.5419  -0.5335  -0.5159  -0.5088  -0.4897  -0.4863  -0.4577  -0.4468
 -0.3593  -0.3416  -0.3265  -0.2652

          Ground-State Mulliken Net Atomic Charges

     Atom                 Charge (a.u.)
  ----------------------------------------
      1 C                    -0.072718
      2 C                    -0.320069
      3 C                    -0.043114
      4 H                     0.180176
      5 C                     0.135896
      6 S                    -0.182814
      7 C                    -0.311664
      8 H                     0.122143
      9 H                     0.114090
     10 H                     0.112703
     11 C                    -0.025678
     12 C                    -0.314669
     13 C                     0.043358
     14 H                     0.176005
     15 C                    -0.280950
     16 S                     0.009891
     17 C                    -0.272481
     18 H                     0.102768
     19 H                     0.108567
     20 H                     0.108184
     21 H                     0.196413
     22 H                     0.111015
     23 H                     0.113852
     24 H                     0.189095
  ----------------------------------------
  Sum of atomic charges =     0.000000

                    Cartesian Multipole Moments
 -----------------------------------------------------------------
    Charge (ESU x 10^10)
                -0.0000
    Dipole Moment (Debye)
         X       1.3021      Y      -0.5166      Z      -0.8761
       Tot       1.6523
    Quadrupole Moments (Debye-Ang)
        XX     -91.8912     XY      -2.0707     YY     -72.9480
        XZ       0.2304     YZ       4.3421     ZZ     -85.5919

 Total job time:  57.78s(wall), 1855.11s(cpu)
        *  Thank you very much for using Q-Chem.  Have a nice day.  *
