 Q-Chem 5.4, Q-Chem, Inc., Pleasanton, CA (2021)
 Q-Chem 5.4.0 for Intel X86 EM64T Linux

User input:
--------------------------------------------------------------
$molecule
0 1
C	0.555670	-3.887800	-0.464838
C	-0.505790	-3.701456	0.425760
C	-0.831053	-2.345170	0.697866
H	-1.046496	-4.545233	0.879984
C	-0.000000	-1.450135	-0.000000
S	1.170382	-2.321334	-0.981588
C	-1.939074	-1.934439	1.627381
H	-2.448051	-2.819799	2.055015
H	-2.708853	-1.326210	1.107991
H	-1.561590	-1.325374	2.475210
C	0.000000	0.000000	0.000000
C	0.215623	0.816623	1.113020
C	0.571102	2.161411	0.820578
H	0.116470	0.441406	2.142881
C	0.634696	2.401276	-0.563588
S	0.247646	0.938489	-1.464748
C	0.843182	3.190669	1.882380
H	0.728628	2.757614	2.894974
H	0.148095	4.052998	1.808137
H	1.873652	3.596752	1.808230
H	0.879464	3.327513	-1.097114
H	0.235206	-4.420219	-1.367361
H	1.389159	-4.419395	0.007834
H	-0.694221	-1.450628	-0.827319
$end

$rem
JOBTYPE		SP
EXCHANGE	HF
CORRELATION	pRIMP2
BASIS		cc-pvtz
METHOD		rimp2
AUX_BASIS	rimp2-cc-pvtz
SOLVENT_METHOD	PCM
PURECART	11111
SYMMETRY	false
MEM_TOTAL	110000
SCF_CONVERGENCE = 6
THRESH=10
GUI = 2
$end

$solvent
dielectric 4.90
$end
--------------------------------------------------------------

             Standard Nuclear Orientation (Angstroms)
    I     Atom           X                Y                Z
 ----------------------------------------------------------------
    1      C       0.5556700000    -3.8878000000    -0.4648380000
    2      C      -0.5057900000    -3.7014560000     0.4257600000
    3      C      -0.8310530000    -2.3451700000     0.6978660000
    4      H      -1.0464960000    -4.5452330000     0.8799840000
    5      C       0.0000000000    -1.4501350000     0.0000000000
    6      S       1.1703820000    -2.3213340000    -0.9815880000
    7      C      -1.9390740000    -1.9344390000     1.6273810000
    8      H      -2.4480510000    -2.8197990000     2.0550150000
    9      H      -2.7088530000    -1.3262100000     1.1079910000
   10      H      -1.5615900000    -1.3253740000     2.4752100000
   11      C       0.0000000000     0.0000000000     0.0000000000
   12      C       0.2156230000     0.8166230000     1.1130200000
   13      C       0.5711020000     2.1614110000     0.8205780000
   14      H       0.1164700000     0.4414060000     2.1428810000
   15      C       0.6346960000     2.4012760000    -0.5635880000
   16      S       0.2476460000     0.9384890000    -1.4647480000
   17      C       0.8431820000     3.1906690000     1.8823800000
   18      H       0.7286280000     2.7576140000     2.8949740000
   19      H       0.1480950000     4.0529980000     1.8081370000
   20      H       1.8736520000     3.5967520000     1.8082300000
   21      H       0.8794640000     3.3275130000    -1.0971140000
   22      H       0.2352060000    -4.4202190000    -1.3673610000
   23      H       1.3891590000    -4.4193950000     0.0078340000
   24      H      -0.6942210000    -1.4506280000    -0.8273190000
 ----------------------------------------------------------------

   10   -1180.7560169231      5.13e-07  Convergence criterion met
 Total energy in the final basis set =    -1180.7560169231
        RIMP2         total energy =     -1182.7610299096 a.u.

                    Orbital Energies (a.u.)
 --------------------------------------------------------------

 Alpha MOs
 -- Occupied --
-91.9852 -91.9431 -11.2812 -11.2635 -11.2635 -11.2565 -11.2507 -11.2419
-11.2364 -11.2322 -11.2287 -11.2199  -8.9849  -8.9477  -6.6658  -6.6653
 -6.6647  -6.6291  -6.6281  -6.6268  -1.1983  -1.1535  -1.0575  -1.0284
 -1.0011  -0.9632  -0.9129  -0.9006  -0.8147  -0.7590  -0.7409  -0.7029
 -0.6537  -0.6370  -0.6109  -0.5896  -0.5803  -0.5688  -0.5667  -0.5538
 -0.5437  -0.5313  -0.5145  -0.5050  -0.4909  -0.4810  -0.4642  -0.4491
 -0.3562  -0.3418  -0.3204  -0.2719

          Ground-State Mulliken Net Atomic Charges

     Atom                 Charge (a.u.)
  ----------------------------------------
      1 C                    -0.075357
      2 C                    -0.327516
      3 C                    -0.030335
      4 H                     0.177503
      5 C                     0.101518
      6 S                    -0.173991
      7 C                    -0.273028
      8 H                     0.114528
      9 H                     0.105761
     10 H                     0.103285
     11 C                    -0.109317
     12 C                    -0.218537
     13 C                     0.012870
     14 H                     0.191653
     15 C                    -0.236904
     16 S                     0.004599
     17 C                    -0.273504
     18 H                     0.101780
     19 H                     0.107796
     20 H                     0.108682
     21 H                     0.198267
     22 H                     0.110358
     23 H                     0.113782
     24 H                     0.166106
  ----------------------------------------
  Sum of atomic charges =     0.000000

                    Cartesian Multipole Moments
 -----------------------------------------------------------------
    Charge (ESU x 10^10)
                -0.0000
    Dipole Moment (Debye)
         X      -1.8957      Y       0.4246      Z       2.3879
       Tot       3.0783
    Quadrupole Moments (Debye-Ang)
        XX     -91.3290     XY       6.3694     YY     -74.1071
        XZ       0.1059     YZ      -0.2224     ZZ     -85.6104

 Total job time:  56.08s(wall), 1951.87s(cpu)
        *  Thank you very much for using Q-Chem.  Have a nice day.  *
