 Q-Chem 5.4, Q-Chem, Inc., Pleasanton, CA (2021)
 Q-Chem 5.4.0 for Intel X86 EM64T Linux

User input:
--------------------------------------------------------------
$molecule
0 1
C	0.680396	-3.887800	0.248806
C	-0.621614	-3.701456	-0.225147
C	-1.019896	-2.345170	-0.370780
H	-1.285337	-4.545233	-0.466300
C	0.000000	-1.450135	0.000000
S	1.435271	-2.321334	0.522786
C	-2.378891	-1.934439	-0.865597
H	-3.003720	-2.819799	-1.092567
H	-2.313975	-1.326210	-1.791940
H	-2.924390	-1.325374	-0.114772
C	0.000000	0.000000	0.000000
C	0.645024	0.545262	1.113020
C	1.707554	1.442954	0.820578
H	0.348587	0.294774	2.142881
C	1.897227	1.602964	-0.563588
S	0.741155	0.626722	-1.464748
C	2.520787	2.130014	1.882380
H	2.178559	1.840981	2.894974
H	2.446016	3.235078	1.808137
H	3.597818	1.871604	1.808230
H	2.628997	2.221299	-1.097114
H	1.301772	-4.420219	-0.479986
H	0.687795	-4.419395	1.206964
H	0.369368	-1.450628	-1.014873
$end

$rem
JOBTYPE		SP
EXCHANGE	HF
CORRELATION	pRIMP2
BASIS		cc-pvtz
METHOD		rimp2
AUX_BASIS	rimp2-cc-pvtz
SOLVENT_METHOD	PCM
PURECART	11111
SYMMETRY	false
MEM_TOTAL	110000
SCF_CONVERGENCE = 6
THRESH=10
GUI = 2
$end

$solvent
dielectric 4.90
$end
--------------------------------------------------------------

             Standard Nuclear Orientation (Angstroms)
    I     Atom           X                Y                Z
 ----------------------------------------------------------------
    1      C       0.6803960000    -3.8878000000     0.2488060000
    2      C      -0.6216140000    -3.7014560000    -0.2251470000
    3      C      -1.0198960000    -2.3451700000    -0.3707800000
    4      H      -1.2853370000    -4.5452330000    -0.4663000000
    5      C       0.0000000000    -1.4501350000     0.0000000000
    6      S       1.4352710000    -2.3213340000     0.5227860000
    7      C      -2.3788910000    -1.9344390000    -0.8655970000
    8      H      -3.0037200000    -2.8197990000    -1.0925670000
    9      H      -2.3139750000    -1.3262100000    -1.7919400000
   10      H      -2.9243900000    -1.3253740000    -0.1147720000
   11      C       0.0000000000     0.0000000000     0.0000000000
   12      C       0.6450240000     0.5452620000     1.1130200000
   13      C       1.7075540000     1.4429540000     0.8205780000
   14      H       0.3485870000     0.2947740000     2.1428810000
   15      C       1.8972270000     1.6029640000    -0.5635880000
   16      S       0.7411550000     0.6267220000    -1.4647480000
   17      C       2.5207870000     2.1300140000     1.8823800000
   18      H       2.1785590000     1.8409810000     2.8949740000
   19      H       2.4460160000     3.2350780000     1.8081370000
   20      H       3.5978180000     1.8716040000     1.8082300000
   21      H       2.6289970000     2.2212990000    -1.0971140000
   22      H       1.3017720000    -4.4202190000    -0.4799860000
   23      H       0.6877950000    -4.4193950000     1.2069640000
   24      H       0.3693680000    -1.4506280000    -1.0148730000
 ----------------------------------------------------------------

   10   -1180.7085346147      7.13e-07  Convergence criterion met
 Total energy in the final basis set =    -1180.7085346147
        RIMP2         total energy =     -1182.7240288759 a.u.

                    Orbital Energies (a.u.)
 --------------------------------------------------------------

 Alpha MOs
 -- Occupied --
-91.9803 -91.9379 -11.2810 -11.2609 -11.2552 -11.2539 -11.2518 -11.2482
-11.2375 -11.2297 -11.2292 -11.2116  -8.9813  -8.9427  -6.6621  -6.6613
 -6.6609  -6.6240  -6.6230  -6.6217  -1.2021  -1.1535  -1.0581  -1.0239
 -1.0026  -0.9620  -0.9122  -0.9001  -0.8072  -0.7659  -0.7391  -0.7032
 -0.6501  -0.6303  -0.6143  -0.5870  -0.5781  -0.5757  -0.5666  -0.5507
 -0.5408  -0.5326  -0.5099  -0.5060  -0.4869  -0.4672  -0.4632  -0.4441
 -0.3563  -0.3387  -0.3183  -0.2699

          Ground-State Mulliken Net Atomic Charges

     Atom                 Charge (a.u.)
  ----------------------------------------
      1 C                    -0.077802
      2 C                    -0.336724
      3 C                    -0.049218
      4 H                     0.173526
      5 C                     0.071978
      6 S                    -0.189520
      7 C                    -0.275174
      8 H                     0.113318
      9 H                     0.100278
     10 H                     0.107086
     11 C                    -0.106657
     12 C                    -0.205487
     13 C                     0.029168
     14 H                     0.187749
     15 C                    -0.196207
     16 S                     0.010974
     17 C                    -0.266845
     18 H                     0.103331
     19 H                     0.108442
     20 H                     0.107201
     21 H                     0.201271
     22 H                     0.108486
     23 H                     0.107834
     24 H                     0.172995
  ----------------------------------------
  Sum of atomic charges =     0.000000

                    Cartesian Multipole Moments
 -----------------------------------------------------------------
    Charge (ESU x 10^10)
                -0.0000
    Dipole Moment (Debye)
         X       0.0966      Y       1.0260      Z       0.2429
       Tot       1.0588
    Quadrupole Moments (Debye-Ang)
        XX     -84.6754     XY       8.8821     YY     -81.8845
        XZ       0.4429     YZ       3.2232     ZZ     -85.5120

 Total job time:  65.24s(wall), 2479.95s(cpu)
        *  Thank you very much for using Q-Chem.  Have a nice day.  *
