 Q-Chem 5.4, Q-Chem, Inc., Pleasanton, CA (2021)
 Q-Chem 5.4.0 for Intel X86 EM64T Linux

User input:
--------------------------------------------------------------
$molecule
0 1
C	-0.466510	-3.887800	0.554267
C	0.424173	-3.701456	-0.507121
C	0.697244	-2.345170	-0.831575
H	0.877789	-4.545233	-1.048337
C	-0.000000	-1.450135	-0.000000
S	-0.982150	-2.321334	1.169911
C	1.627024	-1.934439	-1.939374
H	2.054010	-2.819799	-2.448894
H	2.475299	-1.326210	-1.561545
H	1.108051	-1.325374	-2.708773
C	0.000000	0.000000	0.000000
C	0.215623	0.816623	1.113020
C	0.571102	2.161411	0.820578
H	0.116470	0.441406	2.142881
C	0.634696	2.401276	-0.563588
S	0.247646	0.938489	-1.464748
C	0.843182	3.190669	1.882380
H	0.728628	2.757614	2.894974
H	0.148095	4.052998	1.808137
H	1.873652	3.596752	1.808230
H	0.879464	3.327513	-1.097114
H	0.005807	-4.420219	1.387431
H	-1.369415	-4.419395	0.233510
H	0.827337	-1.450628	0.694200
$end

$rem
JOBTYPE		SP
EXCHANGE	HF
CORRELATION	pRIMP2
BASIS		cc-pvtz
METHOD		rimp2
AUX_BASIS	rimp2-cc-pvtz
SOLVENT_METHOD	PCM
PURECART	11111
SYMMETRY	false
MEM_TOTAL	110000
SCF_CONVERGENCE = 6
THRESH=10
GUI = 2
$end

$solvent
dielectric 4.90
$end
--------------------------------------------------------------

             Standard Nuclear Orientation (Angstroms)
    I     Atom           X                Y                Z
 ----------------------------------------------------------------
    1      C      -0.4665100000    -3.8878000000     0.5542670000
    2      C       0.4241730000    -3.7014560000    -0.5071210000
    3      C       0.6972440000    -2.3451700000    -0.8315750000
    4      H       0.8777890000    -4.5452330000    -1.0483370000
    5      C       0.0000000000    -1.4501350000     0.0000000000
    6      S      -0.9821500000    -2.3213340000     1.1699110000
    7      C       1.6270240000    -1.9344390000    -1.9393740000
    8      H       2.0540100000    -2.8197990000    -2.4488940000
    9      H       2.4752990000    -1.3262100000    -1.5615450000
   10      H       1.1080510000    -1.3253740000    -2.7087730000
   11      C       0.0000000000     0.0000000000     0.0000000000
   12      C       0.2156230000     0.8166230000     1.1130200000
   13      C       0.5711020000     2.1614110000     0.8205780000
   14      H       0.1164700000     0.4414060000     2.1428810000
   15      C       0.6346960000     2.4012760000    -0.5635880000
   16      S       0.2476460000     0.9384890000    -1.4647480000
   17      C       0.8431820000     3.1906690000     1.8823800000
   18      H       0.7286280000     2.7576140000     2.8949740000
   19      H       0.1480950000     4.0529980000     1.8081370000
   20      H       1.8736520000     3.5967520000     1.8082300000
   21      H       0.8794640000     3.3275130000    -1.0971140000
   22      H       0.0058070000    -4.4202190000     1.3874310000
   23      H      -1.3694150000    -4.4193950000     0.2335100000
   24      H       0.8273370000    -1.4506280000     0.6942000000
 ----------------------------------------------------------------

   10   -1180.7545677580      4.96e-07  Convergence criterion met
 Total energy in the final basis set =    -1180.7545677580
        RIMP2         total energy =     -1182.7617612633 a.u.

                    Orbital Energies (a.u.)
 --------------------------------------------------------------

 Alpha MOs
 -- Occupied --
-91.9826 -91.9437 -11.2867 -11.2642 -11.2586 -11.2579 -11.2506 -11.2428
-11.2340 -11.2310 -11.2285 -11.2209  -8.9825  -8.9484  -6.6634  -6.6628
 -6.6622  -6.6298  -6.6287  -6.6274  -1.2001  -1.1527  -1.0585  -1.0259
 -1.0075  -0.9567  -0.9136  -0.9018  -0.8130  -0.7684  -0.7246  -0.7007
 -0.6622  -0.6437  -0.6107  -0.5861  -0.5806  -0.5737  -0.5682  -0.5529
 -0.5419  -0.5317  -0.5144  -0.5078  -0.4930  -0.4799  -0.4570  -0.4489
 -0.3566  -0.3427  -0.3214  -0.2676

          Ground-State Mulliken Net Atomic Charges

     Atom                 Charge (a.u.)
  ----------------------------------------
      1 C                    -0.073455
      2 C                    -0.323858
      3 C                    -0.027538
      4 H                     0.178610
      5 C                     0.064539
      6 S                    -0.177419
      7 C                    -0.289239
      8 H                     0.115171
      9 H                     0.112866
     10 H                     0.109846
     11 C                    -0.028445
     12 C                    -0.274255
     13 C                     0.029782
     14 H                     0.182073
     15 C                    -0.260198
     16 S                     0.008982
     17 C                    -0.270903
     18 H                     0.102673
     19 H                     0.108514
     20 H                     0.107511
     21 H                     0.196590
     22 H                     0.110275
     23 H                     0.113245
     24 H                     0.184632
  ----------------------------------------
  Sum of atomic charges =     0.000000

                    Cartesian Multipole Moments
 -----------------------------------------------------------------
    Charge (ESU x 10^10)
                -0.0000
    Dipole Moment (Debye)
         X       2.6360      Y      -0.0075      Z       0.0401
       Tot       2.6363
    Quadrupole Moments (Debye-Ang)
        XX     -91.3110     XY      -0.9790     YY     -74.6479
        XZ       0.2322     YZ       3.0482     ZZ     -85.4530

 Total job time:  57.75s(wall), 1908.72s(cpu)
        *  Thank you very much for using Q-Chem.  Have a nice day.  *
