 Q-Chem 5.4, Q-Chem, Inc., Pleasanton, CA (2021)
 Q-Chem 5.4.0 for Intel X86 EM64T Linux

User input:
--------------------------------------------------------------
$molecule
0 1
C	0.626855	-3.887800	0.363176
C	-0.573074	-3.701456	-0.329669
C	-0.940016	-2.345170	-0.542250
H	-1.184837	-4.545233	-0.682412
C	-0.000000	-1.450135	-0.000000
S	1.322686	-2.321334	0.764076
C	-2.192440	-1.934439	-1.265537
H	-2.768365	-2.819799	-1.597559
H	-1.967653	-1.326210	-2.166534
H	-2.860032	-1.325374	-0.620843
C	0.000000	0.000000	0.000000
C	0.070542	0.841660	1.113020
C	0.187101	2.227746	0.820578
H	0.038051	0.454925	2.142881
C	0.208076	2.475009	-0.563588
S	0.080917	0.967235	-1.464748
C	0.276318	3.288613	1.882380
H	0.238704	2.842244	2.894974
H	-0.557951	4.017140	1.808137
H	1.220618	3.867466	1.808230
H	0.288286	3.429678	-1.097114
H	1.365344	-4.420219	-0.246643
H	0.467758	-4.419395	1.308062
H	0.539988	-1.450628	-0.935314
$end

$rem
JOBTYPE		SP
EXCHANGE	HF
CORRELATION	pRIMP2
BASIS		cc-pvtz
METHOD		rimp2
AUX_BASIS	rimp2-cc-pvtz
SOLVENT_METHOD	PCM
PURECART	11111
SYMMETRY	false
MEM_TOTAL	110000
SCF_CONVERGENCE = 6
THRESH=10
GUI = 2
$end

$solvent
dielectric 4.90
$end
--------------------------------------------------------------

             Standard Nuclear Orientation (Angstroms)
    I     Atom           X                Y                Z
 ----------------------------------------------------------------
    1      C       0.6268550000    -3.8878000000     0.3631760000
    2      C      -0.5730740000    -3.7014560000    -0.3296690000
    3      C      -0.9400160000    -2.3451700000    -0.5422500000
    4      H      -1.1848370000    -4.5452330000    -0.6824120000
    5      C       0.0000000000    -1.4501350000     0.0000000000
    6      S       1.3226860000    -2.3213340000     0.7640760000
    7      C      -2.1924400000    -1.9344390000    -1.2655370000
    8      H      -2.7683650000    -2.8197990000    -1.5975590000
    9      H      -1.9676530000    -1.3262100000    -2.1665340000
   10      H      -2.8600320000    -1.3253740000    -0.6208430000
   11      C       0.0000000000     0.0000000000     0.0000000000
   12      C       0.0705420000     0.8416600000     1.1130200000
   13      C       0.1871010000     2.2277460000     0.8205780000
   14      H       0.0380510000     0.4549250000     2.1428810000
   15      C       0.2080760000     2.4750090000    -0.5635880000
   16      S       0.0809170000     0.9672350000    -1.4647480000
   17      C       0.2763180000     3.2886130000     1.8823800000
   18      H       0.2387040000     2.8422440000     2.8949740000
   19      H      -0.5579510000     4.0171400000     1.8081370000
   20      H       1.2206180000     3.8674660000     1.8082300000
   21      H       0.2882860000     3.4296780000    -1.0971140000
   22      H       1.3653440000    -4.4202190000    -0.2466430000
   23      H       0.4677580000    -4.4193950000     1.3080620000
   24      H       0.5399880000    -1.4506280000    -0.9353140000
 ----------------------------------------------------------------

   10   -1180.7613772847      4.95e-07  Convergence criterion met
 Total energy in the final basis set =    -1180.7613772847
        RIMP2         total energy =     -1182.7650745631 a.u.

                    Orbital Energies (a.u.)
 --------------------------------------------------------------

 Alpha MOs
 -- Occupied --
-91.9856 -91.9437 -11.2822 -11.2633 -11.2626 -11.2570 -11.2508 -11.2418
-11.2363 -11.2315 -11.2285 -11.2196  -8.9853  -8.9481  -6.6663  -6.6658
 -6.6651  -6.6295  -6.6285  -6.6272  -1.1982  -1.1536  -1.0581  -1.0256
 -1.0045  -0.9608  -0.9141  -0.9007  -0.8127  -0.7667  -0.7324  -0.7039
 -0.6544  -0.6367  -0.6111  -0.5899  -0.5762  -0.5736  -0.5692  -0.5529
 -0.5418  -0.5311  -0.5129  -0.5053  -0.4901  -0.4848  -0.4622  -0.4484
 -0.3561  -0.3424  -0.3181  -0.2764

          Ground-State Mulliken Net Atomic Charges

     Atom                 Charge (a.u.)
  ----------------------------------------
      1 C                    -0.076516
      2 C                    -0.325974
      3 C                    -0.047191
      4 H                     0.177433
      5 C                     0.127638
      6 S                    -0.174965
      7 C                    -0.269504
      8 H                     0.114331
      9 H                     0.100283
     10 H                     0.109751
     11 C                    -0.108798
     12 C                    -0.238899
     13 C                     0.025419
     14 H                     0.186481
     15 C                    -0.247555
     16 S                     0.011836
     17 C                    -0.272370
     18 H                     0.103164
     19 H                     0.107896
     20 H                     0.108385
     21 H                     0.198429
     22 H                     0.111485
     23 H                     0.111447
     24 H                     0.167793
  ----------------------------------------
  Sum of atomic charges =     0.000000

                    Cartesian Multipole Moments
 -----------------------------------------------------------------
    Charge (ESU x 10^10)
                -0.0000
    Dipole Moment (Debye)
         X      -1.5521      Y       0.4874      Z      -0.3813
       Tot       1.6709
    Quadrupole Moments (Debye-Ang)
        XX     -91.3517     XY       3.3153     YY     -73.6193
        XZ       0.0775     YZ       4.2053     ZZ     -86.1753

 Total job time:  53.48s(wall), 1863.73s(cpu)
        *  Thank you very much for using Q-Chem.  Have a nice day.  *
