 Q-Chem 5.4, Q-Chem, Inc., Pleasanton, CA (2021)
 Q-Chem 5.4.0 for Intel X86 EM64T Linux

User input:
--------------------------------------------------------------
$molecule
0 1
C	-0.681143	-3.887800	0.246754
C	0.620906	-3.701456	-0.227093
C	1.019618	-2.345170	-0.371543
H	1.284357	-4.545233	-0.468992
C	0.000000	-1.450135	0.000000
S	-1.435522	-2.321334	0.522097
C	2.378731	-1.934439	-0.866035
H	3.003272	-2.819799	-1.093799
H	2.924444	-1.326210	-0.114688
H	2.313987	-1.325374	-1.791841
C	0.000000	0.000000	0.000000
C	0.419634	0.732990	1.113020
C	1.111057	1.939951	0.820578
H	0.226746	0.396221	2.142881
C	1.234565	2.155183	-0.563588
S	0.482106	0.842416	-1.464748
C	1.640257	2.863718	1.882380
H	1.417524	2.475067	2.894974
H	1.192042	3.876565	1.808137
H	2.740717	2.989259	1.808230
H	1.710720	2.986508	-1.097114
H	-0.688686	-4.420219	1.204454
H	-1.302703	-4.419395	-0.482482
H	0.369395	-1.450628	1.014863
$end

$rem
JOBTYPE		SP
EXCHANGE	HF
CORRELATION	pRIMP2
BASIS		cc-pvtz
METHOD		rimp2
AUX_BASIS	rimp2-cc-pvtz
SOLVENT_METHOD	PCM
PURECART	11111
SYMMETRY	false
MEM_TOTAL	110000
SCF_CONVERGENCE = 6
THRESH=10
GUI = 2
$end

$solvent
dielectric 4.90
$end
--------------------------------------------------------------

             Standard Nuclear Orientation (Angstroms)
    I     Atom           X                Y                Z
 ----------------------------------------------------------------
    1      C      -0.6811430000    -3.8878000000     0.2467540000
    2      C       0.6209060000    -3.7014560000    -0.2270930000
    3      C       1.0196180000    -2.3451700000    -0.3715430000
    4      H       1.2843570000    -4.5452330000    -0.4689920000
    5      C       0.0000000000    -1.4501350000     0.0000000000
    6      S      -1.4355220000    -2.3213340000     0.5220970000
    7      C       2.3787310000    -1.9344390000    -0.8660350000
    8      H       3.0032720000    -2.8197990000    -1.0937990000
    9      H       2.9244440000    -1.3262100000    -0.1146880000
   10      H       2.3139870000    -1.3253740000    -1.7918410000
   11      C       0.0000000000     0.0000000000     0.0000000000
   12      C       0.4196340000     0.7329900000     1.1130200000
   13      C       1.1110570000     1.9399510000     0.8205780000
   14      H       0.2267460000     0.3962210000     2.1428810000
   15      C       1.2345650000     2.1551830000    -0.5635880000
   16      S       0.4821060000     0.8424160000    -1.4647480000
   17      C       1.6402570000     2.8637180000     1.8823800000
   18      H       1.4175240000     2.4750670000     2.8949740000
   19      H       1.1920420000     3.8765650000     1.8081370000
   20      H       2.7407170000     2.9892590000     1.8082300000
   21      H       1.7107200000     2.9865080000    -1.0971140000
   22      H      -0.6886860000    -4.4202190000     1.2044540000
   23      H      -1.3027030000    -4.4193950000    -0.4824820000
   24      H       0.3693950000    -1.4506280000     1.0148630000
 ----------------------------------------------------------------

   10   -1180.7425003520      6.13e-07  Convergence criterion met
 Total energy in the final basis set =    -1180.7425003520
        RIMP2         total energy =     -1182.7532180716 a.u.

                    Orbital Energies (a.u.)
 --------------------------------------------------------------

 Alpha MOs
 -- Occupied --
-91.9817 -91.9377 -11.2766 -11.2691 -11.2621 -11.2534 -11.2519 -11.2453
-11.2394 -11.2301 -11.2290 -11.2180  -8.9817  -8.9426  -6.6626  -6.6621
 -6.6616  -6.6240  -6.6229  -6.6217  -1.1987  -1.1538  -1.0573  -1.0231
 -1.0078  -0.9591  -0.9106  -0.9023  -0.8107  -0.7633  -0.7354  -0.7007
 -0.6600  -0.6394  -0.6104  -0.5879  -0.5795  -0.5733  -0.5669  -0.5508
 -0.5415  -0.5282  -0.5175  -0.5041  -0.4944  -0.4719  -0.4590  -0.4465
 -0.3535  -0.3437  -0.3163  -0.2733

          Ground-State Mulliken Net Atomic Charges

     Atom                 Charge (a.u.)
  ----------------------------------------
      1 C                    -0.073197
      2 C                    -0.329923
      3 C                    -0.026211
      4 H                     0.177083
      5 C                     0.064852
      6 S                    -0.191654
      7 C                    -0.276920
      8 H                     0.115559
      9 H                     0.106480
     10 H                     0.111161
     11 C                    -0.060553
     12 C                    -0.239832
     13 C                     0.025595
     14 H                     0.181053
     15 C                    -0.231743
     16 S                     0.008590
     17 C                    -0.269832
     18 H                     0.102641
     19 H                     0.108400
     20 H                     0.107118
     21 H                     0.197643
     22 H                     0.108497
     23 H                     0.109899
     24 H                     0.175295
  ----------------------------------------
  Sum of atomic charges =     0.000000

                    Cartesian Multipole Moments
 -----------------------------------------------------------------
    Charge (ESU x 10^10)
                -0.0000
    Dipole Moment (Debye)
         X       3.6678      Y       0.7379      Z       1.3970
       Tot       3.9935
    Quadrupole Moments (Debye-Ang)
        XX     -89.4886     XY       0.5807     YY     -77.2026
        XZ       0.2900     YZ       1.1056     ZZ     -85.5211

 Total job time:  62.12s(wall), 1975.31s(cpu)
        *  Thank you very much for using Q-Chem.  Have a nice day.  *
