 Q-Chem 5.4, Q-Chem, Inc., Pleasanton, CA (2021)
 Q-Chem 5.4.0 for Intel X86 EM64T Linux

User input:
--------------------------------------------------------------
$molecule
0 1
C	0.001092	-3.887800	-0.724460
C	0.001036	-3.701456	0.661131
C	0.000406	-2.345170	1.085203
H	0.001433	-4.545233	1.367305
C	-0.000000	-1.450135	-0.000000
S	0.000367	-2.321334	-1.527517
C	0.000233	-1.934439	2.531478
H	0.000656	-2.819799	3.196254
H	-0.892447	-1.326210	2.787305
H	0.892350	-1.325374	2.787282
C	0.000000	0.000000	0.000000
C	0.540541	0.648986	1.113020
C	1.431046	1.717546	0.820578
H	0.292104	0.350827	2.142881
C	1.590053	1.908061	-0.563588
S	0.621066	0.745901	-1.464748
C	2.112618	2.535384	1.882380
H	1.825779	2.191315	2.894974
H	1.847090	3.610676	1.808137
H	3.218159	2.467925	1.808230
H	2.203332	2.644073	-1.097114
H	-0.896272	-4.420219	-1.059101
H	0.898936	-4.419395	-1.059122
H	-1.080000	-1.450628	0.000014
$end

$rem
JOBTYPE		SP
EXCHANGE	HF
CORRELATION	pRIMP2
BASIS		cc-pvtz
METHOD		rimp2
AUX_BASIS	rimp2-cc-pvtz
SOLVENT_METHOD	PCM
PURECART	11111
SYMMETRY	false
MEM_TOTAL	110000
SCF_CONVERGENCE = 6
THRESH=10
GUI = 2
$end

$solvent
dielectric 4.90
$end
--------------------------------------------------------------

             Standard Nuclear Orientation (Angstroms)
    I     Atom           X                Y                Z
 ----------------------------------------------------------------
    1      C       0.0010920000    -3.8878000000    -0.7244600000
    2      C       0.0010360000    -3.7014560000     0.6611310000
    3      C       0.0004060000    -2.3451700000     1.0852030000
    4      H       0.0014330000    -4.5452330000     1.3673050000
    5      C       0.0000000000    -1.4501350000     0.0000000000
    6      S       0.0003670000    -2.3213340000    -1.5275170000
    7      C       0.0002330000    -1.9344390000     2.5314780000
    8      H       0.0006560000    -2.8197990000     3.1962540000
    9      H      -0.8924470000    -1.3262100000     2.7873050000
   10      H       0.8923500000    -1.3253740000     2.7872820000
   11      C       0.0000000000     0.0000000000     0.0000000000
   12      C       0.5405410000     0.6489860000     1.1130200000
   13      C       1.4310460000     1.7175460000     0.8205780000
   14      H       0.2921040000     0.3508270000     2.1428810000
   15      C       1.5900530000     1.9080610000    -0.5635880000
   16      S       0.6210660000     0.7459010000    -1.4647480000
   17      C       2.1126180000     2.5353840000     1.8823800000
   18      H       1.8257790000     2.1913150000     2.8949740000
   19      H       1.8470900000     3.6106760000     1.8081370000
   20      H       3.2181590000     2.4679250000     1.8082300000
   21      H       2.2033320000     2.6440730000    -1.0971140000
   22      H      -0.8962720000    -4.4202190000    -1.0591010000
   23      H       0.8989360000    -4.4193950000    -1.0591220000
   24      H      -1.0800000000    -1.4506280000     0.0000140000
 ----------------------------------------------------------------

   10   -1180.7127386120      8.09e-07  Convergence criterion met
 Total energy in the final basis set =    -1180.7127386120
        RIMP2         total energy =     -1182.7307533101 a.u.

                    Orbital Energies (a.u.)
 --------------------------------------------------------------

 Alpha MOs
 -- Occupied --
-91.9807 -91.9434 -11.2739 -11.2659 -11.2639 -11.2538 -11.2503 -11.2417
-11.2381 -11.2330 -11.2290 -11.2180  -8.9809  -8.9479  -6.6618  -6.6611
 -6.6606  -6.6293  -6.6283  -6.6270  -1.2006  -1.1527  -1.0574  -1.0318
 -0.9990  -0.9634  -0.9150  -0.9004  -0.8143  -0.7598  -0.7304  -0.7099
 -0.6516  -0.6447  -0.6103  -0.5951  -0.5878  -0.5686  -0.5626  -0.5466
 -0.5462  -0.5344  -0.5238  -0.5029  -0.4818  -0.4726  -0.4628  -0.4400
 -0.3607  -0.3410  -0.3231  -0.2576

          Ground-State Mulliken Net Atomic Charges

     Atom                 Charge (a.u.)
  ----------------------------------------
      1 C                    -0.076092
      2 C                    -0.327957
      3 C                    -0.038903
      4 H                     0.177898
      5 C                     0.089287
      6 S                    -0.184193
      7 C                    -0.295421
      8 H                     0.121327
      9 H                     0.105191
     10 H                     0.106104
     11 C                    -0.064235
     12 C                    -0.256455
     13 C                     0.035135
     14 H                     0.194259
     15 C                    -0.246367
     16 S                     0.016100
     17 C                    -0.270320
     18 H                     0.100575
     19 H                     0.109060
     20 H                     0.107210
     21 H                     0.198011
     22 H                     0.110294
     23 H                     0.112162
     24 H                     0.177329
  ----------------------------------------
  Sum of atomic charges =     0.000000

                    Cartesian Multipole Moments
 -----------------------------------------------------------------
    Charge (ESU x 10^10)
                -0.0000
    Dipole Moment (Debye)
         X       0.4366      Y       0.1400      Z       3.9202
       Tot       3.9469
    Quadrupole Moments (Debye-Ang)
        XX     -87.3422     XY       6.6493     YY     -78.4244
        XZ       0.9308     YZ      -2.6662     ZZ     -85.4482

 Total job time:  62.97s(wall), 2128.60s(cpu)
        *  Thank you very much for using Q-Chem.  Have a nice day.  *
