 Q-Chem 5.4, Q-Chem, Inc., Pleasanton, CA (2021)
 Q-Chem 5.4.0 for Intel X86 EM64T Linux

User input:
--------------------------------------------------------------
$molecule
0 1
C	0.627947	-3.887800	-0.361285
C	-0.572038	-3.701456	0.331462
C	-0.939610	-2.345170	0.542953
H	-1.183405	-4.545233	0.684893
C	0.000000	-1.450135	0.000000
S	1.323052	-2.321334	-0.763441
C	-2.192207	-1.934439	1.265941
H	-2.767709	-2.819799	1.598695
H	-2.860100	-1.326210	0.620770
H	-1.967682	-1.325374	2.166438
C	0.000000	0.000000	0.000000
C	0.729909	0.424971	1.113020
C	1.932179	1.124518	0.820578
H	0.394478	0.229765	2.142881
C	2.146756	1.249161	-0.563588
S	0.838724	0.488500	-1.464748
C	2.852364	1.659924	1.882380
H	2.465145	1.434710	2.894974
H	2.970621	2.761183	1.808137
H	3.868160	1.218416	1.808230
H	2.974781	1.731032	-1.097114
H	0.469073	-4.420219	-1.305744
H	1.366694	-4.419395	0.248940
H	-0.540012	-1.450628	-0.935300
$end

$rem
JOBTYPE		SP
EXCHANGE	HF
CORRELATION	pRIMP2
BASIS		cc-pvtz
METHOD		rimp2
AUX_BASIS	rimp2-cc-pvtz
SOLVENT_METHOD	PCM
PURECART	11111
SYMMETRY	false
MEM_TOTAL	110000
SCF_CONVERGENCE = 6
THRESH=10
GUI = 2
$end

$solvent
dielectric 4.90
$end
--------------------------------------------------------------

             Standard Nuclear Orientation (Angstroms)
    I     Atom           X                Y                Z
 ----------------------------------------------------------------
    1      C       0.6279470000    -3.8878000000    -0.3612850000
    2      C      -0.5720380000    -3.7014560000     0.3314620000
    3      C      -0.9396100000    -2.3451700000     0.5429530000
    4      H      -1.1834050000    -4.5452330000     0.6848930000
    5      C       0.0000000000    -1.4501350000     0.0000000000
    6      S       1.3230520000    -2.3213340000    -0.7634410000
    7      C      -2.1922070000    -1.9344390000     1.2659410000
    8      H      -2.7677090000    -2.8197990000     1.5986950000
    9      H      -2.8601000000    -1.3262100000     0.6207700000
   10      H      -1.9676820000    -1.3253740000     2.1664380000
   11      C       0.0000000000     0.0000000000     0.0000000000
   12      C       0.7299090000     0.4249710000     1.1130200000
   13      C       1.9321790000     1.1245180000     0.8205780000
   14      H       0.3944780000     0.2297650000     2.1428810000
   15      C       2.1467560000     1.2491610000    -0.5635880000
   16      S       0.8387240000     0.4885000000    -1.4647480000
   17      C       2.8523640000     1.6599240000     1.8823800000
   18      H       2.4651450000     1.4347100000     2.8949740000
   19      H       2.9706210000     2.7611830000     1.8081370000
   20      H       3.8681600000     1.2184160000     1.8082300000
   21      H       2.9747810000     1.7310320000    -1.0971140000
   22      H       0.4690730000    -4.4202190000    -1.3057440000
   23      H       1.3666940000    -4.4193950000     0.2489400000
   24      H      -0.5400120000    -1.4506280000    -0.9353000000
 ----------------------------------------------------------------

   10   -1180.6845394178      7.96e-07  Convergence criterion met
 Total energy in the final basis set =    -1180.6845394178
        RIMP2         total energy =     -1182.7052298959 a.u.

                    Orbital Energies (a.u.)
 --------------------------------------------------------------

 Alpha MOs
 -- Occupied --
-91.9816 -91.9314 -11.2909 -11.2593 -11.2555 -11.2523 -11.2484 -11.2456
-11.2338 -11.2302 -11.2288 -11.2109  -8.9825  -8.9366  -6.6633  -6.6625
 -6.6623  -6.6178  -6.6168  -6.6155  -1.2031  -1.1532  -1.0567  -1.0259
 -0.9986  -0.9658  -0.9070  -0.9021  -0.8093  -0.7536  -0.7505  -0.7040
 -0.6484  -0.6271  -0.6153  -0.5889  -0.5804  -0.5724  -0.5644  -0.5503
 -0.5407  -0.5330  -0.5070  -0.5046  -0.4886  -0.4718  -0.4542  -0.4386
 -0.3572  -0.3289  -0.3199  -0.2663

          Ground-State Mulliken Net Atomic Charges

     Atom                 Charge (a.u.)
  ----------------------------------------
      1 C                    -0.089020
      2 C                    -0.329099
      3 C                    -0.073545
      4 H                     0.172622
      5 C                     0.062050
      6 S                    -0.184453
      7 C                    -0.274690
      8 H                     0.111772
      9 H                     0.103465
     10 H                     0.102369
     11 C                    -0.181497
     12 C                    -0.073572
     13 C                    -0.027466
     14 H                     0.195888
     15 C                    -0.160162
     16 S                     0.021440
     17 C                    -0.269464
     18 H                     0.102375
     19 H                     0.107597
     20 H                     0.106768
     21 H                     0.203599
     22 H                     0.104352
     23 H                     0.108000
     24 H                     0.160670
  ----------------------------------------
  Sum of atomic charges =     0.000000

                    Cartesian Multipole Moments
 -----------------------------------------------------------------
    Charge (ESU x 10^10)
                -0.0000
    Dipole Moment (Debye)
         X       0.4800      Y       1.1935      Z       2.1464
       Tot       2.5024
    Quadrupole Moments (Debye-Ang)
        XX     -82.5531     XY       9.7922     YY     -84.7084
        XZ       0.2855     YZ      -0.2000     ZZ     -84.6750

 Total job time:  58.84s(wall), 2151.91s(cpu)
        *  Thank you very much for using Q-Chem.  Have a nice day.  *
