 Q-Chem 5.4, Q-Chem, Inc., Pleasanton, CA (2021)
 Q-Chem 5.4.0 for Intel X86 EM64T Linux

User input:
--------------------------------------------------------------
$molecule
0 1
C	-0.554267	-3.887800	-0.466510
C	0.507121	-3.701456	0.424173
C	0.831575	-2.345170	0.697244
H	1.048337	-4.545233	0.877789
C	0.000000	-1.450135	0.000000
S	-1.169911	-2.321334	-0.982150
C	1.939374	-1.934439	1.627024
H	2.448894	-2.819799	2.054010
H	1.561545	-1.326210	2.475299
H	2.708773	-1.325374	1.108051
C	0.000000	0.000000	0.000000
C	0.419634	0.732990	1.113020
C	1.111057	1.939951	0.820578
H	0.226746	0.396221	2.142881
C	1.234565	2.155183	-0.563588
S	0.482106	0.842416	-1.464748
C	1.640257	2.863718	1.882380
H	1.417524	2.475067	2.894974
H	1.192042	3.876565	1.808137
H	2.740717	2.989259	1.808230
H	1.710720	2.986508	-1.097114
H	-1.387431	-4.420219	0.005807
H	-0.233510	-4.419395	-1.369415
H	-0.694200	-1.450628	0.827337
$end

$rem
JOBTYPE		SP
EXCHANGE	HF
CORRELATION	pRIMP2
BASIS		cc-pvtz
METHOD		rimp2
AUX_BASIS	rimp2-cc-pvtz
SOLVENT_METHOD	PCM
PURECART	11111
SYMMETRY	false
MEM_TOTAL	110000
SCF_CONVERGENCE = 6
THRESH=10
GUI = 2
$end

$solvent
dielectric 4.90
$end
--------------------------------------------------------------

             Standard Nuclear Orientation (Angstroms)
    I     Atom           X                Y                Z
 ----------------------------------------------------------------
    1      C      -0.5542670000    -3.8878000000    -0.4665100000
    2      C       0.5071210000    -3.7014560000     0.4241730000
    3      C       0.8315750000    -2.3451700000     0.6972440000
    4      H       1.0483370000    -4.5452330000     0.8777890000
    5      C       0.0000000000    -1.4501350000     0.0000000000
    6      S      -1.1699110000    -2.3213340000    -0.9821500000
    7      C       1.9393740000    -1.9344390000     1.6270240000
    8      H       2.4488940000    -2.8197990000     2.0540100000
    9      H       1.5615450000    -1.3262100000     2.4752990000
   10      H       2.7087730000    -1.3253740000     1.1080510000
   11      C       0.0000000000     0.0000000000     0.0000000000
   12      C       0.4196340000     0.7329900000     1.1130200000
   13      C       1.1110570000     1.9399510000     0.8205780000
   14      H       0.2267460000     0.3962210000     2.1428810000
   15      C       1.2345650000     2.1551830000    -0.5635880000
   16      S       0.4821060000     0.8424160000    -1.4647480000
   17      C       1.6402570000     2.8637180000     1.8823800000
   18      H       1.4175240000     2.4750670000     2.8949740000
   19      H       1.1920420000     3.8765650000     1.8081370000
   20      H       2.7407170000     2.9892590000     1.8082300000
   21      H       1.7107200000     2.9865080000    -1.0971140000
   22      H      -1.3874310000    -4.4202190000     0.0058070000
   23      H      -0.2335100000    -4.4193950000    -1.3694150000
   24      H      -0.6942000000    -1.4506280000     0.8273370000
 ----------------------------------------------------------------

   10   -1180.7445910167      6.06e-07  Convergence criterion met
 Total energy in the final basis set =    -1180.7445910167
        RIMP2         total energy =     -1182.7556580919 a.u.

                    Orbital Energies (a.u.)
 --------------------------------------------------------------

 Alpha MOs
 -- Occupied --
-91.9796 -91.9408 -11.2760 -11.2684 -11.2627 -11.2558 -11.2519 -11.2448
-11.2409 -11.2309 -11.2301 -11.2191  -8.9797  -8.9454  -6.6606  -6.6600
 -6.6595  -6.6269  -6.6258  -6.6246  -1.1988  -1.1539  -1.0574  -1.0270
 -1.0031  -0.9622  -0.9121  -0.9015  -0.8135  -0.7595  -0.7330  -0.7075
 -0.6560  -0.6424  -0.6116  -0.5909  -0.5858  -0.5714  -0.5599  -0.5542
 -0.5406  -0.5304  -0.5197  -0.5075  -0.4850  -0.4730  -0.4612  -0.4463
 -0.3548  -0.3415  -0.3199  -0.2730

          Ground-State Mulliken Net Atomic Charges

     Atom                 Charge (a.u.)
  ----------------------------------------
      1 C                    -0.072356
      2 C                    -0.323113
      3 C                    -0.055397
      4 H                     0.178383
      5 C                     0.092980
      6 S                    -0.182012
      7 C                    -0.278147
      8 H                     0.118899
      9 H                     0.096807
     10 H                     0.114884
     11 C                    -0.055997
     12 C                    -0.281822
     13 C                     0.040565
     14 H                     0.192338
     15 C                    -0.235190
     16 S                     0.008615
     17 C                    -0.270898
     18 H                     0.101797
     19 H                     0.109473
     20 H                     0.107862
     21 H                     0.198044
     22 H                     0.108931
     23 H                     0.109940
     24 H                     0.175413
  ----------------------------------------
  Sum of atomic charges =     0.000000

                    Cartesian Multipole Moments
 -----------------------------------------------------------------
    Charge (ESU x 10^10)
                -0.0000
    Dipole Moment (Debye)
         X       2.3780      Y       0.5233      Z       3.8191
       Tot       4.5292
    Quadrupole Moments (Debye-Ang)
        XX     -88.7537     XY       2.9031     YY     -76.4000
        XZ       0.6306     YZ      -2.4245     ZZ     -86.2964

 Total job time:  57.20s(wall), 1940.35s(cpu)
        *  Thank you very much for using Q-Chem.  Have a nice day.  *
