 Q-Chem 5.4, Q-Chem, Inc., Pleasanton, CA (2021)
 Q-Chem 5.4.0 for Intel X86 EM64T Linux

User input:
--------------------------------------------------------------
$molecule
0 1
C	-0.555670	-3.887800	0.464838
C	0.505790	-3.701456	-0.425760
C	0.831053	-2.345170	-0.697866
H	1.046496	-4.545233	-0.879984
C	0.000000	-1.450135	0.000000
S	-1.170382	-2.321334	0.981588
C	1.939074	-1.934439	-1.627381
H	2.448051	-2.819799	-2.055015
H	2.708853	-1.326210	-1.107991
H	1.561590	-1.325374	-2.475210
C	0.000000	0.000000	0.000000
C	0.285976	0.794723	1.113020
C	0.757308	2.103412	0.820578
H	0.154498	0.429575	2.142881
C	0.841565	2.336821	-0.563588
S	0.328498	0.913334	-1.464748
C	1.118059	3.105040	1.882380
H	0.966197	2.683616	2.894974
H	0.500773	4.024668	1.808137
H	2.180000	3.419766	1.808230
H	1.166129	3.238200	-1.097114
H	-0.235206	-4.420219	1.367361
H	-1.389159	-4.419395	-0.007834
H	0.694221	-1.450628	0.827319
$end

$rem
JOBTYPE		SP
EXCHANGE	HF
CORRELATION	pRIMP2
BASIS		cc-pvtz
METHOD		rimp2
AUX_BASIS	rimp2-cc-pvtz
SOLVENT_METHOD	PCM
PURECART	11111
SYMMETRY	false
MEM_TOTAL	110000
SCF_CONVERGENCE = 6
THRESH=10
GUI = 2
$end

$solvent
dielectric 4.90
$end
--------------------------------------------------------------

             Standard Nuclear Orientation (Angstroms)
    I     Atom           X                Y                Z
 ----------------------------------------------------------------
    1      C      -0.5556700000    -3.8878000000     0.4648380000
    2      C       0.5057900000    -3.7014560000    -0.4257600000
    3      C       0.8310530000    -2.3451700000    -0.6978660000
    4      H       1.0464960000    -4.5452330000    -0.8799840000
    5      C       0.0000000000    -1.4501350000     0.0000000000
    6      S      -1.1703820000    -2.3213340000     0.9815880000
    7      C       1.9390740000    -1.9344390000    -1.6273810000
    8      H       2.4480510000    -2.8197990000    -2.0550150000
    9      H       2.7088530000    -1.3262100000    -1.1079910000
   10      H       1.5615900000    -1.3253740000    -2.4752100000
   11      C       0.0000000000     0.0000000000     0.0000000000
   12      C       0.2859760000     0.7947230000     1.1130200000
   13      C       0.7573080000     2.1034120000     0.8205780000
   14      H       0.1544980000     0.4295750000     2.1428810000
   15      C       0.8415650000     2.3368210000    -0.5635880000
   16      S       0.3284980000     0.9133340000    -1.4647480000
   17      C       1.1180590000     3.1050400000     1.8823800000
   18      H       0.9661970000     2.6836160000     2.8949740000
   19      H       0.5007730000     4.0246680000     1.8081370000
   20      H       2.1800000000     3.4197660000     1.8082300000
   21      H       1.1661290000     3.2382000000    -1.0971140000
   22      H      -0.2352060000    -4.4202190000     1.3673610000
   23      H      -1.3891590000    -4.4193950000    -0.0078340000
   24      H       0.6942210000    -1.4506280000     0.8273190000
 ----------------------------------------------------------------

   10   -1180.7508293748      5.26e-07  Convergence criterion met
 Total energy in the final basis set =    -1180.7508293748
        RIMP2         total energy =     -1182.7591822324 a.u.

                    Orbital Energies (a.u.)
 --------------------------------------------------------------

 Alpha MOs
 -- Occupied --
-91.9826 -91.9418 -11.2837 -11.2635 -11.2613 -11.2566 -11.2509 -11.2417
-11.2374 -11.2301 -11.2290 -11.2198  -8.9824  -8.9465  -6.6633  -6.6628
 -6.6622  -6.6279  -6.6269  -6.6256  -1.1994  -1.1530  -1.0580  -1.0248
 -1.0077  -0.9574  -0.9124  -0.9020  -0.8121  -0.7669  -0.7282  -0.7003
 -0.6617  -0.6421  -0.6105  -0.5859  -0.5802  -0.5736  -0.5679  -0.5521
 -0.5418  -0.5307  -0.5149  -0.5069  -0.4936  -0.4773  -0.4575  -0.4486
 -0.3555  -0.3432  -0.3194  -0.2692

          Ground-State Mulliken Net Atomic Charges

     Atom                 Charge (a.u.)
  ----------------------------------------
      1 C                    -0.072839
      2 C                    -0.325811
      3 C                    -0.025221
      4 H                     0.178131
      5 C                     0.056276
      6 S                    -0.180459
      7 C                    -0.282190
      8 H                     0.114233
      9 H                     0.111120
     10 H                     0.110254
     11 C                    -0.040240
     12 C                    -0.260849
     13 C                     0.027605
     14 H                     0.182721
     15 C                    -0.251122
     16 S                     0.009609
     17 C                    -0.270517
     18 H                     0.102671
     19 H                     0.108482
     20 H                     0.107377
     21 H                     0.196791
     22 H                     0.109742
     23 H                     0.112163
     24 H                     0.182072
  ----------------------------------------
  Sum of atomic charges =     0.000000

                    Cartesian Multipole Moments
 -----------------------------------------------------------------
    Charge (ESU x 10^10)
                -0.0000
    Dipole Moment (Debye)
         X       3.0125      Y       0.2563      Z       0.4466
       Tot       3.0562
    Quadrupole Moments (Debye-Ang)
        XX     -90.8623     XY      -0.4736     YY     -75.4573
        XZ       0.2711     YZ       2.4444     ZZ     -85.4584

 Total job time:  54.28s(wall), 1931.36s(cpu)
        *  Thank you very much for using Q-Chem.  Have a nice day.  *
