 Q-Chem 5.4, Q-Chem, Inc., Pleasanton, CA (2021)
 Q-Chem 5.4.0 for Intel X86 EM64T Linux

User input:
--------------------------------------------------------------
$molecule
0 1
C	0.681143	-3.887800	-0.246754
C	-0.620906	-3.701456	0.227093
C	-1.019618	-2.345170	0.371543
H	-1.284357	-4.545233	0.468992
C	-0.000000	-1.450135	-0.000000
S	1.435522	-2.321334	-0.522097
C	-2.378731	-1.934439	0.866035
H	-3.003272	-2.819799	1.093799
H	-2.924444	-1.326210	0.114688
H	-2.313987	-1.325374	1.791841
C	0.000000	0.000000	0.000000
C	0.070542	0.841660	1.113020
C	0.187101	2.227746	0.820578
H	0.038051	0.454925	2.142881
C	0.208076	2.475009	-0.563588
S	0.080917	0.967235	-1.464748
C	0.276318	3.288613	1.882380
H	0.238704	2.842244	2.894974
H	-0.557951	4.017140	1.808137
H	1.220618	3.867466	1.808230
H	0.288286	3.429678	-1.097114
H	0.688686	-4.420219	-1.204454
H	1.302703	-4.419395	0.482482
H	-0.369395	-1.450628	-1.014863
$end

$rem
JOBTYPE		SP
EXCHANGE	HF
CORRELATION	pRIMP2
BASIS		cc-pvtz
METHOD		rimp2
AUX_BASIS	rimp2-cc-pvtz
SOLVENT_METHOD	PCM
PURECART	11111
SYMMETRY	false
MEM_TOTAL	110000
SCF_CONVERGENCE = 6
THRESH=10
GUI = 2
$end

$solvent
dielectric 4.90
$end
--------------------------------------------------------------

             Standard Nuclear Orientation (Angstroms)
    I     Atom           X                Y                Z
 ----------------------------------------------------------------
    1      C       0.6811430000    -3.8878000000    -0.2467540000
    2      C      -0.6209060000    -3.7014560000     0.2270930000
    3      C      -1.0196180000    -2.3451700000     0.3715430000
    4      H      -1.2843570000    -4.5452330000     0.4689920000
    5      C       0.0000000000    -1.4501350000     0.0000000000
    6      S       1.4355220000    -2.3213340000    -0.5220970000
    7      C      -2.3787310000    -1.9344390000     0.8660350000
    8      H      -3.0032720000    -2.8197990000     1.0937990000
    9      H      -2.9244440000    -1.3262100000     0.1146880000
   10      H      -2.3139870000    -1.3253740000     1.7918410000
   11      C       0.0000000000     0.0000000000     0.0000000000
   12      C       0.0705420000     0.8416600000     1.1130200000
   13      C       0.1871010000     2.2277460000     0.8205780000
   14      H       0.0380510000     0.4549250000     2.1428810000
   15      C       0.2080760000     2.4750090000    -0.5635880000
   16      S       0.0809170000     0.9672350000    -1.4647480000
   17      C       0.2763180000     3.2886130000     1.8823800000
   18      H       0.2387040000     2.8422440000     2.8949740000
   19      H      -0.5579510000     4.0171400000     1.8081370000
   20      H       1.2206180000     3.8674660000     1.8082300000
   21      H       0.2882860000     3.4296780000    -1.0971140000
   22      H       0.6886860000    -4.4202190000    -1.2044540000
   23      H       1.3027030000    -4.4193950000     0.4824820000
   24      H      -0.3693950000    -1.4506280000    -1.0148630000
 ----------------------------------------------------------------

   10   -1180.7609248316      5.09e-07  Convergence criterion met
 Total energy in the final basis set =    -1180.7609248316
        RIMP2         total energy =     -1182.7646221510 a.u.

                    Orbital Energies (a.u.)
 --------------------------------------------------------------

 Alpha MOs
 -- Occupied --
-91.9863 -91.9418 -11.2799 -11.2650 -11.2629 -11.2560 -11.2508 -11.2414
-11.2375 -11.2315 -11.2289 -11.2192  -8.9859  -8.9465  -6.6668  -6.6664
 -6.6657  -6.6278  -6.6268  -6.6255  -1.1973  -1.1537  -1.0574  -1.0267
 -1.0020  -0.9630  -0.9127  -0.9006  -0.8133  -0.7598  -0.7424  -0.7030
 -0.6536  -0.6346  -0.6112  -0.5879  -0.5779  -0.5707  -0.5679  -0.5539
 -0.5427  -0.5297  -0.5127  -0.5053  -0.4920  -0.4824  -0.4631  -0.4497
 -0.3565  -0.3409  -0.3152  -0.2790

          Ground-State Mulliken Net Atomic Charges

     Atom                 Charge (a.u.)
  ----------------------------------------
      1 C                    -0.075976
      2 C                    -0.330408
      3 C                    -0.019811
      4 H                     0.177497
      5 C                     0.107750
      6 S                    -0.177670
      7 C                    -0.267205
      8 H                     0.113666
      9 H                     0.103813
     10 H                     0.103786
     11 C                    -0.120385
     12 C                    -0.217551
     13 C                     0.014371
     14 H                     0.187446
     15 C                    -0.242170
     16 S                     0.014344
     17 C                    -0.272634
     18 H                     0.102618
     19 H                     0.107482
     20 H                     0.108647
     21 H                     0.198905
     22 H                     0.110552
     23 H                     0.113715
     24 H                     0.159218
  ----------------------------------------
  Sum of atomic charges =     0.000000

                    Cartesian Multipole Moments
 -----------------------------------------------------------------
    Charge (ESU x 10^10)
                -0.0000
    Dipole Moment (Debye)
         X      -2.3868      Y       0.6548      Z       1.5884
       Tot       2.9408
    Quadrupole Moments (Debye-Ang)
        XX     -91.8809     XY       4.9023     YY     -73.6655
        XZ      -0.1746     YZ       1.0974     ZZ     -85.7452

 Total job time:  56.62s(wall), 1854.33s(cpu)
        *  Thank you very much for using Q-Chem.  Have a nice day.  *
