 Q-Chem 5.4, Q-Chem, Inc., Pleasanton, CA (2021)
 Q-Chem 5.4.0 for Intel X86 EM64T Linux

User input:
--------------------------------------------------------------
$molecule
0 1
C	-0.126876	-3.887800	0.713264
C	0.113784	-3.701456	-0.651267
C	0.188043	-2.345170	-1.068787
H	0.236019	-4.545233	-1.346782
C	-0.000000	-1.450135	-0.000000
S	-0.265612	-2.321334	1.504247
C	0.439357	-1.934439	-2.493059
H	0.554378	-2.819799	-3.147809
H	1.362899	-1.326210	-2.589987
H	-0.394786	-1.325374	-2.899892
C	0.000000	0.000000	0.000000
C	0.143630	0.832309	1.113020
C	0.380550	2.202961	0.820578
H	0.077556	0.449877	2.142881
C	0.422995	2.447456	-0.563588
S	0.164909	0.956502	-1.464748
C	0.561888	3.252016	1.882380
H	0.485513	2.810624	2.894974
H	-0.205711	4.050482	1.808137
H	1.553045	3.746365	1.808230
H	0.586105	3.391501	-1.097114
H	0.698744	-4.420219	1.198647
H	-1.069193	-4.419395	0.886933
H	1.063595	-1.450628	0.187526
$end

$rem
JOBTYPE		SP
EXCHANGE	HF
CORRELATION	pRIMP2
BASIS		cc-pvtz
METHOD		rimp2
AUX_BASIS	rimp2-cc-pvtz
SOLVENT_METHOD	PCM
PURECART	11111
SYMMETRY	false
MEM_TOTAL	110000
SCF_CONVERGENCE = 6
THRESH=10
GUI = 2
$end

$solvent
dielectric 4.90
$end
--------------------------------------------------------------

             Standard Nuclear Orientation (Angstroms)
    I     Atom           X                Y                Z
 ----------------------------------------------------------------
    1      C      -0.1268760000    -3.8878000000     0.7132640000
    2      C       0.1137840000    -3.7014560000    -0.6512670000
    3      C       0.1880430000    -2.3451700000    -1.0687870000
    4      H       0.2360190000    -4.5452330000    -1.3467820000
    5      C       0.0000000000    -1.4501350000     0.0000000000
    6      S      -0.2656120000    -2.3213340000     1.5042470000
    7      C       0.4393570000    -1.9344390000    -2.4930590000
    8      H       0.5543780000    -2.8197990000    -3.1478090000
    9      H       1.3628990000    -1.3262100000    -2.5899870000
   10      H      -0.3947860000    -1.3253740000    -2.8998920000
   11      C       0.0000000000     0.0000000000     0.0000000000
   12      C       0.1436300000     0.8323090000     1.1130200000
   13      C       0.3805500000     2.2029610000     0.8205780000
   14      H       0.0775560000     0.4498770000     2.1428810000
   15      C       0.4229950000     2.4474560000    -0.5635880000
   16      S       0.1649090000     0.9565020000    -1.4647480000
   17      C       0.5618880000     3.2520160000     1.8823800000
   18      H       0.4855130000     2.8106240000     2.8949740000
   19      H      -0.2057110000     4.0504820000     1.8081370000
   20      H       1.5530450000     3.7463650000     1.8082300000
   21      H       0.5861050000     3.3915010000    -1.0971140000
   22      H       0.6987440000    -4.4202190000     1.1986470000
   23      H      -1.0691930000    -4.4193950000     0.8869330000
   24      H       1.0635950000    -1.4506280000     0.1875260000
 ----------------------------------------------------------------

   10   -1180.7582867023      4.96e-07  Convergence criterion met
 Total energy in the final basis set =    -1180.7582867023
        RIMP2         total energy =     -1182.7640690628 a.u.

                    Orbital Energies (a.u.)
 --------------------------------------------------------------

 Alpha MOs
 -- Occupied --
-91.9819 -91.9472 -11.2911 -11.2655 -11.2630 -11.2530 -11.2500 -11.2448
-11.2325 -11.2292 -11.2276 -11.2229  -8.9819  -8.9518  -6.6628  -6.6622
 -6.6616  -6.6331  -6.6321  -6.6308  -1.2022  -1.1523  -1.0600  -1.0282
 -1.0071  -0.9558  -0.9163  -0.9018  -0.8142  -0.7715  -0.7171  -0.7036
 -0.6617  -0.6481  -0.6113  -0.5901  -0.5820  -0.5721  -0.5682  -0.5541
 -0.5420  -0.5333  -0.5161  -0.5091  -0.4910  -0.4845  -0.4574  -0.4464
 -0.3591  -0.3415  -0.3266  -0.2650

          Ground-State Mulliken Net Atomic Charges

     Atom                 Charge (a.u.)
  ----------------------------------------
      1 C                    -0.073740
      2 C                    -0.316859
      3 C                    -0.045447
      4 H                     0.179913
      5 C                     0.113819
      6 S                    -0.183590
      7 C                    -0.311000
      8 H                     0.121205
      9 H                     0.113669
     10 H                     0.112757
     11 C                    -0.004997
     12 C                    -0.314775
     13 C                     0.043547
     14 H                     0.175956
     15 C                    -0.282501
     16 S                     0.009104
     17 C                    -0.271494
     18 H                     0.102708
     19 H                     0.108441
     20 H                     0.108216
     21 H                     0.196755
     22 H                     0.111333
     23 H                     0.113790
     24 H                     0.193190
  ----------------------------------------
  Sum of atomic charges =     0.000000

                    Cartesian Multipole Moments
 -----------------------------------------------------------------
    Charge (ESU x 10^10)
                 0.0000
    Dipole Moment (Debye)
         X       1.5311      Y      -0.5102      Z      -0.9096
       Tot       1.8526
    Quadrupole Moments (Debye-Ang)
        XX     -91.5587     XY      -0.4613     YY     -73.5349
        XZ       0.3917     YZ       4.5391     ZZ     -85.4161

 Total job time:  65.20s(wall), 2571.67s(cpu)
        *  Thank you very much for using Q-Chem.  Have a nice day.  *
