 Q-Chem 5.4, Q-Chem, Inc., Pleasanton, CA (2021)
 Q-Chem 5.4.0 for Intel X86 EM64T Linux

User input:
--------------------------------------------------------------
$molecule
0 1
C	0.554267	-3.887800	0.466510
C	-0.507121	-3.701456	-0.424173
C	-0.831575	-2.345170	-0.697244
H	-1.048337	-4.545233	-0.877789
C	0.000000	-1.450135	0.000000
S	1.169911	-2.321334	0.982150
C	-1.939374	-1.934439	-1.627024
H	-2.448894	-2.819799	-2.054010
H	-1.561545	-1.326210	-2.475299
H	-2.708773	-1.325374	-1.108051
C	0.000000	0.000000	0.000000
C	0.354153	0.766774	1.113020
C	0.937751	2.029404	0.820578
H	0.191350	0.414475	2.142881
C	1.042030	2.254581	-0.563588
S	0.406851	0.881228	-1.464748
C	1.384426	2.995779	1.882380
H	1.196413	2.589194	2.894974
H	0.849641	3.965707	1.808137
H	2.469756	3.216753	1.808230
H	1.443919	3.124243	-1.097114
H	1.387431	-4.420219	-0.005807
H	0.233510	-4.419395	1.369415
H	0.694200	-1.450628	-0.827337
$end

$rem
JOBTYPE		SP
EXCHANGE	HF
CORRELATION	pRIMP2
BASIS		cc-pvtz
METHOD		rimp2
AUX_BASIS	rimp2-cc-pvtz
SOLVENT_METHOD	PCM
PURECART	11111
SYMMETRY	false
MEM_TOTAL	110000
SCF_CONVERGENCE = 6
THRESH=10
GUI = 2
$end

$solvent
dielectric 4.90
$end
--------------------------------------------------------------

             Standard Nuclear Orientation (Angstroms)
    I     Atom           X                Y                Z
 ----------------------------------------------------------------
    1      C       0.5542670000    -3.8878000000     0.4665100000
    2      C      -0.5071210000    -3.7014560000    -0.4241730000
    3      C      -0.8315750000    -2.3451700000    -0.6972440000
    4      H      -1.0483370000    -4.5452330000    -0.8777890000
    5      C       0.0000000000    -1.4501350000     0.0000000000
    6      S       1.1699110000    -2.3213340000     0.9821500000
    7      C      -1.9393740000    -1.9344390000    -1.6270240000
    8      H      -2.4488940000    -2.8197990000    -2.0540100000
    9      H      -1.5615450000    -1.3262100000    -2.4752990000
   10      H      -2.7087730000    -1.3253740000    -1.1080510000
   11      C       0.0000000000     0.0000000000     0.0000000000
   12      C       0.3541530000     0.7667740000     1.1130200000
   13      C       0.9377510000     2.0294040000     0.8205780000
   14      H       0.1913500000     0.4144750000     2.1428810000
   15      C       1.0420300000     2.2545810000    -0.5635880000
   16      S       0.4068510000     0.8812280000    -1.4647480000
   17      C       1.3844260000     2.9957790000     1.8823800000
   18      H       1.1964130000     2.5891940000     2.8949740000
   19      H       0.8496410000     3.9657070000     1.8081370000
   20      H       2.4697560000     3.2167530000     1.8082300000
   21      H       1.4439190000     3.1242430000    -1.0971140000
   22      H       1.3874310000    -4.4202190000    -0.0058070000
   23      H       0.2335100000    -4.4193950000     1.3694150000
   24      H       0.6942000000    -1.4506280000    -0.8273370000
 ----------------------------------------------------------------

   10   -1180.7508060935      5.11e-07  Convergence criterion met
 Total energy in the final basis set =    -1180.7508060935
        RIMP2         total energy =     -1182.7568990665 a.u.

                    Orbital Energies (a.u.)
 --------------------------------------------------------------

 Alpha MOs
 -- Occupied --
-91.9824 -91.9436 -11.2808 -11.2646 -11.2608 -11.2563 -11.2509 -11.2412
-11.2386 -11.2320 -11.2285 -11.2191  -8.9826  -8.9479  -6.6636  -6.6630
 -6.6623  -6.6293  -6.6283  -6.6270  -1.1997  -1.1535  -1.0585  -1.0260
 -1.0043  -0.9599  -0.9144  -0.9007  -0.8118  -0.7680  -0.7299  -0.7032
 -0.6544  -0.6384  -0.6114  -0.5903  -0.5765  -0.5747  -0.5688  -0.5526
 -0.5417  -0.5327  -0.5129  -0.5071  -0.4874  -0.4820  -0.4619  -0.4471
 -0.3556  -0.3433  -0.3217  -0.2711

          Ground-State Mulliken Net Atomic Charges

     Atom                 Charge (a.u.)
  ----------------------------------------
      1 C                    -0.075218
      2 C                    -0.322454
      3 C                    -0.047516
      4 H                     0.176310
      5 C                     0.098369
      6 S                    -0.178260
      7 C                    -0.275137
      8 H                     0.115009
      9 H                     0.101128
     10 H                     0.110255
     11 C                    -0.038296
     12 C                    -0.308731
     13 C                     0.055936
     14 H                     0.186426
     15 C                    -0.249084
     16 S                     0.007270
     17 C                    -0.270486
     18 H                     0.103212
     19 H                     0.108151
     20 H                     0.108618
     21 H                     0.197609
     22 H                     0.110609
     23 H                     0.109448
     24 H                     0.176831
  ----------------------------------------
  Sum of atomic charges =     0.000000

                    Cartesian Multipole Moments
 -----------------------------------------------------------------
    Charge (ESU x 10^10)
                -0.0000
    Dipole Moment (Debye)
         X      -0.5586      Y       0.3671      Z      -0.5582
       Tot       0.8709
    Quadrupole Moments (Debye-Ang)
        XX     -89.4521     XY       5.9686     YY     -75.5651
        XZ       0.5808     YZ       4.5679     ZZ     -86.1305

 Total job time:  54.34s(wall), 1880.34s(cpu)
        *  Thank you very much for using Q-Chem.  Have a nice day.  *
