 Q-Chem 5.4, Q-Chem, Inc., Pleasanton, CA (2021)
 Q-Chem 5.4.0 for Intel X86 EM64T Linux

User input:
--------------------------------------------------------------
$molecule
0 1
C	0.124726	-3.887800	0.713644
C	-0.115824	-3.701456	-0.650907
C	-0.188844	-2.345170	-1.068646
H	-0.238841	-4.545233	-1.346284
C	0.000000	-1.450135	0.000000
S	0.264890	-2.321334	1.504375
C	-0.439816	-1.934439	-2.492978
H	-0.555669	-2.819799	-3.147582
H	0.394879	-1.326210	-2.899931
H	-1.362799	-1.325374	-2.589982
C	0.000000	0.000000	0.000000
C	0.419634	0.732990	1.113020
C	1.111057	1.939951	0.820578
H	0.226746	0.396221	2.142881
C	1.234565	2.155183	-0.563588
S	0.482106	0.842416	-1.464748
C	1.640257	2.863718	1.882380
H	1.417524	2.475067	2.894974
H	1.192042	3.876565	1.808137
H	2.740717	2.989259	1.808230
H	1.710720	2.986508	-1.097114
H	1.066566	-4.420219	0.887375
H	-0.701364	-4.419395	1.199130
H	1.063590	-1.450628	-0.187554
$end

$rem
JOBTYPE		SP
EXCHANGE	HF
CORRELATION	pRIMP2
BASIS		cc-pvtz
METHOD		rimp2
AUX_BASIS	rimp2-cc-pvtz
SOLVENT_METHOD	PCM
PURECART	11111
SYMMETRY	false
MEM_TOTAL	110000
SCF_CONVERGENCE = 6
THRESH=10
GUI = 2
$end

$solvent
dielectric 4.90
$end
--------------------------------------------------------------

             Standard Nuclear Orientation (Angstroms)
    I     Atom           X                Y                Z
 ----------------------------------------------------------------
    1      C       0.1247260000    -3.8878000000     0.7136440000
    2      C      -0.1158240000    -3.7014560000    -0.6509070000
    3      C      -0.1888440000    -2.3451700000    -1.0686460000
    4      H      -0.2388410000    -4.5452330000    -1.3462840000
    5      C       0.0000000000    -1.4501350000     0.0000000000
    6      S       0.2648900000    -2.3213340000     1.5043750000
    7      C      -0.4398160000    -1.9344390000    -2.4929780000
    8      H      -0.5556690000    -2.8197990000    -3.1475820000
    9      H       0.3948790000    -1.3262100000    -2.8999310000
   10      H      -1.3627990000    -1.3253740000    -2.5899820000
   11      C       0.0000000000     0.0000000000     0.0000000000
   12      C       0.4196340000     0.7329900000     1.1130200000
   13      C       1.1110570000     1.9399510000     0.8205780000
   14      H       0.2267460000     0.3962210000     2.1428810000
   15      C       1.2345650000     2.1551830000    -0.5635880000
   16      S       0.4821060000     0.8424160000    -1.4647480000
   17      C       1.6402570000     2.8637180000     1.8823800000
   18      H       1.4175240000     2.4750670000     2.8949740000
   19      H       1.1920420000     3.8765650000     1.8081370000
   20      H       2.7407170000     2.9892590000     1.8082300000
   21      H       1.7107200000     2.9865080000    -1.0971140000
   22      H       1.0665660000    -4.4202190000     0.8873750000
   23      H      -0.7013640000    -4.4193950000     1.1991300000
   24      H       1.0635900000    -1.4506280000    -0.1875540000
 ----------------------------------------------------------------

   10   -1180.7452794752      4.92e-07  Convergence criterion met
 Total energy in the final basis set =    -1180.7452794752
        RIMP2         total energy =     -1182.7547693285 a.u.

                    Orbital Energies (a.u.)
 --------------------------------------------------------------

 Alpha MOs
 -- Occupied --
-91.9796 -91.9460 -11.2863 -11.2631 -11.2619 -11.2589 -11.2508 -11.2435
-11.2335 -11.2317 -11.2281 -11.2221  -8.9801  -8.9505  -6.6610  -6.6604
 -6.6597  -6.6318  -6.6308  -6.6296  -1.2034  -1.1529  -1.0602  -1.0279
 -1.0062  -0.9564  -0.9158  -0.9023  -0.8120  -0.7721  -0.7186  -0.7037
 -0.6592  -0.6477  -0.6122  -0.5909  -0.5817  -0.5725  -0.5693  -0.5530
 -0.5421  -0.5341  -0.5156  -0.5114  -0.4895  -0.4789  -0.4576  -0.4438
 -0.3587  -0.3420  -0.3276  -0.2646

          Ground-State Mulliken Net Atomic Charges

     Atom                 Charge (a.u.)
  ----------------------------------------
      1 C                    -0.074590
      2 C                    -0.314911
      3 C                    -0.057669
      4 H                     0.178490
      5 C                     0.114698
      6 S                    -0.190161
      7 C                    -0.306085
      8 H                     0.119280
      9 H                     0.108932
     10 H                     0.119098
     11 C                     0.013655
     12 C                    -0.336661
     13 C                     0.058203
     14 H                     0.177287
     15 C                    -0.275133
     16 S                     0.005528
     17 C                    -0.269372
     18 H                     0.103136
     19 H                     0.108665
     20 H                     0.108427
     21 H                     0.196727
     22 H                     0.111748
     23 H                     0.112250
     24 H                     0.188457
  ----------------------------------------
  Sum of atomic charges =     0.000000

                    Cartesian Multipole Moments
 -----------------------------------------------------------------
    Charge (ESU x 10^10)
                -0.0000
    Dipole Moment (Debye)
         X       1.1947      Y      -0.3394      Z      -1.0800
       Tot       1.6459
    Quadrupole Moments (Debye-Ang)
        XX     -89.1140     XY       3.5842     YY     -75.6490
        XZ       0.9610     YZ       4.9340     ZZ     -85.6545

 Total job time:  54.32s(wall), 1900.54s(cpu)
        *  Thank you very much for using Q-Chem.  Have a nice day.  *
