 Q-Chem 5.4, Q-Chem, Inc., Pleasanton, CA (2021)
 Q-Chem 5.4.0 for Intel X86 EM64T Linux

User input:
--------------------------------------------------------------
$molecule
0 1
C	0.361285	-3.887800	0.627947
C	-0.331462	-3.701456	-0.572038
C	-0.542953	-2.345170	-0.939610
H	-0.684893	-4.545233	-1.183405
C	0.000000	-1.450135	0.000000
S	0.763441	-2.321334	1.323052
C	-1.265941	-1.934439	-2.192207
H	-1.598695	-2.819799	-2.767709
H	-0.620770	-1.326210	-2.860100
H	-2.166438	-1.325374	-1.967682
C	0.000000	0.000000	0.000000
C	0.729909	0.424971	1.113020
C	1.932179	1.124518	0.820578
H	0.394478	0.229765	2.142881
C	2.146756	1.249161	-0.563588
S	0.838724	0.488500	-1.464748
C	2.852364	1.659924	1.882380
H	2.465145	1.434710	2.894974
H	2.970621	2.761183	1.808137
H	3.868160	1.218416	1.808230
H	2.974781	1.731032	-1.097114
H	1.305744	-4.420219	0.469073
H	-0.248940	-4.419395	1.366694
H	0.935300	-1.450628	-0.540012
$end

$rem
JOBTYPE		SP
EXCHANGE	HF
CORRELATION	pRIMP2
BASIS		cc-pvtz
METHOD		rimp2
AUX_BASIS	rimp2-cc-pvtz
SOLVENT_METHOD	PCM
PURECART	11111
SYMMETRY	false
MEM_TOTAL	110000
SCF_CONVERGENCE = 6
THRESH=10
GUI = 2
$end

$solvent
dielectric 4.90
$end
--------------------------------------------------------------

             Standard Nuclear Orientation (Angstroms)
    I     Atom           X                Y                Z
 ----------------------------------------------------------------
    1      C       0.3612850000    -3.8878000000     0.6279470000
    2      C      -0.3314620000    -3.7014560000    -0.5720380000
    3      C      -0.5429530000    -2.3451700000    -0.9396100000
    4      H      -0.6848930000    -4.5452330000    -1.1834050000
    5      C       0.0000000000    -1.4501350000     0.0000000000
    6      S       0.7634410000    -2.3213340000     1.3230520000
    7      C      -1.2659410000    -1.9344390000    -2.1922070000
    8      H      -1.5986950000    -2.8197990000    -2.7677090000
    9      H      -0.6207700000    -1.3262100000    -2.8601000000
   10      H      -2.1664380000    -1.3253740000    -1.9676820000
   11      C       0.0000000000     0.0000000000     0.0000000000
   12      C       0.7299090000     0.4249710000     1.1130200000
   13      C       1.9321790000     1.1245180000     0.8205780000
   14      H       0.3944780000     0.2297650000     2.1428810000
   15      C       2.1467560000     1.2491610000    -0.5635880000
   16      S       0.8387240000     0.4885000000    -1.4647480000
   17      C       2.8523640000     1.6599240000     1.8823800000
   18      H       2.4651450000     1.4347100000     2.8949740000
   19      H       2.9706210000     2.7611830000     1.8081370000
   20      H       3.8681600000     1.2184160000     1.8082300000
   21      H       2.9747810000     1.7310320000    -1.0971140000
   22      H       1.3057440000    -4.4202190000     0.4690730000
   23      H      -0.2489400000    -4.4193950000     1.3666940000
   24      H       0.9353000000    -1.4506280000    -0.5400120000
 ----------------------------------------------------------------

   11   -1180.6828913889      4.83e-07  Convergence criterion met
 Total energy in the final basis set =    -1180.6828913889
        RIMP2         total energy =     -1182.7062749270 a.u.

                    Orbital Energies (a.u.)
 --------------------------------------------------------------

 Alpha MOs
 -- Occupied --
-91.9736 -91.9403 -11.2830 -11.2633 -11.2557 -11.2547 -11.2538 -11.2520
-11.2381 -11.2303 -11.2299 -11.2166  -8.9758  -8.9449  -6.6566  -6.6557
 -6.6553  -6.6262  -6.6252  -6.6239  -1.2110  -1.1536  -1.0613  -1.0262
 -1.0063  -0.9581  -0.9148  -0.9023  -0.8068  -0.7741  -0.7285  -0.7039
 -0.6535  -0.6428  -0.6150  -0.5898  -0.5827  -0.5750  -0.5696  -0.5505
 -0.5419  -0.5365  -0.5171  -0.5086  -0.4884  -0.4611  -0.4597  -0.4357
 -0.3590  -0.3414  -0.3292  -0.2575

          Ground-State Mulliken Net Atomic Charges

     Atom                 Charge (a.u.)
  ----------------------------------------
      1 C                    -0.087394
      2 C                    -0.315298
      3 C                    -0.079307
      4 H                     0.174991
      5 C                     0.113728
      6 S                    -0.195213
      7 C                    -0.287494
      8 H                     0.114840
      9 H                     0.107080
     10 H                     0.111516
     11 C                    -0.106347
     12 C                    -0.180390
     13 C                     0.006093
     14 H                     0.192653
     15 C                    -0.196433
     16 S                    -0.009592
     17 C                    -0.268283
     18 H                     0.104479
     19 H                     0.110384
     20 H                     0.108216
     21 H                     0.201528
     22 H                     0.108053
     23 H                     0.109267
     24 H                     0.162920
  ----------------------------------------
  Sum of atomic charges =     0.000000

                    Cartesian Multipole Moments
 -----------------------------------------------------------------
    Charge (ESU x 10^10)
                -0.0000
    Dipole Moment (Debye)
         X       1.8449      Y       0.2357      Z      -0.5370
       Tot       1.9359
    Quadrupole Moments (Debye-Ang)
        XX     -82.1916     XY       6.0964     YY     -82.5691
        XZ       1.1689     YZ       4.8306     ZZ     -85.7608

 Total job time:  62.29s(wall), 2165.90s(cpu)
        *  Thank you very much for using Q-Chem.  Have a nice day.  *
