 Q-Chem 5.4, Q-Chem, Inc., Pleasanton, CA (2021)
 Q-Chem 5.4.0 for Intel X86 EM64T Linux

User input:
--------------------------------------------------------------
$molecule
0 1
C	-0.555670	-3.887800	0.464838
C	0.505790	-3.701456	-0.425760
C	0.831053	-2.345170	-0.697866
H	1.046496	-4.545233	-0.879984
C	-0.000000	-1.450135	-0.000000
S	-1.170382	-2.321334	0.981588
C	1.939074	-1.934439	-1.627381
H	2.448051	-2.819799	-2.055015
H	2.708853	-1.326210	-1.107991
H	1.561590	-1.325374	-2.475210
C	0.000000	0.000000	0.000000
C	0.070542	0.841660	1.113020
C	0.187101	2.227746	0.820578
H	0.038051	0.454925	2.142881
C	0.208076	2.475009	-0.563588
S	0.080917	0.967235	-1.464748
C	0.276318	3.288613	1.882380
H	0.238704	2.842244	2.894974
H	-0.557951	4.017140	1.808137
H	1.220618	3.867466	1.808230
H	0.288286	3.429678	-1.097114
H	-0.235206	-4.420219	1.367361
H	-1.389159	-4.419395	-0.007834
H	0.694221	-1.450628	0.827319
$end

$rem
JOBTYPE		SP
EXCHANGE	HF
CORRELATION	pRIMP2
BASIS		cc-pvtz
METHOD		rimp2
AUX_BASIS	rimp2-cc-pvtz
SOLVENT_METHOD	PCM
PURECART	11111
SYMMETRY	false
MEM_TOTAL	110000
SCF_CONVERGENCE = 6
THRESH=10
GUI = 2
$end

$solvent
dielectric 4.90
$end
--------------------------------------------------------------

             Standard Nuclear Orientation (Angstroms)
    I     Atom           X                Y                Z
 ----------------------------------------------------------------
    1      C      -0.5556700000    -3.8878000000     0.4648380000
    2      C       0.5057900000    -3.7014560000    -0.4257600000
    3      C       0.8310530000    -2.3451700000    -0.6978660000
    4      H       1.0464960000    -4.5452330000    -0.8799840000
    5      C       0.0000000000    -1.4501350000     0.0000000000
    6      S      -1.1703820000    -2.3213340000     0.9815880000
    7      C       1.9390740000    -1.9344390000    -1.6273810000
    8      H       2.4480510000    -2.8197990000    -2.0550150000
    9      H       2.7088530000    -1.3262100000    -1.1079910000
   10      H       1.5615900000    -1.3253740000    -2.4752100000
   11      C       0.0000000000     0.0000000000     0.0000000000
   12      C       0.0705420000     0.8416600000     1.1130200000
   13      C       0.1871010000     2.2277460000     0.8205780000
   14      H       0.0380510000     0.4549250000     2.1428810000
   15      C       0.2080760000     2.4750090000    -0.5635880000
   16      S       0.0809170000     0.9672350000    -1.4647480000
   17      C       0.2763180000     3.2886130000     1.8823800000
   18      H       0.2387040000     2.8422440000     2.8949740000
   19      H      -0.5579510000     4.0171400000     1.8081370000
   20      H       1.2206180000     3.8674660000     1.8082300000
   21      H       0.2882860000     3.4296780000    -1.0971140000
   22      H      -0.2352060000    -4.4202190000     1.3673610000
   23      H      -1.3891590000    -4.4193950000    -0.0078340000
   24      H       0.6942210000    -1.4506280000     0.8273190000
 ----------------------------------------------------------------

   10   -1180.7616390468      4.92e-07  Convergence criterion met
 Total energy in the final basis set =    -1180.7616390468
        RIMP2         total energy =     -1182.7668186299 a.u.

                    Orbital Energies (a.u.)
 --------------------------------------------------------------

 Alpha MOs
 -- Occupied --
-91.9824 -91.9434 -11.2859 -11.2637 -11.2597 -11.2579 -11.2509 -11.2424
-11.2368 -11.2315 -11.2287 -11.2208  -8.9822  -8.9480  -6.6631  -6.6626
 -6.6620  -6.6294  -6.6283  -6.6270  -1.1989  -1.1531  -1.0580  -1.0257
 -1.0075  -0.9575  -0.9134  -0.9014  -0.8140  -0.7669  -0.7273  -0.7005
 -0.6617  -0.6428  -0.6107  -0.5870  -0.5801  -0.5732  -0.5677  -0.5520
 -0.5416  -0.5318  -0.5140  -0.5060  -0.4928  -0.4824  -0.4583  -0.4498
 -0.3563  -0.3430  -0.3194  -0.2714

          Ground-State Mulliken Net Atomic Charges

     Atom                 Charge (a.u.)
  ----------------------------------------
      1 C                    -0.076364
      2 C                    -0.325737
      3 C                    -0.026132
      4 H                     0.178254
      5 C                     0.085651
      6 S                    -0.176528
      7 C                    -0.279953
      8 H                     0.115510
      9 H                     0.108638
     10 H                     0.108868
     11 C                    -0.056660
     12 C                    -0.262833
     13 C                     0.025653
     14 H                     0.183031
     15 C                    -0.253764
     16 S                     0.007433
     17 C                    -0.271521
     18 H                     0.102639
     19 H                     0.108604
     20 H                     0.107791
     21 H                     0.196594
     22 H                     0.110616
     23 H                     0.113392
     24 H                     0.176819
  ----------------------------------------
  Sum of atomic charges =     0.000000

                    Cartesian Multipole Moments
 -----------------------------------------------------------------
    Charge (ESU x 10^10)
                -0.0000
    Dipole Moment (Debye)
         X       2.5392      Y       0.1736      Z       0.5219
       Tot       2.5981
    Quadrupole Moments (Debye-Ang)
        XX     -91.9115     XY      -2.9434     YY     -73.8419
        XZ      -0.0782     YZ       2.5452     ZZ     -85.5916

 Total job time:  54.17s(wall), 1897.63s(cpu)
        *  Thank you very much for using Q-Chem.  Have a nice day.  *
