 Q-Chem 5.4, Q-Chem, Inc., Pleasanton, CA (2021)
 Q-Chem 5.4.0 for Intel X86 EM64T Linux

User input:
--------------------------------------------------------------
$molecule
0 1
C	-0.680396	-3.887800	-0.248806
C	0.621614	-3.701456	0.225147
C	1.019896	-2.345170	0.370780
H	1.285337	-4.545233	0.466300
C	0.000000	-1.450135	0.000000
S	-1.435271	-2.321334	-0.522786
C	2.378891	-1.934439	0.865597
H	3.003720	-2.819799	1.092567
H	2.313975	-1.326210	1.791940
H	2.924390	-1.325374	0.114772
C	0.000000	0.000000	0.000000
C	-0.003081	0.844605	1.113020
C	-0.007772	2.235575	0.820578
H	-0.001743	0.456510	2.142881
C	-0.008427	2.483726	-0.563588
S	-0.003691	0.970607	-1.464748
C	-0.011355	3.300181	1.882380
H	-0.009922	2.852233	2.894974
H	-0.905944	3.953225	1.808137
H	0.878901	3.959133	1.808230
H	-0.011727	3.441752	-1.097114
H	-1.301772	-4.420219	0.479986
H	-0.687795	-4.419395	-1.206964
H	-0.369368	-1.450628	1.014873
$end

$rem
JOBTYPE		SP
EXCHANGE	HF
CORRELATION	pRIMP2
BASIS		cc-pvtz
METHOD		rimp2
AUX_BASIS	rimp2-cc-pvtz
SOLVENT_METHOD	PCM
PURECART	11111
SYMMETRY	false
MEM_TOTAL	110000
SCF_CONVERGENCE = 6
THRESH=10
GUI = 2
$end

$solvent
dielectric 4.90
$end
--------------------------------------------------------------

             Standard Nuclear Orientation (Angstroms)
    I     Atom           X                Y                Z
 ----------------------------------------------------------------
    1      C      -0.6803960000    -3.8878000000    -0.2488060000
    2      C       0.6216140000    -3.7014560000     0.2251470000
    3      C       1.0198960000    -2.3451700000     0.3707800000
    4      H       1.2853370000    -4.5452330000     0.4663000000
    5      C       0.0000000000    -1.4501350000     0.0000000000
    6      S      -1.4352710000    -2.3213340000    -0.5227860000
    7      C       2.3788910000    -1.9344390000     0.8655970000
    8      H       3.0037200000    -2.8197990000     1.0925670000
    9      H       2.3139750000    -1.3262100000     1.7919400000
   10      H       2.9243900000    -1.3253740000     0.1147720000
   11      C       0.0000000000     0.0000000000     0.0000000000
   12      C      -0.0030810000     0.8446050000     1.1130200000
   13      C      -0.0077720000     2.2355750000     0.8205780000
   14      H      -0.0017430000     0.4565100000     2.1428810000
   15      C      -0.0084270000     2.4837260000    -0.5635880000
   16      S      -0.0036910000     0.9706070000    -1.4647480000
   17      C      -0.0113550000     3.3001810000     1.8823800000
   18      H      -0.0099220000     2.8522330000     2.8949740000
   19      H      -0.9059440000     3.9532250000     1.8081370000
   20      H       0.8789010000     3.9591330000     1.8082300000
   21      H      -0.0117270000     3.4417520000    -1.0971140000
   22      H      -1.3017720000    -4.4202190000     0.4799860000
   23      H      -0.6877950000    -4.4193950000    -1.2069640000
   24      H      -0.3693680000    -1.4506280000     1.0148730000
 ----------------------------------------------------------------

   10   -1180.7652913139      4.99e-07  Convergence criterion met
 Total energy in the final basis set =    -1180.7652913139
        RIMP2         total energy =     -1182.7693381601 a.u.

                    Orbital Energies (a.u.)
 --------------------------------------------------------------

 Alpha MOs
 -- Occupied --
-91.9812 -91.9426 -11.2829 -11.2639 -11.2627 -11.2568 -11.2509 -11.2418
-11.2416 -11.2316 -11.2295 -11.2195  -8.9810  -8.9472  -6.6619  -6.6614
 -6.6609  -6.6286  -6.6276  -6.6263  -1.1977  -1.1537  -1.0572  -1.0264
 -1.0049  -0.9606  -0.9120  -0.9012  -0.8154  -0.7596  -0.7341  -0.7036
 -0.6604  -0.6417  -0.6108  -0.5896  -0.5814  -0.5709  -0.5642  -0.5513
 -0.5413  -0.5297  -0.5139  -0.5057  -0.4918  -0.4825  -0.4608  -0.4486
 -0.3562  -0.3412  -0.3153  -0.2798

          Ground-State Mulliken Net Atomic Charges

     Atom                 Charge (a.u.)
  ----------------------------------------
      1 C                    -0.076434
      2 C                    -0.329694
      3 C                    -0.025426
      4 H                     0.177355
      5 C                     0.086058
      6 S                    -0.175046
      7 C                    -0.267586
      8 H                     0.114635
      9 H                     0.099495
     10 H                     0.109441
     11 C                    -0.079319
     12 C                    -0.240876
     13 C                     0.016493
     14 H                     0.182803
     15 C                    -0.239111
     16 S                     0.006629
     17 C                    -0.272114
     18 H                     0.101931
     19 H                     0.108864
     20 H                     0.108052
     21 H                     0.197147
     22 H                     0.111840
     23 H                     0.111974
     24 H                     0.172889
  ----------------------------------------
  Sum of atomic charges =     0.000000

                    Cartesian Multipole Moments
 -----------------------------------------------------------------
    Charge (ESU x 10^10)
                -0.0000
    Dipole Moment (Debye)
         X       2.0033      Y       0.4944      Z       3.0769
       Tot       3.7048
    Quadrupole Moments (Debye-Ang)
        XX     -91.5132     XY      -2.9528     YY     -73.6600
        XZ      -0.1970     YZ      -1.3405     ZZ     -86.2542

 Total job time:  55.86s(wall), 1834.77s(cpu)
        *  Thank you very much for using Q-Chem.  Have a nice day.  *
