 Q-Chem 5.4, Q-Chem, Inc., Pleasanton, CA (2021)
 Q-Chem 5.4.0 for Intel X86 EM64T Linux

User input:
--------------------------------------------------------------
$molecule
0 1
C	-0.464838	-3.887800	-0.555670
C	0.425760	-3.701456	0.505790
C	0.697866	-2.345170	0.831053
H	0.879984	-4.545233	1.046496
C	0.000000	-1.450135	0.000000
S	-0.981588	-2.321334	-1.170382
C	1.627381	-1.934439	1.939074
H	2.055015	-2.819799	2.448051
H	1.107991	-1.326210	2.708853
H	2.475210	-1.325374	1.561590
C	0.000000	0.000000	0.000000
C	0.285976	0.794723	1.113020
C	0.757308	2.103412	0.820578
H	0.154498	0.429575	2.142881
C	0.841565	2.336821	-0.563588
S	0.328498	0.913334	-1.464748
C	1.118059	3.105040	1.882380
H	0.966197	2.683616	2.894974
H	0.500773	4.024668	1.808137
H	2.180000	3.419766	1.808230
H	1.166129	3.238200	-1.097114
H	-1.367361	-4.420219	-0.235206
H	0.007834	-4.419395	-1.389159
H	-0.827319	-1.450628	0.694221
$end

$rem
JOBTYPE		SP
EXCHANGE	HF
CORRELATION	pRIMP2
BASIS		cc-pvtz
METHOD		rimp2
AUX_BASIS	rimp2-cc-pvtz
SOLVENT_METHOD	PCM
PURECART	11111
SYMMETRY	false
MEM_TOTAL	110000
SCF_CONVERGENCE = 6
THRESH=10
GUI = 2
$end

$solvent
dielectric 4.90
$end
--------------------------------------------------------------

             Standard Nuclear Orientation (Angstroms)
    I     Atom           X                Y                Z
 ----------------------------------------------------------------
    1      C      -0.4648380000    -3.8878000000    -0.5556700000
    2      C       0.4257600000    -3.7014560000     0.5057900000
    3      C       0.6978660000    -2.3451700000     0.8310530000
    4      H       0.8799840000    -4.5452330000     1.0464960000
    5      C       0.0000000000    -1.4501350000     0.0000000000
    6      S      -0.9815880000    -2.3213340000    -1.1703820000
    7      C       1.6273810000    -1.9344390000     1.9390740000
    8      H       2.0550150000    -2.8197990000     2.4480510000
    9      H       1.1079910000    -1.3262100000     2.7088530000
   10      H       2.4752100000    -1.3253740000     1.5615900000
   11      C       0.0000000000     0.0000000000     0.0000000000
   12      C       0.2859760000     0.7947230000     1.1130200000
   13      C       0.7573080000     2.1034120000     0.8205780000
   14      H       0.1544980000     0.4295750000     2.1428810000
   15      C       0.8415650000     2.3368210000    -0.5635880000
   16      S       0.3284980000     0.9133340000    -1.4647480000
   17      C       1.1180590000     3.1050400000     1.8823800000
   18      H       0.9661970000     2.6836160000     2.8949740000
   19      H       0.5007730000     4.0246680000     1.8081370000
   20      H       2.1800000000     3.4197660000     1.8082300000
   21      H       1.1661290000     3.2382000000    -1.0971140000
   22      H      -1.3673610000    -4.4202190000    -0.2352060000
   23      H       0.0078340000    -4.4193950000    -1.3891590000
   24      H      -0.8273190000    -1.4506280000     0.6942210000
 ----------------------------------------------------------------

   10   -1180.7520603533      5.28e-07  Convergence criterion met
 Total energy in the final basis set =    -1180.7520603533
        RIMP2         total energy =     -1182.7606051214 a.u.

                    Orbital Energies (a.u.)
 --------------------------------------------------------------

 Alpha MOs
 -- Occupied --
-91.9814 -91.9435 -11.2825 -11.2643 -11.2620 -11.2580 -11.2513 -11.2426
-11.2384 -11.2319 -11.2294 -11.2207  -8.9812  -8.9481  -6.6621  -6.6615
 -6.6610  -6.6295  -6.6285  -6.6272  -1.1993  -1.1533  -1.0580  -1.0284
 -1.0028  -0.9618  -0.9134  -0.9009  -0.8155  -0.7606  -0.7297  -0.7079
 -0.6571  -0.6446  -0.6113  -0.5915  -0.5866  -0.5706  -0.5593  -0.5539
 -0.5413  -0.5321  -0.5198  -0.5060  -0.4843  -0.4790  -0.4634  -0.4466
 -0.3568  -0.3420  -0.3217  -0.2701

          Ground-State Mulliken Net Atomic Charges

     Atom                 Charge (a.u.)
  ----------------------------------------
      1 C                    -0.073017
      2 C                    -0.320634
      3 C                    -0.059575
      4 H                     0.178822
      5 C                     0.111506
      6 S                    -0.178070
      7 C                    -0.283581
      8 H                     0.119642
      9 H                     0.096052
     10 H                     0.116028
     11 C                    -0.049785
     12 C                    -0.294962
     13 C                     0.042752
     14 H                     0.190992
     15 C                    -0.253444
     16 S                     0.012022
     17 C                    -0.272218
     18 H                     0.101411
     19 H                     0.108959
     20 H                     0.108383
     21 H                     0.196487
     22 H                     0.110958
     23 H                     0.111097
     24 H                     0.180172
  ----------------------------------------
  Sum of atomic charges =     0.000000

                    Cartesian Multipole Moments
 -----------------------------------------------------------------
    Charge (ESU x 10^10)
                -0.0000
    Dipole Moment (Debye)
         X       1.5181      Y       0.1787      Z       3.9144
       Tot       4.2023
    Quadrupole Moments (Debye-Ang)
        XX     -90.1922     XY       2.2134     YY     -74.7009
        XZ       0.6138     YZ      -2.5280     ZZ     -86.2654

 Total job time:  54.06s(wall), 1895.23s(cpu)
        *  Thank you very much for using Q-Chem.  Have a nice day.  *
