 Q-Chem 5.4, Q-Chem, Inc., Pleasanton, CA (2021)
 Q-Chem 5.4.0 for Intel X86 EM64T Linux

User input:
--------------------------------------------------------------
$molecule
0 1
C	0.627947	-3.887800	-0.361285
C	-0.572038	-3.701456	0.331462
C	-0.939610	-2.345170	0.542953
H	-1.183405	-4.545233	0.684893
C	-0.000000	-1.450135	-0.000000
S	1.323052	-2.321334	-0.763441
C	-2.192207	-1.934439	1.265941
H	-2.767709	-2.819799	1.598695
H	-2.860100	-1.326210	0.620770
H	-1.967682	-1.325374	2.166438
C	0.000000	0.000000	0.000000
C	0.215623	0.816623	1.113020
C	0.571102	2.161411	0.820578
H	0.116470	0.441406	2.142881
C	0.634696	2.401276	-0.563588
S	0.247646	0.938489	-1.464748
C	0.843182	3.190669	1.882380
H	0.728628	2.757614	2.894974
H	0.148095	4.052998	1.808137
H	1.873652	3.596752	1.808230
H	0.879464	3.327513	-1.097114
H	0.469073	-4.420219	-1.305744
H	1.366694	-4.419395	0.248940
H	-0.540012	-1.450628	-0.935300
$end

$rem
JOBTYPE		SP
EXCHANGE	HF
CORRELATION	pRIMP2
BASIS		cc-pvtz
METHOD		rimp2
AUX_BASIS	rimp2-cc-pvtz
SOLVENT_METHOD	PCM
PURECART	11111
SYMMETRY	false
MEM_TOTAL	110000
SCF_CONVERGENCE = 6
THRESH=10
GUI = 2
$end

$solvent
dielectric 4.90
$end
--------------------------------------------------------------

             Standard Nuclear Orientation (Angstroms)
    I     Atom           X                Y                Z
 ----------------------------------------------------------------
    1      C       0.6279470000    -3.8878000000    -0.3612850000
    2      C      -0.5720380000    -3.7014560000     0.3314620000
    3      C      -0.9396100000    -2.3451700000     0.5429530000
    4      H      -1.1834050000    -4.5452330000     0.6848930000
    5      C       0.0000000000    -1.4501350000     0.0000000000
    6      S       1.3230520000    -2.3213340000    -0.7634410000
    7      C      -2.1922070000    -1.9344390000     1.2659410000
    8      H      -2.7677090000    -2.8197990000     1.5986950000
    9      H      -2.8601000000    -1.3262100000     0.6207700000
   10      H      -1.9676820000    -1.3253740000     2.1664380000
   11      C       0.0000000000     0.0000000000     0.0000000000
   12      C       0.2156230000     0.8166230000     1.1130200000
   13      C       0.5711020000     2.1614110000     0.8205780000
   14      H       0.1164700000     0.4414060000     2.1428810000
   15      C       0.6346960000     2.4012760000    -0.5635880000
   16      S       0.2476460000     0.9384890000    -1.4647480000
   17      C       0.8431820000     3.1906690000     1.8823800000
   18      H       0.7286280000     2.7576140000     2.8949740000
   19      H       0.1480950000     4.0529980000     1.8081370000
   20      H       1.8736520000     3.5967520000     1.8082300000
   21      H       0.8794640000     3.3275130000    -1.0971140000
   22      H       0.4690730000    -4.4202190000    -1.3057440000
   23      H       1.3666940000    -4.4193950000     0.2489400000
   24      H      -0.5400120000    -1.4506280000    -0.9353000000
 ----------------------------------------------------------------

   10   -1180.7567365276      5.16e-07  Convergence criterion met
 Total energy in the final basis set =    -1180.7567365276
        RIMP2         total energy =     -1182.7615123292 a.u.

                    Orbital Energies (a.u.)
 --------------------------------------------------------------

 Alpha MOs
 -- Occupied --
-91.9857 -91.9422 -11.2793 -11.2652 -11.2629 -11.2558 -11.2508 -11.2414
-11.2376 -11.2318 -11.2288 -11.2191  -8.9854  -8.9468  -6.6663  -6.6658
 -6.6651  -6.6282  -6.6272  -6.6259  -1.1976  -1.1536  -1.0573  -1.0275
 -1.0013  -0.9632  -0.9125  -0.9006  -0.8139  -0.7588  -0.7423  -0.7028
 -0.6535  -0.6352  -0.6111  -0.5885  -0.5793  -0.5697  -0.5672  -0.5538
 -0.5430  -0.5304  -0.5127  -0.5054  -0.4917  -0.4811  -0.4634  -0.4496
 -0.3564  -0.3409  -0.3177  -0.2753

          Ground-State Mulliken Net Atomic Charges

     Atom                 Charge (a.u.)
  ----------------------------------------
      1 C                    -0.074943
      2 C                    -0.328315
      3 C                    -0.026559
      4 H                     0.177120
      5 C                     0.095934
      6 S                    -0.174300
      7 C                    -0.269778
      8 H                     0.113559
      9 H                     0.104530
     10 H                     0.103379
     11 C                    -0.112637
     12 C                    -0.215737
     13 C                     0.014341
     14 H                     0.189427
     15 C                    -0.235970
     16 S                     0.009467
     17 C                    -0.272871
     18 H                     0.102201
     19 H                     0.107573
     20 H                     0.108572
     21 H                     0.198476
     22 H                     0.110109
     23 H                     0.113421
     24 H                     0.163001
  ----------------------------------------
  Sum of atomic charges =     0.000000

                    Cartesian Multipole Moments
 -----------------------------------------------------------------
    Charge (ESU x 10^10)
                -0.0000
    Dipole Moment (Debye)
         X      -1.9932      Y       0.5949      Z       2.0043
       Tot       2.8886
    Quadrupole Moments (Debye-Ang)
        XX     -91.2897     XY       6.5968     YY     -74.2706
        XZ       0.0432     YZ       0.3859     ZZ     -85.6467

 Total job time:  57.03s(wall), 1964.86s(cpu)
        *  Thank you very much for using Q-Chem.  Have a nice day.  *
