 Q-Chem 5.4, Q-Chem, Inc., Pleasanton, CA (2021)
 Q-Chem 5.4.0 for Intel X86 EM64T Linux

User input:
--------------------------------------------------------------
$molecule
0 1
C	0.246754	-3.887800	0.681143
C	-0.227093	-3.701456	-0.620906
C	-0.371543	-2.345170	-1.019618
H	-0.468992	-4.545233	-1.284357
C	0.000000	-1.450135	0.000000
S	0.522097	-2.321334	1.435522
C	-0.866035	-1.934439	-2.378731
H	-1.093799	-2.819799	-3.003272
H	-0.114688	-1.326210	-2.924444
H	-1.791841	-1.325374	-2.313987
C	0.000000	0.000000	0.000000
C	0.419634	0.732990	1.113020
C	1.111057	1.939951	0.820578
H	0.226746	0.396221	2.142881
C	1.234565	2.155183	-0.563588
S	0.482106	0.842416	-1.464748
C	1.640257	2.863718	1.882380
H	1.417524	2.475067	2.894974
H	1.192042	3.876565	1.808137
H	2.740717	2.989259	1.808230
H	1.710720	2.986508	-1.097114
H	1.204454	-4.420219	0.688686
H	-0.482482	-4.419395	1.302703
H	1.014863	-1.450628	-0.369395
$end

$rem
JOBTYPE		SP
EXCHANGE	HF
CORRELATION	pRIMP2
BASIS		cc-pvtz
METHOD		rimp2
AUX_BASIS	rimp2-cc-pvtz
SOLVENT_METHOD	PCM
PURECART	11111
SYMMETRY	false
MEM_TOTAL	110000
SCF_CONVERGENCE = 6
THRESH=10
GUI = 2
$end

$solvent
dielectric 4.90
$end
--------------------------------------------------------------

             Standard Nuclear Orientation (Angstroms)
    I     Atom           X                Y                Z
 ----------------------------------------------------------------
    1      C       0.2467540000    -3.8878000000     0.6811430000
    2      C      -0.2270930000    -3.7014560000    -0.6209060000
    3      C      -0.3715430000    -2.3451700000    -1.0196180000
    4      H      -0.4689920000    -4.5452330000    -1.2843570000
    5      C       0.0000000000    -1.4501350000     0.0000000000
    6      S       0.5220970000    -2.3213340000     1.4355220000
    7      C      -0.8660350000    -1.9344390000    -2.3787310000
    8      H      -1.0937990000    -2.8197990000    -3.0032720000
    9      H      -0.1146880000    -1.3262100000    -2.9244440000
   10      H      -1.7918410000    -1.3253740000    -2.3139870000
   11      C       0.0000000000     0.0000000000     0.0000000000
   12      C       0.4196340000     0.7329900000     1.1130200000
   13      C       1.1110570000     1.9399510000     0.8205780000
   14      H       0.2267460000     0.3962210000     2.1428810000
   15      C       1.2345650000     2.1551830000    -0.5635880000
   16      S       0.4821060000     0.8424160000    -1.4647480000
   17      C       1.6402570000     2.8637180000     1.8823800000
   18      H       1.4175240000     2.4750670000     2.8949740000
   19      H       1.1920420000     3.8765650000     1.8081370000
   20      H       2.7407170000     2.9892590000     1.8082300000
   21      H       1.7107200000     2.9865080000    -1.0971140000
   22      H       1.2044540000    -4.4202190000     0.6886860000
   23      H      -0.4824820000    -4.4193950000     1.3027030000
   24      H       1.0148630000    -1.4506280000    -0.3693950000
 ----------------------------------------------------------------

   10   -1180.7468066782      4.93e-07  Convergence criterion met
 Total energy in the final basis set =    -1180.7468066782
        RIMP2         total energy =     -1182.7554143137 a.u.

                    Orbital Energies (a.u.)
 --------------------------------------------------------------

 Alpha MOs
 -- Occupied --
-91.9796 -91.9457 -11.2853 -11.2623 -11.2609 -11.2604 -11.2509 -11.2430
-11.2350 -11.2323 -11.2282 -11.2220  -8.9801  -8.9501  -6.6611  -6.6605
 -6.6598  -6.6314  -6.6304  -6.6292  -1.2029  -1.1532  -1.0600  -1.0276
 -1.0058  -0.9572  -0.9157  -0.9019  -0.8121  -0.7717  -0.7207  -0.7036
 -0.6576  -0.6464  -0.6121  -0.5915  -0.5803  -0.5734  -0.5693  -0.5529
 -0.5422  -0.5342  -0.5149  -0.5104  -0.4887  -0.4797  -0.4590  -0.4444
 -0.3585  -0.3426  -0.3271  -0.2655

          Ground-State Mulliken Net Atomic Charges

     Atom                 Charge (a.u.)
  ----------------------------------------
      1 C                    -0.075402
      2 C                    -0.314258
      3 C                    -0.059517
      4 H                     0.178040
      5 C                     0.114794
      6 S                    -0.186506
      7 C                    -0.300831
      8 H                     0.118690
      9 H                     0.108051
     10 H                     0.118005
     11 C                     0.010371
     12 C                    -0.341107
     13 C                     0.060507
     14 H                     0.179263
     15 C                    -0.269885
     16 S                     0.002890
     17 C                    -0.269500
     18 H                     0.103223
     19 H                     0.108624
     20 H                     0.108791
     21 H                     0.196524
     22 H                     0.111717
     23 H                     0.111389
     24 H                     0.186128
  ----------------------------------------
  Sum of atomic charges =     0.000000

                    Cartesian Multipole Moments
 -----------------------------------------------------------------
    Charge (ESU x 10^10)
                -0.0000
    Dipole Moment (Debye)
         X       0.7636      Y      -0.2396      Z      -1.0330
       Tot       1.3067
    Quadrupole Moments (Debye-Ang)
        XX     -88.9568     XY       4.3402     YY     -75.5854
        XZ       1.0083     YZ       5.0968     ZZ     -85.8601

 Total job time:  54.25s(wall), 1917.38s(cpu)
        *  Thank you very much for using Q-Chem.  Have a nice day.  *
