 Q-Chem 5.4, Q-Chem, Inc., Pleasanton, CA (2021)
 Q-Chem 5.4.0 for Intel X86 EM64T Linux

User input:
--------------------------------------------------------------
$molecule
0 1
C	0.124726	-3.887800	0.713644
C	-0.115824	-3.701456	-0.650907
C	-0.188844	-2.345170	-1.068646
H	-0.238841	-4.545233	-1.346284
C	-0.000000	-1.450135	-0.000000
S	0.264890	-2.321334	1.504375
C	-0.439816	-1.934439	-2.492978
H	-0.555669	-2.819799	-3.147582
H	0.394879	-1.326210	-2.899931
H	-1.362799	-1.325374	-2.589982
C	0.000000	0.000000	0.000000
C	0.215623	0.816623	1.113020
C	0.571102	2.161411	0.820578
H	0.116470	0.441406	2.142881
C	0.634696	2.401276	-0.563588
S	0.247646	0.938489	-1.464748
C	0.843182	3.190669	1.882380
H	0.728628	2.757614	2.894974
H	0.148095	4.052998	1.808137
H	1.873652	3.596752	1.808230
H	0.879464	3.327513	-1.097114
H	1.066566	-4.420219	0.887375
H	-0.701364	-4.419395	1.199130
H	1.063590	-1.450628	-0.187554
$end

$rem
JOBTYPE		SP
EXCHANGE	HF
CORRELATION	pRIMP2
BASIS		cc-pvtz
METHOD		rimp2
AUX_BASIS	rimp2-cc-pvtz
SOLVENT_METHOD	PCM
PURECART	11111
SYMMETRY	false
MEM_TOTAL	110000
SCF_CONVERGENCE = 6
THRESH=10
GUI = 2
$end

$solvent
dielectric 4.90
$end
--------------------------------------------------------------

             Standard Nuclear Orientation (Angstroms)
    I     Atom           X                Y                Z
 ----------------------------------------------------------------
    1      C       0.1247260000    -3.8878000000     0.7136440000
    2      C      -0.1158240000    -3.7014560000    -0.6509070000
    3      C      -0.1888440000    -2.3451700000    -1.0686460000
    4      H      -0.2388410000    -4.5452330000    -1.3462840000
    5      C       0.0000000000    -1.4501350000     0.0000000000
    6      S       0.2648900000    -2.3213340000     1.5043750000
    7      C      -0.4398160000    -1.9344390000    -2.4929780000
    8      H      -0.5556690000    -2.8197990000    -3.1475820000
    9      H       0.3948790000    -1.3262100000    -2.8999310000
   10      H      -1.3627990000    -1.3253740000    -2.5899820000
   11      C       0.0000000000     0.0000000000     0.0000000000
   12      C       0.2156230000     0.8166230000     1.1130200000
   13      C       0.5711020000     2.1614110000     0.8205780000
   14      H       0.1164700000     0.4414060000     2.1428810000
   15      C       0.6346960000     2.4012760000    -0.5635880000
   16      S       0.2476460000     0.9384890000    -1.4647480000
   17      C       0.8431820000     3.1906690000     1.8823800000
   18      H       0.7286280000     2.7576140000     2.8949740000
   19      H       0.1480950000     4.0529980000     1.8081370000
   20      H       1.8736520000     3.5967520000     1.8082300000
   21      H       0.8794640000     3.3275130000    -1.0971140000
   22      H       1.0665660000    -4.4202190000     0.8873750000
   23      H      -0.7013640000    -4.4193950000     1.1991300000
   24      H       1.0635900000    -1.4506280000    -0.1875540000
 ----------------------------------------------------------------

   10   -1180.7583730102      4.94e-07  Convergence criterion met
 Total energy in the final basis set =    -1180.7583730102
        RIMP2         total energy =     -1182.7639116618 a.u.

                    Orbital Energies (a.u.)
 --------------------------------------------------------------

 Alpha MOs
 -- Occupied --
-91.9813 -91.9473 -11.2903 -11.2649 -11.2633 -11.2547 -11.2502 -11.2446
-11.2327 -11.2303 -11.2276 -11.2233  -8.9815  -8.9518  -6.6624  -6.6619
 -6.6611  -6.6331  -6.6321  -6.6309  -1.2025  -1.1526  -1.0603  -1.0283
 -1.0065  -0.9566  -0.9166  -0.9019  -0.8140  -0.7719  -0.7178  -0.7044
 -0.6594  -0.6483  -0.6116  -0.5921  -0.5814  -0.5719  -0.5687  -0.5536
 -0.5422  -0.5339  -0.5158  -0.5093  -0.4896  -0.4852  -0.4583  -0.4456
 -0.3593  -0.3421  -0.3272  -0.2659

          Ground-State Mulliken Net Atomic Charges

     Atom                 Charge (a.u.)
  ----------------------------------------
      1 C                    -0.073659
      2 C                    -0.313906
      3 C                    -0.059439
      4 H                     0.179422
      5 C                     0.132245
      6 S                    -0.186099
      7 C                    -0.309468
      8 H                     0.121297
      9 H                     0.108105
     10 H                     0.119493
     11 C                     0.005427
     12 C                    -0.341677
     13 C                     0.058237
     14 H                     0.176136
     15 C                    -0.284719
     16 S                     0.007729
     17 C                    -0.271057
     18 H                     0.102848
     19 H                     0.108294
     20 H                     0.108869
     21 H                     0.196402
     22 H                     0.112293
     23 H                     0.112490
     24 H                     0.190740
  ----------------------------------------
  Sum of atomic charges =     0.000000

                    Cartesian Multipole Moments
 -----------------------------------------------------------------
    Charge (ESU x 10^10)
                -0.0000
    Dipole Moment (Debye)
         X       0.7712      Y      -0.4789      Z      -1.1508
       Tot       1.4657
    Quadrupole Moments (Debye-Ang)
        XX     -91.0281     XY       1.6060     YY     -73.5796
        XZ       0.7176     YZ       5.0899     ZZ     -85.6529

 Total job time:  58.93s(wall), 1945.66s(cpu)
        *  Thank you very much for using Q-Chem.  Have a nice day.  *
