 Q-Chem 5.4, Q-Chem, Inc., Pleasanton, CA (2021)
 Q-Chem 5.4.0 for Intel X86 EM64T Linux

User input:
--------------------------------------------------------------
$molecule
0 1
C	0.554267	-3.887800	0.466510
C	-0.507121	-3.701456	-0.424173
C	-0.831575	-2.345170	-0.697244
H	-1.048337	-4.545233	-0.877789
C	0.000000	-1.450135	0.000000
S	1.169911	-2.321334	0.982150
C	-1.939374	-1.934439	-1.627024
H	-2.448894	-2.819799	-2.054010
H	-1.561545	-1.326210	-2.475299
H	-2.708773	-1.325374	-1.108051
C	0.000000	0.000000	0.000000
C	0.729909	0.424971	1.113020
C	1.932179	1.124518	0.820578
H	0.394478	0.229765	2.142881
C	2.146756	1.249161	-0.563588
S	0.838724	0.488500	-1.464748
C	2.852364	1.659924	1.882380
H	2.465145	1.434710	2.894974
H	2.970621	2.761183	1.808137
H	3.868160	1.218416	1.808230
H	2.974781	1.731032	-1.097114
H	1.387431	-4.420219	-0.005807
H	0.233510	-4.419395	1.369415
H	0.694200	-1.450628	-0.827337
$end

$rem
JOBTYPE		SP
EXCHANGE	HF
CORRELATION	pRIMP2
BASIS		cc-pvtz
METHOD		rimp2
AUX_BASIS	rimp2-cc-pvtz
SOLVENT_METHOD	PCM
PURECART	11111
SYMMETRY	false
MEM_TOTAL	110000
SCF_CONVERGENCE = 6
THRESH=10
GUI = 2
$end

$solvent
dielectric 4.90
$end
--------------------------------------------------------------

             Standard Nuclear Orientation (Angstroms)
    I     Atom           X                Y                Z
 ----------------------------------------------------------------
    1      C       0.5542670000    -3.8878000000     0.4665100000
    2      C      -0.5071210000    -3.7014560000    -0.4241730000
    3      C      -0.8315750000    -2.3451700000    -0.6972440000
    4      H      -1.0483370000    -4.5452330000    -0.8777890000
    5      C       0.0000000000    -1.4501350000     0.0000000000
    6      S       1.1699110000    -2.3213340000     0.9821500000
    7      C      -1.9393740000    -1.9344390000    -1.6270240000
    8      H      -2.4488940000    -2.8197990000    -2.0540100000
    9      H      -1.5615450000    -1.3262100000    -2.4752990000
   10      H      -2.7087730000    -1.3253740000    -1.1080510000
   11      C       0.0000000000     0.0000000000     0.0000000000
   12      C       0.7299090000     0.4249710000     1.1130200000
   13      C       1.9321790000     1.1245180000     0.8205780000
   14      H       0.3944780000     0.2297650000     2.1428810000
   15      C       2.1467560000     1.2491610000    -0.5635880000
   16      S       0.8387240000     0.4885000000    -1.4647480000
   17      C       2.8523640000     1.6599240000     1.8823800000
   18      H       2.4651450000     1.4347100000     2.8949740000
   19      H       2.9706210000     2.7611830000     1.8081370000
   20      H       3.8681600000     1.2184160000     1.8082300000
   21      H       2.9747810000     1.7310320000    -1.0971140000
   22      H       1.3874310000    -4.4202190000    -0.0058070000
   23      H       0.2335100000    -4.4193950000     1.3694150000
   24      H       0.6942000000    -1.4506280000    -0.8273370000
 ----------------------------------------------------------------

   10   -1180.6779862443      8.44e-07  Convergence criterion met
 Total energy in the final basis set =    -1180.6779862443
        RIMP2         total energy =     -1182.6999799315 a.u.

                    Orbital Energies (a.u.)
 --------------------------------------------------------------

 Alpha MOs
 -- Occupied --
-91.9761 -91.9375 -11.2866 -11.2608 -11.2575 -11.2532 -11.2530 -11.2454
-11.2361 -11.2305 -11.2294 -11.2116  -8.9781  -8.9422  -6.6589  -6.6580
 -6.6577  -6.6236  -6.6226  -6.6213  -1.2090  -1.1530  -1.0602  -1.0240
 -1.0057  -0.9602  -0.9141  -0.9002  -0.8059  -0.7712  -0.7352  -0.7040
 -0.6503  -0.6346  -0.6156  -0.5885  -0.5815  -0.5750  -0.5679  -0.5503
 -0.5411  -0.5351  -0.5142  -0.5060  -0.4875  -0.4647  -0.4592  -0.4378
 -0.3532  -0.3456  -0.3252  -0.2568

          Ground-State Mulliken Net Atomic Charges

     Atom                 Charge (a.u.)
  ----------------------------------------
      1 C                    -0.086971
      2 C                    -0.329388
      3 C                    -0.073553
      4 H                     0.173272
      5 C                     0.101051
      6 S                    -0.198475
      7 C                    -0.279632
      8 H                     0.114448
      9 H                     0.102212
     10 H                     0.107381
     11 C                    -0.137282
     12 C                    -0.147851
     13 C                    -0.007755
     14 H                     0.195401
     15 C                    -0.175358
     16 S                    -0.001188
     17 C                    -0.268414
     18 H                     0.104339
     19 H                     0.111211
     20 H                     0.107728
     21 H                     0.202327
     22 H                     0.107590
     23 H                     0.106038
     24 H                     0.172870
  ----------------------------------------
  Sum of atomic charges =     0.000000

                    Cartesian Multipole Moments
 -----------------------------------------------------------------
    Charge (ESU x 10^10)
                -0.0000
    Dipole Moment (Debye)
         X       1.2432      Y       0.7842      Z      -0.1760
       Tot       1.4804
    Quadrupole Moments (Debye-Ang)
        XX     -82.0231     XY       7.4389     YY     -84.1863
        XZ       0.7177     YZ       4.2287     ZZ     -85.5598

 Total job time:  59.27s(wall), 2162.08s(cpu)
        *  Thank you very much for using Q-Chem.  Have a nice day.  *
