 Q-Chem 5.4, Q-Chem, Inc., Pleasanton, CA (2021)
 Q-Chem 5.4.0 for Intel X86 EM64T Linux

User input:
--------------------------------------------------------------
$molecule
0 1
C	0.555670	-3.887800	-0.464838
C	-0.505790	-3.701456	0.425760
C	-0.831053	-2.345170	0.697866
H	-1.046496	-4.545233	0.879984
C	-0.000000	-1.450135	-0.000000
S	1.170382	-2.321334	-0.981588
C	-1.939074	-1.934439	1.627381
H	-2.448051	-2.819799	2.055015
H	-2.708853	-1.326210	1.107991
H	-1.561590	-1.325374	2.475210
C	0.000000	0.000000	0.000000
C	0.070542	0.841660	1.113020
C	0.187101	2.227746	0.820578
H	0.038051	0.454925	2.142881
C	0.208076	2.475009	-0.563588
S	0.080917	0.967235	-1.464748
C	0.276318	3.288613	1.882380
H	0.238704	2.842244	2.894974
H	-0.557951	4.017140	1.808137
H	1.220618	3.867466	1.808230
H	0.288286	3.429678	-1.097114
H	0.235206	-4.420219	-1.367361
H	1.389159	-4.419395	0.007834
H	-0.694221	-1.450628	-0.827319
$end

$rem
JOBTYPE		SP
EXCHANGE	HF
CORRELATION	pRIMP2
BASIS		cc-pvtz
METHOD		rimp2
AUX_BASIS	rimp2-cc-pvtz
SOLVENT_METHOD	PCM
PURECART	11111
SYMMETRY	false
MEM_TOTAL	110000
SCF_CONVERGENCE = 6
THRESH=10
GUI = 2
$end

$solvent
dielectric 4.90
$end
--------------------------------------------------------------

             Standard Nuclear Orientation (Angstroms)
    I     Atom           X                Y                Z
 ----------------------------------------------------------------
    1      C       0.5556700000    -3.8878000000    -0.4648380000
    2      C      -0.5057900000    -3.7014560000     0.4257600000
    3      C      -0.8310530000    -2.3451700000     0.6978660000
    4      H      -1.0464960000    -4.5452330000     0.8799840000
    5      C       0.0000000000    -1.4501350000     0.0000000000
    6      S       1.1703820000    -2.3213340000    -0.9815880000
    7      C      -1.9390740000    -1.9344390000     1.6273810000
    8      H      -2.4480510000    -2.8197990000     2.0550150000
    9      H      -2.7088530000    -1.3262100000     1.1079910000
   10      H      -1.5615900000    -1.3253740000     2.4752100000
   11      C       0.0000000000     0.0000000000     0.0000000000
   12      C       0.0705420000     0.8416600000     1.1130200000
   13      C       0.1871010000     2.2277460000     0.8205780000
   14      H       0.0380510000     0.4549250000     2.1428810000
   15      C       0.2080760000     2.4750090000    -0.5635880000
   16      S       0.0809170000     0.9672350000    -1.4647480000
   17      C       0.2763180000     3.2886130000     1.8823800000
   18      H       0.2387040000     2.8422440000     2.8949740000
   19      H      -0.5579510000     4.0171400000     1.8081370000
   20      H       1.2206180000     3.8674660000     1.8082300000
   21      H       0.2882860000     3.4296780000    -1.0971140000
   22      H       0.2352060000    -4.4202190000    -1.3673610000
   23      H       1.3891590000    -4.4193950000     0.0078340000
   24      H      -0.6942210000    -1.4506280000    -0.8273190000
 ----------------------------------------------------------------

   10   -1180.7605234031      5.10e-07  Convergence criterion met
 Total energy in the final basis set =    -1180.7605234031
        RIMP2         total energy =     -1182.7643933439 a.u.

                    Orbital Energies (a.u.)
 --------------------------------------------------------------

 Alpha MOs
 -- Occupied --
-91.9851 -91.9434 -11.2833 -11.2641 -11.2620 -11.2576 -11.2506 -11.2424
-11.2353 -11.2322 -11.2287 -11.2208  -8.9848  -8.9481  -6.6657  -6.6652
 -6.6645  -6.6294  -6.6284  -6.6271  -1.1986  -1.1534  -1.0580  -1.0283
 -1.0015  -0.9630  -0.9133  -0.9005  -0.8148  -0.7597  -0.7407  -0.7029
 -0.6540  -0.6380  -0.6110  -0.5899  -0.5798  -0.5691  -0.5666  -0.5541
 -0.5441  -0.5314  -0.5155  -0.5047  -0.4908  -0.4824  -0.4636  -0.4497
 -0.3565  -0.3422  -0.3205  -0.2726

          Ground-State Mulliken Net Atomic Charges

     Atom                 Charge (a.u.)
  ----------------------------------------
      1 C                    -0.075119
      2 C                    -0.327956
      3 C                    -0.024843
      4 H                     0.178160
      5 C                     0.113287
      6 S                    -0.177075
      7 C                    -0.271923
      8 H                     0.115199
      9 H                     0.106246
     10 H                     0.103122
     11 C                    -0.112045
     12 C                    -0.228015
     13 C                     0.014115
     14 H                     0.191851
     15 C                    -0.244887
     16 S                     0.007002
     17 C                    -0.273564
     18 H                     0.101904
     19 H                     0.107845
     20 H                     0.108981
     21 H                     0.198245
     22 H                     0.110716
     23 H                     0.114379
     24 H                     0.164373
  ----------------------------------------
  Sum of atomic charges =     0.000000

                    Cartesian Multipole Moments
 -----------------------------------------------------------------
    Charge (ESU x 10^10)
                -0.0000
    Dipole Moment (Debye)
         X      -2.2269      Y       0.3291      Z       2.3946
       Tot       3.2866
    Quadrupole Moments (Debye-Ang)
        XX     -91.9636     XY       4.5997     YY     -73.3594
        XZ      -0.0651     YZ      -0.1554     ZZ     -85.6713

 Total job time:  53.42s(wall), 1839.38s(cpu)
        *  Thank you very much for using Q-Chem.  Have a nice day.  *
