 Q-Chem 5.4, Q-Chem, Inc., Pleasanton, CA (2021)
 Q-Chem 5.4.0 for Intel X86 EM64T Linux

User input:
--------------------------------------------------------------
$molecule
0 1
C	-0.464838	-3.887800	-0.555670
C	0.425760	-3.701456	0.505790
C	0.697866	-2.345170	0.831053
H	0.879984	-4.545233	1.046496
C	0.000000	-1.450135	0.000000
S	-0.981588	-2.321334	-1.170382
C	1.627381	-1.934439	1.939074
H	2.055015	-2.819799	2.448051
H	1.107991	-1.326210	2.708853
H	2.475210	-1.325374	1.561590
C	0.000000	0.000000	0.000000
C	0.419634	0.732990	1.113020
C	1.111057	1.939951	0.820578
H	0.226746	0.396221	2.142881
C	1.234565	2.155183	-0.563588
S	0.482106	0.842416	-1.464748
C	1.640257	2.863718	1.882380
H	1.417524	2.475067	2.894974
H	1.192042	3.876565	1.808137
H	2.740717	2.989259	1.808230
H	1.710720	2.986508	-1.097114
H	-1.367361	-4.420219	-0.235206
H	0.007834	-4.419395	-1.389159
H	-0.827319	-1.450628	0.694221
$end

$rem
JOBTYPE		SP
EXCHANGE	HF
CORRELATION	pRIMP2
BASIS		cc-pvtz
METHOD		rimp2
AUX_BASIS	rimp2-cc-pvtz
SOLVENT_METHOD	PCM
PURECART	11111
SYMMETRY	false
MEM_TOTAL	110000
SCF_CONVERGENCE = 6
THRESH=10
GUI = 2
$end

$solvent
dielectric 4.90
$end
--------------------------------------------------------------

             Standard Nuclear Orientation (Angstroms)
    I     Atom           X                Y                Z
 ----------------------------------------------------------------
    1      C      -0.4648380000    -3.8878000000    -0.5556700000
    2      C       0.4257600000    -3.7014560000     0.5057900000
    3      C       0.6978660000    -2.3451700000     0.8310530000
    4      H       0.8799840000    -4.5452330000     1.0464960000
    5      C       0.0000000000    -1.4501350000     0.0000000000
    6      S      -0.9815880000    -2.3213340000    -1.1703820000
    7      C       1.6273810000    -1.9344390000     1.9390740000
    8      H       2.0550150000    -2.8197990000     2.4480510000
    9      H       1.1079910000    -1.3262100000     2.7088530000
   10      H       2.4752100000    -1.3253740000     1.5615900000
   11      C       0.0000000000     0.0000000000     0.0000000000
   12      C       0.4196340000     0.7329900000     1.1130200000
   13      C       1.1110570000     1.9399510000     0.8205780000
   14      H       0.2267460000     0.3962210000     2.1428810000
   15      C       1.2345650000     2.1551830000    -0.5635880000
   16      S       0.4821060000     0.8424160000    -1.4647480000
   17      C       1.6402570000     2.8637180000     1.8823800000
   18      H       1.4175240000     2.4750670000     2.8949740000
   19      H       1.1920420000     3.8765650000     1.8081370000
   20      H       2.7407170000     2.9892590000     1.8082300000
   21      H       1.7107200000     2.9865080000    -1.0971140000
   22      H      -1.3673610000    -4.4202190000    -0.2352060000
   23      H       0.0078340000    -4.4193950000    -1.3891590000
   24      H      -0.8273190000    -1.4506280000     0.6942210000
 ----------------------------------------------------------------

   10   -1180.7408506522      6.12e-07  Convergence criterion met
 Total energy in the final basis set =    -1180.7408506522
        RIMP2         total energy =     -1182.7528355516 a.u.

                    Orbital Energies (a.u.)
 --------------------------------------------------------------

 Alpha MOs
 -- Occupied --
-91.9799 -91.9420 -11.2773 -11.2662 -11.2634 -11.2563 -11.2516 -11.2421
-11.2416 -11.2314 -11.2298 -11.2195  -8.9800  -8.9466  -6.6609  -6.6602
 -6.6597  -6.6281  -6.6271  -6.6258  -1.1993  -1.1536  -1.0576  -1.0282
 -1.0023  -0.9623  -0.9130  -0.9012  -0.8140  -0.7600  -0.7310  -0.7088
 -0.6551  -0.6438  -0.6116  -0.5915  -0.5880  -0.5709  -0.5590  -0.5537
 -0.5407  -0.5318  -0.5208  -0.5070  -0.4834  -0.4733  -0.4623  -0.4457
 -0.3559  -0.3414  -0.3216  -0.2694

          Ground-State Mulliken Net Atomic Charges

     Atom                 Charge (a.u.)
  ----------------------------------------
      1 C                    -0.072133
      2 C                    -0.323380
      3 C                    -0.062735
      4 H                     0.178792
      5 C                     0.105584
      6 S                    -0.181472
      7 C                    -0.286720
      8 H                     0.120128
      9 H                     0.095839
     10 H                     0.116435
     11 C                    -0.049266
     12 C                    -0.295785
     13 C                     0.046623
     14 H                     0.192579
     15 C                    -0.241852
     16 S                     0.012565
     17 C                    -0.271524
     18 H                     0.101638
     19 H                     0.109497
     20 H                     0.107932
     21 H                     0.197068
     22 H                     0.109541
     23 H                     0.110599
     24 H                     0.180046
  ----------------------------------------
  Sum of atomic charges =     0.000000

                    Cartesian Multipole Moments
 -----------------------------------------------------------------
    Charge (ESU x 10^10)
                -0.0000
    Dipole Moment (Debye)
         X       1.9153      Y       0.3545      Z       3.9990
       Tot       4.4482
    Quadrupole Moments (Debye-Ang)
        XX     -88.7489     XY       3.4970     YY     -76.3398
        XZ       0.7787     YZ      -2.6404     ZZ     -86.2443

 Total job time:  54.13s(wall), 1910.78s(cpu)
        *  Thank you very much for using Q-Chem.  Have a nice day.  *
