 Q-Chem 5.4, Q-Chem, Inc., Pleasanton, CA (2021)
 Q-Chem 5.4.0 for Intel X86 EM64T Linux

User input:
--------------------------------------------------------------
$molecule
0 1
C	-0.246754	-3.887800	-0.681143
C	0.227093	-3.701456	0.620906
C	0.371543	-2.345170	1.019618
H	0.468992	-4.545233	1.284357
C	0.000000	-1.450135	0.000000
S	-0.522097	-2.321334	-1.435522
C	0.866035	-1.934439	2.378731
H	1.093799	-2.819799	3.003272
H	0.114688	-1.326210	2.924444
H	1.791841	-1.325374	2.313987
C	0.000000	0.000000	0.000000
C	0.354153	0.766774	1.113020
C	0.937751	2.029404	0.820578
H	0.191350	0.414475	2.142881
C	1.042030	2.254581	-0.563588
S	0.406851	0.881228	-1.464748
C	1.384426	2.995779	1.882380
H	1.196413	2.589194	2.894974
H	0.849641	3.965707	1.808137
H	2.469756	3.216753	1.808230
H	1.443919	3.124243	-1.097114
H	-1.204454	-4.420219	-0.688686
H	0.482482	-4.419395	-1.302703
H	-1.014863	-1.450628	0.369395
$end

$rem
JOBTYPE		SP
EXCHANGE	HF
CORRELATION	pRIMP2
BASIS		cc-pvtz
METHOD		rimp2
AUX_BASIS	rimp2-cc-pvtz
SOLVENT_METHOD	PCM
PURECART	11111
SYMMETRY	false
MEM_TOTAL	110000
SCF_CONVERGENCE = 6
THRESH=10
GUI = 2
$end

$solvent
dielectric 4.90
$end
--------------------------------------------------------------

             Standard Nuclear Orientation (Angstroms)
    I     Atom           X                Y                Z
 ----------------------------------------------------------------
    1      C      -0.2467540000    -3.8878000000    -0.6811430000
    2      C       0.2270930000    -3.7014560000     0.6209060000
    3      C       0.3715430000    -2.3451700000     1.0196180000
    4      H       0.4689920000    -4.5452330000     1.2843570000
    5      C       0.0000000000    -1.4501350000     0.0000000000
    6      S      -0.5220970000    -2.3213340000    -1.4355220000
    7      C       0.8660350000    -1.9344390000     2.3787310000
    8      H       1.0937990000    -2.8197990000     3.0032720000
    9      H       0.1146880000    -1.3262100000     2.9244440000
   10      H       1.7918410000    -1.3253740000     2.3139870000
   11      C       0.0000000000     0.0000000000     0.0000000000
   12      C       0.3541530000     0.7667740000     1.1130200000
   13      C       0.9377510000     2.0294040000     0.8205780000
   14      H       0.1913500000     0.4144750000     2.1428810000
   15      C       1.0420300000     2.2545810000    -0.5635880000
   16      S       0.4068510000     0.8812280000    -1.4647480000
   17      C       1.3844260000     2.9957790000     1.8823800000
   18      H       1.1964130000     2.5891940000     2.8949740000
   19      H       0.8496410000     3.9657070000     1.8081370000
   20      H       2.4697560000     3.2167530000     1.8082300000
   21      H       1.4439190000     3.1242430000    -1.0971140000
   22      H      -1.2044540000    -4.4202190000    -0.6886860000
   23      H       0.4824820000    -4.4193950000    -1.3027030000
   24      H      -1.0148630000    -1.4506280000     0.3693950000
 ----------------------------------------------------------------

   10   -1180.7408032623      5.51e-07  Convergence criterion met
 Total energy in the final basis set =    -1180.7408032623
        RIMP2         total energy =     -1182.7519526295 a.u.

                    Orbital Energies (a.u.)
 --------------------------------------------------------------

 Alpha MOs
 -- Occupied --
-91.9817 -91.9448 -11.2828 -11.2653 -11.2597 -11.2583 -11.2504 -11.2435
-11.2342 -11.2331 -11.2288 -11.2211  -8.9816  -8.9494  -6.6625  -6.6619
 -6.6613  -6.6308  -6.6298  -6.6285  -1.2005  -1.1527  -1.0583  -1.0307
 -1.0013  -0.9619  -0.9154  -0.9003  -0.8158  -0.7612  -0.7275  -0.7097
 -0.6549  -0.6468  -0.6109  -0.5936  -0.5887  -0.5697  -0.5590  -0.5516
 -0.5422  -0.5345  -0.5236  -0.5036  -0.4829  -0.4764  -0.4659  -0.4443
 -0.3591  -0.3422  -0.3235  -0.2640

          Ground-State Mulliken Net Atomic Charges

     Atom                 Charge (a.u.)
  ----------------------------------------
      1 C                    -0.073663
      2 C                    -0.320610
      3 C                    -0.065330
      4 H                     0.179672
      5 C                     0.120309
      6 S                    -0.181162
      7 C                    -0.296718
      8 H                     0.121577
      9 H                     0.097922
     10 H                     0.117568
     11 C                    -0.034101
     12 C                    -0.312700
     13 C                     0.056714
     14 H                     0.192918
     15 C                    -0.268610
     16 S                     0.016689
     17 C                    -0.271583
     18 H                     0.101023
     19 H                     0.108895
     20 H                     0.108240
     21 H                     0.195630
     22 H                     0.111278
     23 H                     0.112482
     24 H                     0.183559
  ----------------------------------------
  Sum of atomic charges =     0.000000

                    Cartesian Multipole Moments
 -----------------------------------------------------------------
    Charge (ESU x 10^10)
                -0.0000
    Dipole Moment (Debye)
         X       0.7212      Y      -0.0935      Z       4.0680
       Tot       4.1325
    Quadrupole Moments (Debye-Ang)
        XX     -89.7102     XY       4.0887     YY     -75.2757
        XZ       0.8917     YZ      -2.7507     ZZ     -85.9369

 Total job time:  56.22s(wall), 1944.82s(cpu)
        *  Thank you very much for using Q-Chem.  Have a nice day.  *
