 Q-Chem 5.4, Q-Chem, Inc., Pleasanton, CA (2021)
 Q-Chem 5.4.0 for Intel X86 EM64T Linux

User input:
--------------------------------------------------------------
$molecule
0 1
C	-0.555670	-3.887800	0.464838
C	0.505790	-3.701456	-0.425760
C	0.831053	-2.345170	-0.697866
H	1.046496	-4.545233	-0.879984
C	-0.000000	-1.450135	-0.000000
S	-1.170382	-2.321334	0.981588
C	1.939074	-1.934439	-1.627381
H	2.448051	-2.819799	-2.055015
H	2.708853	-1.326210	-1.107991
H	1.561590	-1.325374	-2.475210
C	0.000000	0.000000	0.000000
C	0.540541	0.648986	1.113020
C	1.431046	1.717546	0.820578
H	0.292104	0.350827	2.142881
C	1.590053	1.908061	-0.563588
S	0.621066	0.745901	-1.464748
C	2.112618	2.535384	1.882380
H	1.825779	2.191315	2.894974
H	1.847090	3.610676	1.808137
H	3.218159	2.467925	1.808230
H	2.203332	2.644073	-1.097114
H	-0.235206	-4.420219	1.367361
H	-1.389159	-4.419395	-0.007834
H	0.694221	-1.450628	0.827319
$end

$rem
JOBTYPE		SP
EXCHANGE	HF
CORRELATION	pRIMP2
BASIS		cc-pvtz
METHOD		rimp2
AUX_BASIS	rimp2-cc-pvtz
SOLVENT_METHOD	PCM
PURECART	11111
SYMMETRY	false
MEM_TOTAL	110000
SCF_CONVERGENCE = 6
THRESH=10
GUI = 2
$end

$solvent
dielectric 4.90
$end
--------------------------------------------------------------

             Standard Nuclear Orientation (Angstroms)
    I     Atom           X                Y                Z
 ----------------------------------------------------------------
    1      C      -0.5556700000    -3.8878000000     0.4648380000
    2      C       0.5057900000    -3.7014560000    -0.4257600000
    3      C       0.8310530000    -2.3451700000    -0.6978660000
    4      H       1.0464960000    -4.5452330000    -0.8799840000
    5      C       0.0000000000    -1.4501350000     0.0000000000
    6      S      -1.1703820000    -2.3213340000     0.9815880000
    7      C       1.9390740000    -1.9344390000    -1.6273810000
    8      H       2.4480510000    -2.8197990000    -2.0550150000
    9      H       2.7088530000    -1.3262100000    -1.1079910000
   10      H       1.5615900000    -1.3253740000    -2.4752100000
   11      C       0.0000000000     0.0000000000     0.0000000000
   12      C       0.5405410000     0.6489860000     1.1130200000
   13      C       1.4310460000     1.7175460000     0.8205780000
   14      H       0.2921040000     0.3508270000     2.1428810000
   15      C       1.5900530000     1.9080610000    -0.5635880000
   16      S       0.6210660000     0.7459010000    -1.4647480000
   17      C       2.1126180000     2.5353840000     1.8823800000
   18      H       1.8257790000     2.1913150000     2.8949740000
   19      H       1.8470900000     3.6106760000     1.8081370000
   20      H       3.2181590000     2.4679250000     1.8082300000
   21      H       2.2033320000     2.6440730000    -1.0971140000
   22      H      -0.2352060000    -4.4202190000     1.3673610000
   23      H      -1.3891590000    -4.4193950000    -0.0078340000
   24      H       0.6942210000    -1.4506280000     0.8273190000
 ----------------------------------------------------------------

   10   -1180.7157472009      8.26e-07  Convergence criterion met
 Total energy in the final basis set =    -1180.7157472009
        RIMP2         total energy =     -1182.7341681296 a.u.

                    Orbital Energies (a.u.)
 --------------------------------------------------------------

 Alpha MOs
 -- Occupied --
-91.9818 -91.9379 -11.2744 -11.2690 -11.2620 -11.2528 -11.2517 -11.2421
-11.2396 -11.2297 -11.2271 -11.2168  -8.9822  -8.9428  -6.6630  -6.6624
 -6.6620  -6.6242  -6.6231  -6.6219  -1.2015  -1.1529  -1.0581  -1.0235
 -1.0084  -0.9571  -0.9101  -0.9036  -0.8077  -0.7669  -0.7315  -0.6997
 -0.6611  -0.6398  -0.6101  -0.5846  -0.5821  -0.5748  -0.5675  -0.5533
 -0.5422  -0.5284  -0.5173  -0.5092  -0.4933  -0.4649  -0.4548  -0.4450
 -0.3531  -0.3425  -0.3192  -0.2641

          Ground-State Mulliken Net Atomic Charges

     Atom                 Charge (a.u.)
  ----------------------------------------
      1 C                    -0.069649
      2 C                    -0.333247
      3 C                    -0.035158
      4 H                     0.177675
      5 C                     0.062202
      6 S                    -0.198212
      7 C                    -0.281257
      8 H                     0.111730
      9 H                     0.110225
     10 H                     0.113470
     11 C                    -0.069590
     12 C                    -0.221742
     13 C                     0.013610
     14 H                     0.184718
     15 C                    -0.236210
     16 S                     0.021285
     17 C                    -0.268453
     18 H                     0.102891
     19 H                     0.107980
     20 H                     0.105875
     21 H                     0.198076
     22 H                     0.108110
     23 H                     0.110016
     24 H                     0.185654
  ----------------------------------------
  Sum of atomic charges =     0.000000

                    Cartesian Multipole Moments
 -----------------------------------------------------------------
    Charge (ESU x 10^10)
                -0.0000
    Dipole Moment (Debye)
         X       3.8405      Y       0.5271      Z       0.3270
       Tot       3.8903
    Quadrupole Moments (Debye-Ang)
        XX     -87.7653     XY       1.6245     YY     -79.7064
        XZ       0.5495     YZ       2.2177     ZZ     -85.0534

 Total job time:  55.32s(wall), 1965.62s(cpu)
        *  Thank you very much for using Q-Chem.  Have a nice day.  *
