 Q-Chem 5.4, Q-Chem, Inc., Pleasanton, CA (2021)
 Q-Chem 5.4.0 for Intel X86 EM64T Linux

User input:
--------------------------------------------------------------
$molecule
0 1
C	0.680396	-3.887800	0.248806
C	-0.621614	-3.701456	-0.225147
C	-1.019896	-2.345170	-0.370780
H	-1.285337	-4.545233	-0.466300
C	0.000000	-1.450135	0.000000
S	1.435271	-2.321334	0.522786
C	-2.378891	-1.934439	-0.865597
H	-3.003720	-2.819799	-1.092567
H	-2.313975	-1.326210	-1.791940
H	-2.924390	-1.325374	-0.114772
C	0.000000	0.000000	0.000000
C	-0.003081	0.844605	1.113020
C	-0.007772	2.235575	0.820578
H	-0.001743	0.456510	2.142881
C	-0.008427	2.483726	-0.563588
S	-0.003691	0.970607	-1.464748
C	-0.011355	3.300181	1.882380
H	-0.009922	2.852233	2.894974
H	-0.905944	3.953225	1.808137
H	0.878901	3.959133	1.808230
H	-0.011727	3.441752	-1.097114
H	1.301772	-4.420219	-0.479986
H	0.687795	-4.419395	1.206964
H	0.369368	-1.450628	-1.014873
$end

$rem
JOBTYPE		SP
EXCHANGE	HF
CORRELATION	pRIMP2
BASIS		cc-pvtz
METHOD		rimp2
AUX_BASIS	rimp2-cc-pvtz
SOLVENT_METHOD	PCM
PURECART	11111
SYMMETRY	false
MEM_TOTAL	110000
SCF_CONVERGENCE = 6
THRESH=10
GUI = 2
$end

$solvent
dielectric 4.90
$end
--------------------------------------------------------------

             Standard Nuclear Orientation (Angstroms)
    I     Atom           X                Y                Z
 ----------------------------------------------------------------
    1      C       0.6803960000    -3.8878000000     0.2488060000
    2      C      -0.6216140000    -3.7014560000    -0.2251470000
    3      C      -1.0198960000    -2.3451700000    -0.3707800000
    4      H      -1.2853370000    -4.5452330000    -0.4663000000
    5      C       0.0000000000    -1.4501350000     0.0000000000
    6      S       1.4352710000    -2.3213340000     0.5227860000
    7      C      -2.3788910000    -1.9344390000    -0.8655970000
    8      H      -3.0037200000    -2.8197990000    -1.0925670000
    9      H      -2.3139750000    -1.3262100000    -1.7919400000
   10      H      -2.9243900000    -1.3253740000    -0.1147720000
   11      C       0.0000000000     0.0000000000     0.0000000000
   12      C      -0.0030810000     0.8446050000     1.1130200000
   13      C      -0.0077720000     2.2355750000     0.8205780000
   14      H      -0.0017430000     0.4565100000     2.1428810000
   15      C      -0.0084270000     2.4837260000    -0.5635880000
   16      S      -0.0036910000     0.9706070000    -1.4647480000
   17      C      -0.0113550000     3.3001810000     1.8823800000
   18      H      -0.0099220000     2.8522330000     2.8949740000
   19      H      -0.9059440000     3.9532250000     1.8081370000
   20      H       0.8789010000     3.9591330000     1.8082300000
   21      H      -0.0117270000     3.4417520000    -1.0971140000
   22      H       1.3017720000    -4.4202190000    -0.4799860000
   23      H       0.6877950000    -4.4193950000     1.2069640000
   24      H       0.3693680000    -1.4506280000    -1.0148730000
 ----------------------------------------------------------------

   10   -1180.7613954785      4.97e-07  Convergence criterion met
 Total energy in the final basis set =    -1180.7613954785
        RIMP2         total energy =     -1182.7651669576 a.u.

                    Orbital Energies (a.u.)
 --------------------------------------------------------------

 Alpha MOs
 -- Occupied --
-91.9867 -91.9428 -11.2805 -11.2647 -11.2625 -11.2563 -11.2511 -11.2413
-11.2372 -11.2311 -11.2287 -11.2191  -8.9863  -8.9473  -6.6672  -6.6667
 -6.6661  -6.6287  -6.6276  -6.6263  -1.1975  -1.1537  -1.0578  -1.0253
 -1.0041  -0.9616  -0.9136  -0.9006  -0.8124  -0.7653  -0.7355  -0.7040
 -0.6540  -0.6350  -0.6112  -0.5888  -0.5761  -0.5732  -0.5694  -0.5529
 -0.5419  -0.5300  -0.5130  -0.5048  -0.4913  -0.4837  -0.4629  -0.4485
 -0.3559  -0.3419  -0.3154  -0.2795

          Ground-State Mulliken Net Atomic Charges

     Atom                 Charge (a.u.)
  ----------------------------------------
      1 C                    -0.076657
      2 C                    -0.329568
      3 C                    -0.034881
      4 H                     0.177272
      5 C                     0.116727
      6 S                    -0.175432
      7 C                    -0.267178
      8 H                     0.113592
      9 H                     0.100581
     10 H                     0.108333
     11 C                    -0.119427
     12 C                    -0.222677
     13 C                     0.020382
     14 H                     0.185730
     15 C                    -0.244985
     16 S                     0.015165
     17 C                    -0.272128
     18 H                     0.103228
     19 H                     0.107729
     20 H                     0.108303
     21 H                     0.198875
     22 H                     0.111134
     23 H                     0.111977
     24 H                     0.163905
  ----------------------------------------
  Sum of atomic charges =     0.000000

                    Cartesian Multipole Moments
 -----------------------------------------------------------------
    Charge (ESU x 10^10)
                -0.0000
    Dipole Moment (Debye)
         X      -2.0169      Y       0.6505      Z      -0.0512
       Tot       2.1198
    Quadrupole Moments (Debye-Ang)
        XX     -91.5295     XY       2.9168     YY     -73.6328
        XZ      -0.1559     YZ       3.6823     ZZ     -86.1113

 Total job time:  62.56s(wall), 1879.27s(cpu)
        *  Thank you very much for using Q-Chem.  Have a nice day.  *
