 Q-Chem 5.4, Q-Chem, Inc., Pleasanton, CA (2021)
 Q-Chem 5.4.0 for Intel X86 EM64T Linux

User input:
--------------------------------------------------------------
$molecule
0 1
C	-0.724460	-3.887800	-0.001092
C	0.661131	-3.701456	-0.001036
C	1.085203	-2.345170	-0.000406
H	1.367305	-4.545233	-0.001433
C	0.000000	-1.450135	0.000000
S	-1.527517	-2.321334	-0.000367
C	2.531478	-1.934439	-0.000233
H	3.196254	-2.819799	-0.000656
H	2.787305	-1.326210	0.892447
H	2.787282	-1.325374	-0.892350
C	0.000000	0.000000	0.000000
C	0.645024	0.545262	1.113020
C	1.707554	1.442954	0.820578
H	0.348587	0.294774	2.142881
C	1.897227	1.602964	-0.563588
S	0.741155	0.626722	-1.464748
C	2.520787	2.130014	1.882380
H	2.178559	1.840981	2.894974
H	2.446016	3.235078	1.808137
H	3.597818	1.871604	1.808230
H	2.628997	2.221299	-1.097114
H	-1.059101	-4.420219	0.896272
H	-1.059122	-4.419395	-0.898936
H	0.000014	-1.450628	1.080000
$end

$rem
JOBTYPE		SP
EXCHANGE	HF
CORRELATION	pRIMP2
BASIS		cc-pvtz
METHOD		rimp2
AUX_BASIS	rimp2-cc-pvtz
SOLVENT_METHOD	PCM
PURECART	11111
SYMMETRY	false
MEM_TOTAL	110000
SCF_CONVERGENCE = 6
THRESH=10
GUI = 2
$end

$solvent
dielectric 4.90
$end
--------------------------------------------------------------

             Standard Nuclear Orientation (Angstroms)
    I     Atom           X                Y                Z
 ----------------------------------------------------------------
    1      C      -0.7244600000    -3.8878000000    -0.0010920000
    2      C       0.6611310000    -3.7014560000    -0.0010360000
    3      C       1.0852030000    -2.3451700000    -0.0004060000
    4      H       1.3673050000    -4.5452330000    -0.0014330000
    5      C       0.0000000000    -1.4501350000     0.0000000000
    6      S      -1.5275170000    -2.3213340000    -0.0003670000
    7      C       2.5314780000    -1.9344390000    -0.0002330000
    8      H       3.1962540000    -2.8197990000    -0.0006560000
    9      H       2.7873050000    -1.3262100000     0.8924470000
   10      H       2.7872820000    -1.3253740000    -0.8923500000
   11      C       0.0000000000     0.0000000000     0.0000000000
   12      C       0.6450240000     0.5452620000     1.1130200000
   13      C       1.7075540000     1.4429540000     0.8205780000
   14      H       0.3485870000     0.2947740000     2.1428810000
   15      C       1.8972270000     1.6029640000    -0.5635880000
   16      S       0.7411550000     0.6267220000    -1.4647480000
   17      C       2.5207870000     2.1300140000     1.8823800000
   18      H       2.1785590000     1.8409810000     2.8949740000
   19      H       2.4460160000     3.2350780000     1.8081370000
   20      H       3.5978180000     1.8716040000     1.8082300000
   21      H       2.6289970000     2.2212990000    -1.0971140000
   22      H      -1.0591010000    -4.4202190000     0.8962720000
   23      H      -1.0591220000    -4.4193950000    -0.8989360000
   24      H       0.0000140000    -1.4506280000     1.0800000000
 ----------------------------------------------------------------

   10   -1180.7113897947      8.23e-07  Convergence criterion met
 Total energy in the final basis set =    -1180.7113897947
        RIMP2         total energy =     -1182.7306087625 a.u.

                    Orbital Energies (a.u.)
 --------------------------------------------------------------

 Alpha MOs
 -- Occupied --
-91.9796 -91.9323 -11.2820 -11.2619 -11.2590 -11.2579 -11.2531 -11.2504
-11.2364 -11.2319 -11.2275 -11.2159  -8.9801  -8.9373  -6.6610  -6.6603
 -6.6599  -6.6187  -6.6177  -6.6164  -1.2021  -1.1541  -1.0579  -1.0219
 -1.0081  -0.9609  -0.9101  -0.9022  -0.8081  -0.7599  -0.7435  -0.7020
 -0.6568  -0.6370  -0.6125  -0.5917  -0.5818  -0.5735  -0.5654  -0.5507
 -0.5413  -0.5251  -0.5223  -0.5027  -0.4922  -0.4635  -0.4545  -0.4419
 -0.3508  -0.3439  -0.3169  -0.2736

          Ground-State Mulliken Net Atomic Charges

     Atom                 Charge (a.u.)
  ----------------------------------------
      1 C                    -0.072866
      2 C                    -0.329223
      3 C                    -0.025554
      4 H                     0.175671
      5 C                     0.077464
      6 S                    -0.214258
      7 C                    -0.301446
      8 H                     0.123459
      9 H                     0.106395
     10 H                     0.115645
     11 C                    -0.101728
     12 C                    -0.209476
     13 C                     0.027208
     14 H                     0.187032
     15 C                    -0.195814
     16 S                     0.006897
     17 C                    -0.268657
     18 H                     0.103604
     19 H                     0.112661
     20 H                     0.106068
     21 H                     0.200371
     22 H                     0.105638
     23 H                     0.107180
     24 H                     0.163730
  ----------------------------------------
  Sum of atomic charges =     0.000000

                    Cartesian Multipole Moments
 -----------------------------------------------------------------
    Charge (ESU x 10^10)
                -0.0000
    Dipole Moment (Debye)
         X       4.6995      Y       1.0594      Z       2.4949
       Tot       5.4251
    Quadrupole Moments (Debye-Ang)
        XX     -85.1350     XY       1.8894     YY     -81.6101
        XZ       0.3784     YZ      -0.5513     ZZ     -85.5467

 Total job time:  67.04s(wall), 2365.28s(cpu)
        *  Thank you very much for using Q-Chem.  Have a nice day.  *
