 Q-Chem 5.4, Q-Chem, Inc., Pleasanton, CA (2021)
 Q-Chem 5.4.0 for Intel X86 EM64T Linux

User input:
--------------------------------------------------------------
$molecule
0 1
C	-0.680396	-3.887800	-0.248806
C	0.621614	-3.701456	0.225147
C	1.019896	-2.345170	0.370780
H	1.285337	-4.545233	0.466300
C	0.000000	-1.450135	0.000000
S	-1.435271	-2.321334	-0.522786
C	2.378891	-1.934439	0.865597
H	3.003720	-2.819799	1.092567
H	2.313975	-1.326210	1.791940
H	2.924390	-1.325374	0.114772
C	0.000000	0.000000	0.000000
C	0.419634	0.732990	1.113020
C	1.111057	1.939951	0.820578
H	0.226746	0.396221	2.142881
C	1.234565	2.155183	-0.563588
S	0.482106	0.842416	-1.464748
C	1.640257	2.863718	1.882380
H	1.417524	2.475067	2.894974
H	1.192042	3.876565	1.808137
H	2.740717	2.989259	1.808230
H	1.710720	2.986508	-1.097114
H	-1.301772	-4.420219	0.479986
H	-0.687795	-4.419395	-1.206964
H	-0.369368	-1.450628	1.014873
$end

$rem
JOBTYPE		SP
EXCHANGE	HF
CORRELATION	pRIMP2
BASIS		cc-pvtz
METHOD		rimp2
AUX_BASIS	rimp2-cc-pvtz
SOLVENT_METHOD	PCM
PURECART	11111
SYMMETRY	false
MEM_TOTAL	110000
SCF_CONVERGENCE = 6
THRESH=10
GUI = 2
$end

$solvent
dielectric 4.90
$end
--------------------------------------------------------------

             Standard Nuclear Orientation (Angstroms)
    I     Atom           X                Y                Z
 ----------------------------------------------------------------
    1      C      -0.6803960000    -3.8878000000    -0.2488060000
    2      C       0.6216140000    -3.7014560000     0.2251470000
    3      C       1.0198960000    -2.3451700000     0.3707800000
    4      H       1.2853370000    -4.5452330000     0.4663000000
    5      C       0.0000000000    -1.4501350000     0.0000000000
    6      S      -1.4352710000    -2.3213340000    -0.5227860000
    7      C       2.3788910000    -1.9344390000     0.8655970000
    8      H       3.0037200000    -2.8197990000     1.0925670000
    9      H       2.3139750000    -1.3262100000     1.7919400000
   10      H       2.9243900000    -1.3253740000     0.1147720000
   11      C       0.0000000000     0.0000000000     0.0000000000
   12      C       0.4196340000     0.7329900000     1.1130200000
   13      C       1.1110570000     1.9399510000     0.8205780000
   14      H       0.2267460000     0.3962210000     2.1428810000
   15      C       1.2345650000     2.1551830000    -0.5635880000
   16      S       0.4821060000     0.8424160000    -1.4647480000
   17      C       1.6402570000     2.8637180000     1.8823800000
   18      H       1.4175240000     2.4750670000     2.8949740000
   19      H       1.1920420000     3.8765650000     1.8081370000
   20      H       2.7407170000     2.9892590000     1.8082300000
   21      H       1.7107200000     2.9865080000    -1.0971140000
   22      H      -1.3017720000    -4.4202190000     0.4799860000
   23      H      -0.6877950000    -4.4193950000    -1.2069640000
   24      H      -0.3693680000    -1.4506280000     1.0148730000
 ----------------------------------------------------------------

   10   -1180.7485729168      5.90e-07  Convergence criterion met
 Total energy in the final basis set =    -1180.7485729168
        RIMP2         total energy =     -1182.7582081376 a.u.

                    Orbital Energies (a.u.)
 --------------------------------------------------------------

 Alpha MOs
 -- Occupied --
-91.9797 -91.9385 -11.2745 -11.2714 -11.2618 -11.2548 -11.2522 -11.2482
-11.2397 -11.2306 -11.2305 -11.2187  -8.9799  -8.9432  -6.6607  -6.6601
 -6.6596  -6.6246  -6.6236  -6.6224  -1.1981  -1.1543  -1.0571  -1.0250
 -1.0050  -0.9616  -0.9111  -0.9019  -0.8126  -0.7592  -0.7368  -0.7049
 -0.6576  -0.6402  -0.6115  -0.5904  -0.5820  -0.5722  -0.5637  -0.5522
 -0.5408  -0.5283  -0.5189  -0.5061  -0.4892  -0.4725  -0.4600  -0.4465
 -0.3538  -0.3419  -0.3159  -0.2789

          Ground-State Mulliken Net Atomic Charges

     Atom                 Charge (a.u.)
  ----------------------------------------
      1 C                    -0.074155
      2 C                    -0.325099
      3 C                    -0.029076
      4 H                     0.177322
      5 C                     0.067763
      6 S                    -0.186118
      7 C                    -0.273067
      8 H                     0.116738
      9 H                     0.099578
     10 H                     0.113239
     11 C                    -0.054081
     12 C                    -0.274714
     13 C                     0.043570
     14 H                     0.189508
     15 C                    -0.230428
     16 S                     0.004270
     17 C                    -0.269744
     18 H                     0.102314
     19 H                     0.109212
     20 H                     0.107710
     21 H                     0.198924
     22 H                     0.108580
     23 H                     0.109545
     24 H                     0.168210
  ----------------------------------------
  Sum of atomic charges =     0.000000

                    Cartesian Multipole Moments
 -----------------------------------------------------------------
    Charge (ESU x 10^10)
                -0.0000
    Dipole Moment (Debye)
         X       3.1440      Y       0.7753      Z       3.2165
       Tot       4.5642
    Quadrupole Moments (Debye-Ang)
        XX     -88.9131     XY       1.7329     YY     -76.5340
        XZ       0.3602     YZ      -1.6068     ZZ     -86.1950

 Total job time:  57.41s(wall), 1917.64s(cpu)
        *  Thank you very much for using Q-Chem.  Have a nice day.  *
