 Q-Chem 5.4, Q-Chem, Inc., Pleasanton, CA (2021)
 Q-Chem 5.4.0 for Intel X86 EM64T Linux

User input:
--------------------------------------------------------------
$molecule
0 1
C	0.126876	-3.887800	-0.713264
C	-0.113784	-3.701456	0.651267
C	-0.188043	-2.345170	1.068787
H	-0.236019	-4.545233	1.346782
C	0.000000	-1.450135	0.000000
S	0.265612	-2.321334	-1.504247
C	-0.439357	-1.934439	2.493059
H	-0.554378	-2.819799	3.147809
H	-1.362899	-1.326210	2.589987
H	0.394786	-1.325374	2.899892
C	0.000000	0.000000	0.000000
C	-0.003081	0.844605	1.113020
C	-0.007772	2.235575	0.820578
H	-0.001743	0.456510	2.142881
C	-0.008427	2.483726	-0.563588
S	-0.003691	0.970607	-1.464748
C	-0.011355	3.300181	1.882380
H	-0.009922	2.852233	2.894974
H	-0.905944	3.953225	1.808137
H	0.878901	3.959133	1.808230
H	-0.011727	3.441752	-1.097114
H	-0.698744	-4.420219	-1.198647
H	1.069193	-4.419395	-0.886933
H	-1.063595	-1.450628	-0.187526
$end

$rem
JOBTYPE		SP
EXCHANGE	HF
CORRELATION	pRIMP2
BASIS		cc-pvtz
METHOD		rimp2
AUX_BASIS	rimp2-cc-pvtz
SOLVENT_METHOD	PCM
PURECART	11111
SYMMETRY	false
MEM_TOTAL	110000
SCF_CONVERGENCE = 6
THRESH=10
GUI = 2
$end

$solvent
dielectric 4.90
$end
--------------------------------------------------------------

             Standard Nuclear Orientation (Angstroms)
    I     Atom           X                Y                Z
 ----------------------------------------------------------------
    1      C       0.1268760000    -3.8878000000    -0.7132640000
    2      C      -0.1137840000    -3.7014560000     0.6512670000
    3      C      -0.1880430000    -2.3451700000     1.0687870000
    4      H      -0.2360190000    -4.5452330000     1.3467820000
    5      C       0.0000000000    -1.4501350000     0.0000000000
    6      S       0.2656120000    -2.3213340000    -1.5042470000
    7      C      -0.4393570000    -1.9344390000     2.4930590000
    8      H      -0.5543780000    -2.8197990000     3.1478090000
    9      H      -1.3628990000    -1.3262100000     2.5899870000
   10      H       0.3947860000    -1.3253740000     2.8998920000
   11      C       0.0000000000     0.0000000000     0.0000000000
   12      C      -0.0030810000     0.8446050000     1.1130200000
   13      C      -0.0077720000     2.2355750000     0.8205780000
   14      H      -0.0017430000     0.4565100000     2.1428810000
   15      C      -0.0084270000     2.4837260000    -0.5635880000
   16      S      -0.0036910000     0.9706070000    -1.4647480000
   17      C      -0.0113550000     3.3001810000     1.8823800000
   18      H      -0.0099220000     2.8522330000     2.8949740000
   19      H      -0.9059440000     3.9532250000     1.8081370000
   20      H       0.8789010000     3.9591330000     1.8082300000
   21      H      -0.0117270000     3.4417520000    -1.0971140000
   22      H      -0.6987440000    -4.4202190000    -1.1986470000
   23      H       1.0691930000    -4.4193950000    -0.8869330000
   24      H      -1.0635950000    -1.4506280000    -0.1875260000
 ----------------------------------------------------------------

   10   -1180.7577973273      5.06e-07  Convergence criterion met
 Total energy in the final basis set =    -1180.7577973273
        RIMP2         total energy =     -1182.7628658146 a.u.

                    Orbital Energies (a.u.)
 --------------------------------------------------------------

 Alpha MOs
 -- Occupied --
-91.9843 -91.9469 -11.2906 -11.2666 -11.2630 -11.2539 -11.2498 -11.2453
-11.2343 -11.2281 -11.2272 -11.2243  -8.9839  -8.9515  -6.6649  -6.6644
 -6.6637  -6.6329  -6.6319  -6.6306  -1.2020  -1.1524  -1.0596  -1.0321
 -1.0013  -0.9616  -0.9169  -0.8998  -0.8176  -0.7628  -0.7301  -0.7059
 -0.6565  -0.6479  -0.6109  -0.5948  -0.5845  -0.5687  -0.5622  -0.5503
 -0.5468  -0.5351  -0.5241  -0.5000  -0.4877  -0.4832  -0.4680  -0.4451
 -0.3609  -0.3435  -0.3249  -0.2649

          Ground-State Mulliken Net Atomic Charges

     Atom                 Charge (a.u.)
  ----------------------------------------
      1 C                    -0.071215
      2 C                    -0.313238
      3 C                    -0.047687
      4 H                     0.180233
      5 C                     0.128431
      6 S                    -0.178849
      7 C                    -0.303179
      8 H                     0.123100
      9 H                     0.111075
     10 H                     0.105416
     11 C                    -0.065171
     12 C                    -0.264295
     13 C                     0.031522
     14 H                     0.192758
     15 C                    -0.282405
     16 S                     0.001576
     17 C                    -0.273143
     18 H                     0.100417
     19 H                     0.108508
     20 H                     0.108623
     21 H                     0.197364
     22 H                     0.111174
     23 H                     0.114214
     24 H                     0.184772
  ----------------------------------------
  Sum of atomic charges =     0.000000

                    Cartesian Multipole Moments
 -----------------------------------------------------------------
    Charge (ESU x 10^10)
                -0.0000
    Dipole Moment (Debye)
         X      -1.2960      Y      -0.5106      Z       3.6091
       Tot       3.8685
    Quadrupole Moments (Debye-Ang)
        XX     -91.8912     XY       2.0490     YY     -72.6658
        XZ       0.1366     YZ      -2.0749     ZZ     -85.6233

 Total job time:  62.69s(wall), 1931.98s(cpu)
        *  Thank you very much for using Q-Chem.  Have a nice day.  *
