 Q-Chem 5.4, Q-Chem, Inc., Pleasanton, CA (2021)
 Q-Chem 5.4.0 for Intel X86 EM64T Linux

User input:
--------------------------------------------------------------
$molecule
0 1
C	0.681143	-3.887800	-0.246754
C	-0.620906	-3.701456	0.227093
C	-1.019618	-2.345170	0.371543
H	-1.284357	-4.545233	0.468992
C	0.000000	-1.450135	0.000000
S	1.435522	-2.321334	-0.522097
C	-2.378731	-1.934439	0.866035
H	-3.003272	-2.819799	1.093799
H	-2.924444	-1.326210	0.114688
H	-2.313987	-1.325374	1.791841
C	0.000000	0.000000	0.000000
C	0.729909	0.424971	1.113020
C	1.932179	1.124518	0.820578
H	0.394478	0.229765	2.142881
C	2.146756	1.249161	-0.563588
S	0.838724	0.488500	-1.464748
C	2.852364	1.659924	1.882380
H	2.465145	1.434710	2.894974
H	2.970621	2.761183	1.808137
H	3.868160	1.218416	1.808230
H	2.974781	1.731032	-1.097114
H	0.688686	-4.420219	-1.204454
H	1.302703	-4.419395	0.482482
H	-0.369395	-1.450628	-1.014863
$end

$rem
JOBTYPE		SP
EXCHANGE	HF
CORRELATION	pRIMP2
BASIS		cc-pvtz
METHOD		rimp2
AUX_BASIS	rimp2-cc-pvtz
SOLVENT_METHOD	PCM
PURECART	11111
SYMMETRY	false
MEM_TOTAL	110000
SCF_CONVERGENCE = 6
THRESH=10
GUI = 2
$end

$solvent
dielectric 4.90
$end
--------------------------------------------------------------

             Standard Nuclear Orientation (Angstroms)
    I     Atom           X                Y                Z
 ----------------------------------------------------------------
    1      C       0.6811430000    -3.8878000000    -0.2467540000
    2      C      -0.6209060000    -3.7014560000     0.2270930000
    3      C      -1.0196180000    -2.3451700000     0.3715430000
    4      H      -1.2843570000    -4.5452330000     0.4689920000
    5      C       0.0000000000    -1.4501350000     0.0000000000
    6      S       1.4355220000    -2.3213340000    -0.5220970000
    7      C      -2.3787310000    -1.9344390000     0.8660350000
    8      H      -3.0032720000    -2.8197990000     1.0937990000
    9      H      -2.9244440000    -1.3262100000     0.1146880000
   10      H      -2.3139870000    -1.3253740000     1.7918410000
   11      C       0.0000000000     0.0000000000     0.0000000000
   12      C       0.7299090000     0.4249710000     1.1130200000
   13      C       1.9321790000     1.1245180000     0.8205780000
   14      H       0.3944780000     0.2297650000     2.1428810000
   15      C       2.1467560000     1.2491610000    -0.5635880000
   16      S       0.8387240000     0.4885000000    -1.4647480000
   17      C       2.8523640000     1.6599240000     1.8823800000
   18      H       2.4651450000     1.4347100000     2.8949740000
   19      H       2.9706210000     2.7611830000     1.8081370000
   20      H       3.8681600000     1.2184160000     1.8082300000
   21      H       2.9747810000     1.7310320000    -1.0971140000
   22      H       0.6886860000    -4.4202190000    -1.2044540000
   23      H       1.3027030000    -4.4193950000     0.4824820000
   24      H      -0.3693950000    -1.4506280000    -1.0148630000
 ----------------------------------------------------------------

   10   -1180.6872746341      8.04e-07  Convergence criterion met
 Total energy in the final basis set =    -1180.6872746341
        RIMP2         total energy =     -1182.7074192016 a.u.

                    Orbital Energies (a.u.)
 --------------------------------------------------------------

 Alpha MOs
 -- Occupied --
-91.9811 -91.9310 -11.2908 -11.2595 -11.2550 -11.2519 -11.2491 -11.2460
-11.2350 -11.2300 -11.2284 -11.2108  -8.9820  -8.9363  -6.6628  -6.6620
 -6.6617  -6.6176  -6.6166  -6.6153  -1.2036  -1.1531  -1.0572  -1.0249
 -0.9992  -0.9652  -0.9079  -0.9014  -0.8081  -0.7562  -0.7498  -0.7036
 -0.6485  -0.6264  -0.6158  -0.5880  -0.5794  -0.5738  -0.5644  -0.5501
 -0.5404  -0.5327  -0.5051  -0.5042  -0.4895  -0.4694  -0.4557  -0.4398
 -0.3602  -0.3260  -0.3174  -0.2713

          Ground-State Mulliken Net Atomic Charges

     Atom                 Charge (a.u.)
  ----------------------------------------
      1 C                    -0.087325
      2 C                    -0.328815
      3 C                    -0.073243
      4 H                     0.173238
      5 C                     0.060743
      6 S                    -0.186581
      7 C                    -0.273072
      8 H                     0.111402
      9 H                     0.102975
     10 H                     0.102413
     11 C                    -0.178519
     12 C                    -0.073976
     13 C                    -0.026055
     14 H                     0.191204
     15 C                    -0.161774
     16 S                     0.022489
     17 C                    -0.269456
     18 H                     0.102687
     19 H                     0.107745
     20 H                     0.106671
     21 H                     0.203025
     22 H                     0.105317
     23 H                     0.109324
     24 H                     0.159583
  ----------------------------------------
  Sum of atomic charges =     0.000000

                    Cartesian Multipole Moments
 -----------------------------------------------------------------
    Charge (ESU x 10^10)
                -0.0000
    Dipole Moment (Debye)
         X       0.3923      Y       1.1336      Z       1.7700
       Tot       2.1382
    Quadrupole Moments (Debye-Ang)
        XX     -82.5835     XY       9.7972     YY     -84.4988
        XZ       0.2306     YZ       0.5067     ZZ     -84.7677

 Total job time:  59.23s(wall), 1953.55s(cpu)
        *  Thank you very much for using Q-Chem.  Have a nice day.  *
