 Q-Chem 5.4, Q-Chem, Inc., Pleasanton, CA (2021)
 Q-Chem 5.4.0 for Intel X86 EM64T Linux

User input:
--------------------------------------------------------------
$molecule
0 1
C	0.124726	-3.887800	0.713644
C	-0.115824	-3.701456	-0.650907
C	-0.188844	-2.345170	-1.068646
H	-0.238841	-4.545233	-1.346284
C	0.000000	-1.450135	0.000000
S	0.264890	-2.321334	1.504375
C	-0.439816	-1.934439	-2.492978
H	-0.555669	-2.819799	-3.147582
H	0.394879	-1.326210	-2.899931
H	-1.362799	-1.325374	-2.589982
C	0.000000	0.000000	0.000000
C	0.729909	0.424971	1.113020
C	1.932179	1.124518	0.820578
H	0.394478	0.229765	2.142881
C	2.146756	1.249161	-0.563588
S	0.838724	0.488500	-1.464748
C	2.852364	1.659924	1.882380
H	2.465145	1.434710	2.894974
H	2.970621	2.761183	1.808137
H	3.868160	1.218416	1.808230
H	2.974781	1.731032	-1.097114
H	1.066566	-4.420219	0.887375
H	-0.701364	-4.419395	1.199130
H	1.063590	-1.450628	-0.187554
$end

$rem
JOBTYPE		SP
EXCHANGE	HF
CORRELATION	pRIMP2
BASIS		cc-pvtz
METHOD		rimp2
AUX_BASIS	rimp2-cc-pvtz
SOLVENT_METHOD	PCM
PURECART	11111
SYMMETRY	false
MEM_TOTAL	110000
SCF_CONVERGENCE = 6
THRESH=10
GUI = 2
$end

$solvent
dielectric 4.90
$end
--------------------------------------------------------------

             Standard Nuclear Orientation (Angstroms)
    I     Atom           X                Y                Z
 ----------------------------------------------------------------
    1      C       0.1247260000    -3.8878000000     0.7136440000
    2      C      -0.1158240000    -3.7014560000    -0.6509070000
    3      C      -0.1888440000    -2.3451700000    -1.0686460000
    4      H      -0.2388410000    -4.5452330000    -1.3462840000
    5      C       0.0000000000    -1.4501350000     0.0000000000
    6      S       0.2648900000    -2.3213340000     1.5043750000
    7      C      -0.4398160000    -1.9344390000    -2.4929780000
    8      H      -0.5556690000    -2.8197990000    -3.1475820000
    9      H       0.3948790000    -1.3262100000    -2.8999310000
   10      H      -1.3627990000    -1.3253740000    -2.5899820000
   11      C       0.0000000000     0.0000000000     0.0000000000
   12      C       0.7299090000     0.4249710000     1.1130200000
   13      C       1.9321790000     1.1245180000     0.8205780000
   14      H       0.3944780000     0.2297650000     2.1428810000
   15      C       2.1467560000     1.2491610000    -0.5635880000
   16      S       0.8387240000     0.4885000000    -1.4647480000
   17      C       2.8523640000     1.6599240000     1.8823800000
   18      H       2.4651450000     1.4347100000     2.8949740000
   19      H       2.9706210000     2.7611830000     1.8081370000
   20      H       3.8681600000     1.2184160000     1.8082300000
   21      H       2.9747810000     1.7310320000    -1.0971140000
   22      H       1.0665660000    -4.4202190000     0.8873750000
   23      H      -0.7013640000    -4.4193950000     1.1991300000
   24      H       1.0635900000    -1.4506280000    -0.1875540000
 ----------------------------------------------------------------

   11   -1180.6799084773      5.62e-07  Convergence criterion met
 Total energy in the final basis set =    -1180.6799084773
        RIMP2         total energy =     -1182.7066671604 a.u.

                    Orbital Energies (a.u.)
 --------------------------------------------------------------

 Alpha MOs
 -- Occupied --
-91.9741 -91.9415 -11.2817 -11.2648 -11.2575 -11.2563 -11.2541 -11.2508
-11.2395 -11.2301 -11.2268 -11.2172  -8.9763  -8.9461  -6.6570  -6.6562
 -6.6557  -6.6274  -6.6264  -6.6252  -1.2120  -1.1535  -1.0617  -1.0279
 -1.0066  -0.9559  -0.9138  -0.9052  -0.8062  -0.7757  -0.7239  -0.7034
 -0.6586  -0.6460  -0.6149  -0.5890  -0.5860  -0.5740  -0.5706  -0.5510
 -0.5413  -0.5361  -0.5186  -0.5128  -0.4892  -0.4597  -0.4522  -0.4346
 -0.3594  -0.3383  -0.3296  -0.2604

          Ground-State Mulliken Net Atomic Charges

     Atom                 Charge (a.u.)
  ----------------------------------------
      1 C                    -0.080871
      2 C                    -0.320362
      3 C                    -0.059979
      4 H                     0.175976
      5 C                     0.106929
      6 S                    -0.202192
      7 C                    -0.293505
      8 H                     0.111910
      9 H                     0.111516
     10 H                     0.116286
     11 C                    -0.099232
     12 C                    -0.184343
     13 C                     0.003186
     14 H                     0.185944
     15 C                    -0.207411
     16 S                     0.010879
     17 C                    -0.266907
     18 H                     0.104509
     19 H                     0.108712
     20 H                     0.106888
     21 H                     0.200817
     22 H                     0.109160
     23 H                     0.112476
     24 H                     0.149612
  ----------------------------------------
  Sum of atomic charges =     0.000000

                    Cartesian Multipole Moments
 -----------------------------------------------------------------
    Charge (ESU x 10^10)
                -0.0000
    Dipole Moment (Debye)
         X       2.6561      Y       0.0819      Z      -0.8528
       Tot       2.7909
    Quadrupole Moments (Debye-Ang)
        XX     -82.7100     XY       4.6844     YY     -82.2133
        XZ       1.0256     YZ       4.4169     ZZ     -85.2745

 Total job time:  66.07s(wall), 2185.03s(cpu)
        *  Thank you very much for using Q-Chem.  Have a nice day.  *
