 Q-Chem 5.4, Q-Chem, Inc., Pleasanton, CA (2021)
 Q-Chem 5.4.0 for Intel X86 EM64T Linux

User input:
--------------------------------------------------------------
$molecule
0 1
C	-0.246754	-3.887800	-0.681143
C	0.227093	-3.701456	0.620906
C	0.371543	-2.345170	1.019618
H	0.468992	-4.545233	1.284357
C	0.000000	-1.450135	0.000000
S	-0.522097	-2.321334	-1.435522
C	0.866035	-1.934439	2.378731
H	1.093799	-2.819799	3.003272
H	0.114688	-1.326210	2.924444
H	1.791841	-1.325374	2.313987
C	0.000000	0.000000	0.000000
C	-0.003081	0.844605	1.113020
C	-0.007772	2.235575	0.820578
H	-0.001743	0.456510	2.142881
C	-0.008427	2.483726	-0.563588
S	-0.003691	0.970607	-1.464748
C	-0.011355	3.300181	1.882380
H	-0.009922	2.852233	2.894974
H	-0.905944	3.953225	1.808137
H	0.878901	3.959133	1.808230
H	-0.011727	3.441752	-1.097114
H	-1.204454	-4.420219	-0.688686
H	0.482482	-4.419395	-1.302703
H	-1.014863	-1.450628	0.369395
$end

$rem
JOBTYPE		SP
EXCHANGE	HF
CORRELATION	pRIMP2
BASIS		cc-pvtz
METHOD		rimp2
AUX_BASIS	rimp2-cc-pvtz
SOLVENT_METHOD	PCM
PURECART	11111
SYMMETRY	false
MEM_TOTAL	110000
SCF_CONVERGENCE = 6
THRESH=10
GUI = 2
$end

$solvent
dielectric 4.90
$end
--------------------------------------------------------------

             Standard Nuclear Orientation (Angstroms)
    I     Atom           X                Y                Z
 ----------------------------------------------------------------
    1      C      -0.2467540000    -3.8878000000    -0.6811430000
    2      C       0.2270930000    -3.7014560000     0.6209060000
    3      C       0.3715430000    -2.3451700000     1.0196180000
    4      H       0.4689920000    -4.5452330000     1.2843570000
    5      C       0.0000000000    -1.4501350000     0.0000000000
    6      S      -0.5220970000    -2.3213340000    -1.4355220000
    7      C       0.8660350000    -1.9344390000     2.3787310000
    8      H       1.0937990000    -2.8197990000     3.0032720000
    9      H       0.1146880000    -1.3262100000     2.9244440000
   10      H       1.7918410000    -1.3253740000     2.3139870000
   11      C       0.0000000000     0.0000000000     0.0000000000
   12      C      -0.0030810000     0.8446050000     1.1130200000
   13      C      -0.0077720000     2.2355750000     0.8205780000
   14      H      -0.0017430000     0.4565100000     2.1428810000
   15      C      -0.0084270000     2.4837260000    -0.5635880000
   16      S      -0.0036910000     0.9706070000    -1.4647480000
   17      C      -0.0113550000     3.3001810000     1.8823800000
   18      H      -0.0099220000     2.8522330000     2.8949740000
   19      H      -0.9059440000     3.9532250000     1.8081370000
   20      H       0.8789010000     3.9591330000     1.8082300000
   21      H      -0.0117270000     3.4417520000    -1.0971140000
   22      H      -1.2044540000    -4.4202190000    -0.6886860000
   23      H       0.4824820000    -4.4193950000    -1.3027030000
   24      H      -1.0148630000    -1.4506280000     0.3693950000
 ----------------------------------------------------------------

   10   -1180.7580219092      4.98e-07  Convergence criterion met
 Total energy in the final basis set =    -1180.7580219092
        RIMP2         total energy =     -1182.7636546370 a.u.

                    Orbital Energies (a.u.)
 --------------------------------------------------------------

 Alpha MOs
 -- Occupied --
-91.9844 -91.9464 -11.2904 -11.2662 -11.2619 -11.2539 -11.2503 -11.2447
-11.2339 -11.2286 -11.2284 -11.2236  -8.9839  -8.9510  -6.6648  -6.6643
 -6.6637  -6.6324  -6.6314  -6.6301  -1.2014  -1.1524  -1.0593  -1.0312
 -1.0021  -0.9610  -0.9160  -0.9000  -0.8177  -0.7623  -0.7261  -0.7074
 -0.6589  -0.6483  -0.6112  -0.5935  -0.5870  -0.5693  -0.5592  -0.5529
 -0.5430  -0.5345  -0.5226  -0.5011  -0.4871  -0.4834  -0.4676  -0.4450
 -0.3602  -0.3436  -0.3239  -0.2655

          Ground-State Mulliken Net Atomic Charges

     Atom                 Charge (a.u.)
  ----------------------------------------
      1 C                    -0.073171
      2 C                    -0.312724
      3 C                    -0.066718
      4 H                     0.179491
      5 C                     0.133544
      6 S                    -0.180817
      7 C                    -0.295783
      8 H                     0.121422
      9 H                     0.099031
     10 H                     0.118617
     11 C                    -0.057123
     12 C                    -0.268636
     13 C                     0.030973
     14 H                     0.189170
     15 C                    -0.279163
     16 S                     0.008989
     17 C                    -0.273347
     18 H                     0.100606
     19 H                     0.108624
     20 H                     0.108460
     21 H                     0.196337
     22 H                     0.112500
     23 H                     0.112615
     24 H                     0.187105
  ----------------------------------------
  Sum of atomic charges =     0.000000

                    Cartesian Multipole Moments
 -----------------------------------------------------------------
    Charge (ESU x 10^10)
                -0.0000
    Dipole Moment (Debye)
         X       0.0101      Y      -0.4319      Z       3.9369
       Tot       3.9606
    Quadrupole Moments (Debye-Ang)
        XX     -91.5370     XY       0.1892     YY     -73.0090
        XZ       0.3286     YZ      -2.6787     ZZ     -85.9496

 Total job time:  56.41s(wall), 1910.01s(cpu)
        *  Thank you very much for using Q-Chem.  Have a nice day.  *
