 Q-Chem 5.4, Q-Chem, Inc., Pleasanton, CA (2021)
 Q-Chem 5.4.0 for Intel X86 EM64T Linux

User input:
--------------------------------------------------------------
$molecule
0 1
C	0.674034	-3.828925	0.724460
C	0.641731	-3.645403	-0.661131
C	0.406834	-2.309612	-1.085203
H	0.787861	-4.476429	-1.367305
C	0.251813	-1.428104	0.000000
S	0.402734	-2.286131	1.527517
C	0.335682	-1.905091	-2.531478
H	0.489007	-2.777074	-3.196254
H	1.109183	-1.151090	-2.787305
H	-0.648644	-1.460194	-2.787282
C	0.000000	0.000000	0.000000
C	0.645024	0.545262	1.113020
C	1.707554	1.442954	0.820578
H	0.348587	0.294774	2.142881
C	1.897227	1.602964	-0.563588
S	0.741155	0.626722	-1.464748
C	2.520787	2.130014	1.882380
H	2.178559	1.840981	2.894974
H	2.446016	3.235078	1.808137
H	3.597818	1.871604	1.808230
H	2.628997	2.221299	-1.097114
H	1.650218	-4.197430	1.059101
H	-0.117859	-4.508353	1.059122
H	1.315491	-1.241050	-0.000014
$end

$rem
JOBTYPE		SP
EXCHANGE	HF
CORRELATION	pRIMP2
BASIS		cc-pvtz
METHOD		rimp2
AUX_BASIS	rimp2-cc-pvtz
SOLVENT_METHOD	PCM
PURECART	11111
SYMMETRY	false
MEM_TOTAL	110000
SCF_CONVERGENCE = 6
THRESH=10
GUI = 2
$end

$solvent
dielectric 4.90
$end
--------------------------------------------------------------

             Standard Nuclear Orientation (Angstroms)
    I     Atom           X                Y                Z
 ----------------------------------------------------------------
    1      C       0.6740340000    -3.8289250000     0.7244600000
    2      C       0.6417310000    -3.6454030000    -0.6611310000
    3      C       0.4068340000    -2.3096120000    -1.0852030000
    4      H       0.7878610000    -4.4764290000    -1.3673050000
    5      C       0.2518130000    -1.4281040000     0.0000000000
    6      S       0.4027340000    -2.2861310000     1.5275170000
    7      C       0.3356820000    -1.9050910000    -2.5314780000
    8      H       0.4890070000    -2.7770740000    -3.1962540000
    9      H       1.1091830000    -1.1510900000    -2.7873050000
   10      H      -0.6486440000    -1.4601940000    -2.7872820000
   11      C       0.0000000000     0.0000000000     0.0000000000
   12      C       0.6450240000     0.5452620000     1.1130200000
   13      C       1.7075540000     1.4429540000     0.8205780000
   14      H       0.3485870000     0.2947740000     2.1428810000
   15      C       1.8972270000     1.6029640000    -0.5635880000
   16      S       0.7411550000     0.6267220000    -1.4647480000
   17      C       2.5207870000     2.1300140000     1.8823800000
   18      H       2.1785590000     1.8409810000     2.8949740000
   19      H       2.4460160000     3.2350780000     1.8081370000
   20      H       3.5978180000     1.8716040000     1.8082300000
   21      H       2.6289970000     2.2212990000    -1.0971140000
   22      H       1.6502180000    -4.1974300000     1.0591010000
   23      H      -0.1178590000    -4.5083530000     1.0591220000
   24      H       1.3154910000    -1.2410500000    -0.0000140000
 ----------------------------------------------------------------

   11   -1180.6710117051      6.03e-07  Convergence criterion met
 Total energy in the final basis set =    -1180.6710117051
        RIMP2         total energy =     -1182.7005384434 a.u.

                    Orbital Energies (a.u.)
 --------------------------------------------------------------

 Alpha MOs
 -- Occupied --
-91.9752 -91.9407 -11.2818 -11.2641 -11.2582 -11.2571 -11.2536 -11.2489
-11.2398 -11.2300 -11.2253 -11.2162  -8.9775  -8.9455  -6.6581  -6.6573
 -6.6569  -6.6268  -6.6258  -6.6246  -1.2121  -1.1532  -1.0615  -1.0290
 -1.0067  -0.9550  -0.9131  -0.9066  -0.8051  -0.7757  -0.7235  -0.7032
 -0.6614  -0.6455  -0.6144  -0.5887  -0.5869  -0.5738  -0.5708  -0.5521
 -0.5403  -0.5356  -0.5191  -0.5155  -0.4900  -0.4590  -0.4473  -0.4347
 -0.3567  -0.3369  -0.3289  -0.2604

          Ground-State Mulliken Net Atomic Charges

     Atom                 Charge (a.u.)
  ----------------------------------------
      1 C                    -0.077614
      2 C                    -0.326296
      3 C                    -0.051711
      4 H                     0.176307
      5 C                     0.098454
      6 S                    -0.207988
      7 C                    -0.288487
      8 H                     0.109512
      9 H                     0.113390
     10 H                     0.114592
     11 C                    -0.106169
     12 C                    -0.172453
     13 C                    -0.004196
     14 H                     0.184959
     15 C                    -0.212680
     16 S                     0.027527
     17 C                    -0.266484
     18 H                     0.104418
     19 H                     0.108256
     20 H                     0.105802
     21 H                     0.200697
     22 H                     0.109220
     23 H                     0.112618
     24 H                     0.148326
  ----------------------------------------
  Sum of atomic charges =     0.000000

                    Cartesian Multipole Moments
 -----------------------------------------------------------------
    Charge (ESU x 10^10)
                -0.0000
    Dipole Moment (Debye)
         X       3.0390      Y       0.6851      Z      -0.9746
       Tot       3.2641
    Quadrupole Moments (Debye-Ang)
        XX     -84.2188     XY       3.7567     YY     -81.3245
        XZ       0.0846     YZ       4.0596     ZZ     -84.9670

 Total job time:  97.62s(wall), 2451.77s(cpu)
        *  Thank you very much for using Q-Chem.  Have a nice day.  *
