 Q-Chem 5.4, Q-Chem, Inc., Pleasanton, CA (2021)
 Q-Chem 5.4.0 for Intel X86 EM64T Linux

User input:
--------------------------------------------------------------
$molecule
0 1
C	0.627947	-3.887800	-0.361285
C	-0.572038	-3.701456	0.331462
C	-0.939610	-2.345170	0.542953
H	-1.183405	-4.545233	0.684893
C	0.000000	-1.450135	0.000000
S	1.323052	-2.321334	-0.763441
C	-2.192207	-1.934439	1.265941
H	-2.767709	-2.819799	1.598695
H	-2.860100	-1.326210	0.620770
H	-1.967682	-1.325374	2.166438
C	0.000000	0.000000	0.000000
C	0.645024	0.545262	1.113020
C	1.707554	1.442954	0.820578
H	0.348587	0.294774	2.142881
C	1.897227	1.602964	-0.563588
S	0.741155	0.626722	-1.464748
C	2.520787	2.130014	1.882380
H	2.178559	1.840981	2.894974
H	2.446016	3.235078	1.808137
H	3.597818	1.871604	1.808230
H	2.628997	2.221299	-1.097114
H	0.469073	-4.420219	-1.305744
H	1.366694	-4.419395	0.248940
H	-0.540012	-1.450628	-0.935300
$end

$rem
JOBTYPE		SP
EXCHANGE	HF
CORRELATION	pRIMP2
BASIS		cc-pvtz
METHOD		rimp2
AUX_BASIS	rimp2-cc-pvtz
SOLVENT_METHOD	PCM
PURECART	11111
SYMMETRY	false
MEM_TOTAL	110000
SCF_CONVERGENCE = 6
THRESH=10
GUI = 2
$end

$solvent
dielectric 4.90
$end
--------------------------------------------------------------

             Standard Nuclear Orientation (Angstroms)
    I     Atom           X                Y                Z
 ----------------------------------------------------------------
    1      C       0.6279470000    -3.8878000000    -0.3612850000
    2      C      -0.5720380000    -3.7014560000     0.3314620000
    3      C      -0.9396100000    -2.3451700000     0.5429530000
    4      H      -1.1834050000    -4.5452330000     0.6848930000
    5      C       0.0000000000    -1.4501350000     0.0000000000
    6      S       1.3230520000    -2.3213340000    -0.7634410000
    7      C      -2.1922070000    -1.9344390000     1.2659410000
    8      H      -2.7677090000    -2.8197990000     1.5986950000
    9      H      -2.8601000000    -1.3262100000     0.6207700000
   10      H      -1.9676820000    -1.3253740000     2.1664380000
   11      C       0.0000000000     0.0000000000     0.0000000000
   12      C       0.6450240000     0.5452620000     1.1130200000
   13      C       1.7075540000     1.4429540000     0.8205780000
   14      H       0.3485870000     0.2947740000     2.1428810000
   15      C       1.8972270000     1.6029640000    -0.5635880000
   16      S       0.7411550000     0.6267220000    -1.4647480000
   17      C       2.5207870000     2.1300140000     1.8823800000
   18      H       2.1785590000     1.8409810000     2.8949740000
   19      H       2.4460160000     3.2350780000     1.8081370000
   20      H       3.5978180000     1.8716040000     1.8082300000
   21      H       2.6289970000     2.2212990000    -1.0971140000
   22      H       0.4690730000    -4.4202190000    -1.3057440000
   23      H       1.3666940000    -4.4193950000     0.2489400000
   24      H      -0.5400120000    -1.4506280000    -0.9353000000
 ----------------------------------------------------------------

   10   -1180.7091660134      7.23e-07  Convergence criterion met
 Total energy in the final basis set =    -1180.7091660134
        RIMP2         total energy =     -1182.7252405872 a.u.

                    Orbital Energies (a.u.)
 --------------------------------------------------------------

 Alpha MOs
 -- Occupied --
-91.9828 -91.9351 -11.2825 -11.2576 -11.2568 -11.2523 -11.2513 -11.2495
-11.2363 -11.2298 -11.2297 -11.2130  -8.9833  -8.9400  -6.6641  -6.6634
 -6.6630  -6.6213  -6.6203  -6.6190  -1.1995  -1.1537  -1.0562  -1.0263
 -0.9988  -0.9650  -0.9085  -0.9016  -0.8102  -0.7547  -0.7474  -0.7035
 -0.6497  -0.6290  -0.6133  -0.5877  -0.5804  -0.5719  -0.5653  -0.5511
 -0.5412  -0.5318  -0.5082  -0.5059  -0.4892  -0.4705  -0.4593  -0.4443
 -0.3561  -0.3338  -0.3189  -0.2689

          Ground-State Mulliken Net Atomic Charges

     Atom                 Charge (a.u.)
  ----------------------------------------
      1 C                    -0.082145
      2 C                    -0.329971
      3 C                    -0.056797
      4 H                     0.173637
      5 C                     0.057123
      6 S                    -0.178465
      7 C                    -0.274299
      8 H                     0.112653
      9 H                     0.103835
     10 H                     0.102888
     11 C                    -0.145704
     12 C                    -0.122050
     13 C                    -0.010876
     14 H                     0.191928
     15 C                    -0.182975
     16 S                     0.014155
     17 C                    -0.269377
     18 H                     0.102183
     19 H                     0.107480
     20 H                     0.107133
     21 H                     0.201898
     22 H                     0.105429
     23 H                     0.109480
     24 H                     0.162837
  ----------------------------------------
  Sum of atomic charges =     0.000000

                    Cartesian Multipole Moments
 -----------------------------------------------------------------
    Charge (ESU x 10^10)
                -0.0000
    Dipole Moment (Debye)
         X      -0.2397      Y       1.1368      Z       2.1120
       Tot       2.4104
    Quadrupole Moments (Debye-Ang)
        XX     -85.0019     XY      10.0900     YY     -81.7996
        XZ       0.3411     YZ      -0.0872     ZZ     -85.0525

 Total job time:  54.16s(wall), 1917.50s(cpu)
        *  Thank you very much for using Q-Chem.  Have a nice day.  *
