 Q-Chem 5.4, Q-Chem, Inc., Pleasanton, CA (2021)
 Q-Chem 5.4.0 for Intel X86 EM64T Linux

User input:
--------------------------------------------------------------
$molecule
0 1
C	0.464838	-3.887800	0.555670
C	-0.425760	-3.701456	-0.505790
C	-0.697866	-2.345170	-0.831053
H	-0.879984	-4.545233	-1.046496
C	0.000000	-1.450135	0.000000
S	0.981588	-2.321334	1.170382
C	-1.627381	-1.934439	-1.939074
H	-2.055015	-2.819799	-2.448051
H	-1.107991	-1.326210	-2.708853
H	-2.475210	-1.325374	-1.561590
C	0.000000	0.000000	0.000000
C	0.419634	0.732990	1.113020
C	1.111057	1.939951	0.820578
H	0.226746	0.396221	2.142881
C	1.234565	2.155183	-0.563588
S	0.482106	0.842416	-1.464748
C	1.640257	2.863718	1.882380
H	1.417524	2.475067	2.894974
H	1.192042	3.876565	1.808137
H	2.740717	2.989259	1.808230
H	1.710720	2.986508	-1.097114
H	1.367361	-4.420219	0.235206
H	-0.007834	-4.419395	1.389159
H	0.827319	-1.450628	-0.694221
$end

$rem
JOBTYPE		SP
EXCHANGE	HF
CORRELATION	pRIMP2
BASIS		cc-pvtz
METHOD		rimp2
AUX_BASIS	rimp2-cc-pvtz
SOLVENT_METHOD	PCM
PURECART	11111
SYMMETRY	false
MEM_TOTAL	110000
SCF_CONVERGENCE = 6
THRESH=10
GUI = 2
$end

$solvent
dielectric 4.90
$end
--------------------------------------------------------------

             Standard Nuclear Orientation (Angstroms)
    I     Atom           X                Y                Z
 ----------------------------------------------------------------
    1      C       0.4648380000    -3.8878000000     0.5556700000
    2      C      -0.4257600000    -3.7014560000    -0.5057900000
    3      C      -0.6978660000    -2.3451700000    -0.8310530000
    4      H      -0.8799840000    -4.5452330000    -1.0464960000
    5      C       0.0000000000    -1.4501350000     0.0000000000
    6      S       0.9815880000    -2.3213340000     1.1703820000
    7      C      -1.6273810000    -1.9344390000    -1.9390740000
    8      H      -2.0550150000    -2.8197990000    -2.4480510000
    9      H      -1.1079910000    -1.3262100000    -2.7088530000
   10      H      -2.4752100000    -1.3253740000    -1.5615900000
   11      C       0.0000000000     0.0000000000     0.0000000000
   12      C       0.4196340000     0.7329900000     1.1130200000
   13      C       1.1110570000     1.9399510000     0.8205780000
   14      H       0.2267460000     0.3962210000     2.1428810000
   15      C       1.2345650000     2.1551830000    -0.5635880000
   16      S       0.4821060000     0.8424160000    -1.4647480000
   17      C       1.6402570000     2.8637180000     1.8823800000
   18      H       1.4175240000     2.4750670000     2.8949740000
   19      H       1.1920420000     3.8765650000     1.8081370000
   20      H       2.7407170000     2.9892590000     1.8082300000
   21      H       1.7107200000     2.9865080000    -1.0971140000
   22      H       1.3673610000    -4.4202190000     0.2352060000
   23      H      -0.0078340000    -4.4193950000     1.3891590000
   24      H       0.8273190000    -1.4506280000    -0.6942210000
 ----------------------------------------------------------------

   10   -1180.7460852543      5.12e-07  Convergence criterion met
 Total energy in the final basis set =    -1180.7460852543
        RIMP2         total energy =     -1182.7536928567 a.u.

                    Orbital Energies (a.u.)
 --------------------------------------------------------------

 Alpha MOs
 -- Occupied --
-91.9805 -91.9440 -11.2814 -11.2643 -11.2606 -11.2572 -11.2510 -11.2414
-11.2386 -11.2323 -11.2285 -11.2200  -8.9811  -8.9483  -6.6620  -6.6614
 -6.6608  -6.6297  -6.6287  -6.6274  -1.2011  -1.1535  -1.0591  -1.0265
 -1.0047  -0.9590  -0.9149  -0.9010  -0.8115  -0.7695  -0.7269  -0.7032
 -0.6550  -0.6410  -0.6117  -0.5909  -0.5771  -0.5752  -0.5690  -0.5526
 -0.5419  -0.5336  -0.5137  -0.5082  -0.4875  -0.4799  -0.4613  -0.4459
 -0.3562  -0.3436  -0.3243  -0.2679

          Ground-State Mulliken Net Atomic Charges

     Atom                 Charge (a.u.)
  ----------------------------------------
      1 C                    -0.076335
      2 C                    -0.318998
      3 C                    -0.051757
      4 H                     0.176612
      5 C                     0.100204
      6 S                    -0.181234
      7 C                    -0.283806
      8 H                     0.116216
      9 H                     0.104477
     10 H                     0.111812
     11 C                    -0.016686
     12 C                    -0.325540
     13 C                     0.059555
     14 H                     0.185382
     15 C                    -0.253161
     16 S                     0.004289
     17 C                    -0.269600
     18 H                     0.103260
     19 H                     0.108401
     20 H                     0.108726
     21 H                     0.196931
     22 H                     0.110943
     23 H                     0.109530
     24 H                     0.180779
  ----------------------------------------
  Sum of atomic charges =     0.000000

                    Cartesian Multipole Moments
 -----------------------------------------------------------------
    Charge (ESU x 10^10)
                -0.0000
    Dipole Moment (Debye)
         X      -0.0297      Y       0.1752      Z      -0.7459
       Tot       0.7668
    Quadrupole Moments (Debye-Ang)
        XX     -88.6840     XY       5.8785     YY     -76.1264
        XZ       0.8149     YZ       4.8772     ZZ     -86.1062

 Total job time:  54.38s(wall), 1875.22s(cpu)
        *  Thank you very much for using Q-Chem.  Have a nice day.  *
