 Q-Chem 5.4, Q-Chem, Inc., Pleasanton, CA (2021)
 Q-Chem 5.4.0 for Intel X86 EM64T Linux

User input:
--------------------------------------------------------------
$molecule
0 1
C	-0.555670	-3.887800	0.464838
C	0.505790	-3.701456	-0.425760
C	0.831053	-2.345170	-0.697866
H	1.046496	-4.545233	-0.879984
C	0.000000	-1.450135	0.000000
S	-1.170382	-2.321334	0.981588
C	1.939074	-1.934439	-1.627381
H	2.448051	-2.819799	-2.055015
H	2.708853	-1.326210	-1.107991
H	1.561590	-1.325374	-2.475210
C	0.000000	0.000000	0.000000
C	0.354153	0.766774	1.113020
C	0.937751	2.029404	0.820578
H	0.191350	0.414475	2.142881
C	1.042030	2.254581	-0.563588
S	0.406851	0.881228	-1.464748
C	1.384426	2.995779	1.882380
H	1.196413	2.589194	2.894974
H	0.849641	3.965707	1.808137
H	2.469756	3.216753	1.808230
H	1.443919	3.124243	-1.097114
H	-0.235206	-4.420219	1.367361
H	-1.389159	-4.419395	-0.007834
H	0.694221	-1.450628	0.827319
$end

$rem
JOBTYPE		SP
EXCHANGE	HF
CORRELATION	pRIMP2
BASIS		cc-pvtz
METHOD		rimp2
AUX_BASIS	rimp2-cc-pvtz
SOLVENT_METHOD	PCM
PURECART	11111
SYMMETRY	false
MEM_TOTAL	110000
SCF_CONVERGENCE = 6
THRESH=10
GUI = 2
$end

$solvent
dielectric 4.90
$end
--------------------------------------------------------------

             Standard Nuclear Orientation (Angstroms)
    I     Atom           X                Y                Z
 ----------------------------------------------------------------
    1      C      -0.5556700000    -3.8878000000     0.4648380000
    2      C       0.5057900000    -3.7014560000    -0.4257600000
    3      C       0.8310530000    -2.3451700000    -0.6978660000
    4      H       1.0464960000    -4.5452330000    -0.8799840000
    5      C       0.0000000000    -1.4501350000     0.0000000000
    6      S      -1.1703820000    -2.3213340000     0.9815880000
    7      C       1.9390740000    -1.9344390000    -1.6273810000
    8      H       2.4480510000    -2.8197990000    -2.0550150000
    9      H       2.7088530000    -1.3262100000    -1.1079910000
   10      H       1.5615900000    -1.3253740000    -2.4752100000
   11      C       0.0000000000     0.0000000000     0.0000000000
   12      C       0.3541530000     0.7667740000     1.1130200000
   13      C       0.9377510000     2.0294040000     0.8205780000
   14      H       0.1913500000     0.4144750000     2.1428810000
   15      C       1.0420300000     2.2545810000    -0.5635880000
   16      S       0.4068510000     0.8812280000    -1.4647480000
   17      C       1.3844260000     2.9957790000     1.8823800000
   18      H       1.1964130000     2.5891940000     2.8949740000
   19      H       0.8496410000     3.9657070000     1.8081370000
   20      H       2.4697560000     3.2167530000     1.8082300000
   21      H       1.4439190000     3.1242430000    -1.0971140000
   22      H      -0.2352060000    -4.4202190000     1.3673610000
   23      H      -1.3891590000    -4.4193950000    -0.0078340000
   24      H       0.6942210000    -1.4506280000     0.8273190000
 ----------------------------------------------------------------

   10   -1180.7445343193      5.64e-07  Convergence criterion met
 Total energy in the final basis set =    -1180.7445343193
        RIMP2         total energy =     -1182.7547347153 a.u.

                    Orbital Energies (a.u.)
 --------------------------------------------------------------

 Alpha MOs
 -- Occupied --
-91.9824 -91.9410 -11.2821 -11.2633 -11.2626 -11.2559 -11.2510 -11.2413
-11.2381 -11.2294 -11.2291 -11.2192  -8.9824  -8.9457  -6.6632  -6.6627
 -6.6622  -6.6271  -6.6261  -6.6248  -1.1997  -1.1530  -1.0580  -1.0244
 -1.0078  -0.9574  -0.9118  -0.9022  -0.8112  -0.7668  -0.7288  -0.7002
 -0.6615  -0.6416  -0.6104  -0.5855  -0.5804  -0.5738  -0.5679  -0.5522
 -0.5419  -0.5302  -0.5153  -0.5074  -0.4936  -0.4747  -0.4570  -0.4479
 -0.3550  -0.3432  -0.3193  -0.2681

          Ground-State Mulliken Net Atomic Charges

     Atom                 Charge (a.u.)
  ----------------------------------------
      1 C                    -0.071799
      2 C                    -0.326657
      3 C                    -0.027841
      4 H                     0.178089
      5 C                     0.054066
      6 S                    -0.183578
      7 C                    -0.282071
      8 H                     0.113553
      9 H                     0.111543
     10 H                     0.110823
     11 C                    -0.041167
     12 C                    -0.256184
     13 C                     0.026158
     14 H                     0.182893
     15 C                    -0.248505
     16 S                     0.011103
     17 C                    -0.270138
     18 H                     0.102737
     19 H                     0.108386
     20 H                     0.107073
     21 H                     0.196974
     22 H                     0.109361
     23 H                     0.111622
     24 H                     0.183559
  ----------------------------------------
  Sum of atomic charges =     0.000000

                    Cartesian Multipole Moments
 -----------------------------------------------------------------
    Charge (ESU x 10^10)
                -0.0000
    Dipole Moment (Debye)
         X       3.1915      Y       0.3124      Z       0.4202
       Tot       3.2341
    Quadrupole Moments (Debye-Ang)
        XX     -90.2509     XY       0.2062     YY     -76.3355
        XZ       0.3662     YZ       2.3944     ZZ     -85.3861

 Total job time:  54.17s(wall), 1908.52s(cpu)
        *  Thank you very much for using Q-Chem.  Have a nice day.  *
