 Q-Chem 5.4, Q-Chem, Inc., Pleasanton, CA (2021)
 Q-Chem 5.4.0 for Intel X86 EM64T Linux

User input:
--------------------------------------------------------------
$molecule
0 1
C	0.124726	-3.887800	0.713644
C	-0.115824	-3.701456	-0.650907
C	-0.188844	-2.345170	-1.068646
H	-0.238841	-4.545233	-1.346284
C	0.000000	-1.450135	0.000000
S	0.264890	-2.321334	1.504375
C	-0.439816	-1.934439	-2.492978
H	-0.555669	-2.819799	-3.147582
H	0.394879	-1.326210	-2.899931
H	-1.362799	-1.325374	-2.589982
C	0.000000	0.000000	0.000000
C	-0.003081	0.844605	1.113020
C	-0.007772	2.235575	0.820578
H	-0.001743	0.456510	2.142881
C	-0.008427	2.483726	-0.563588
S	-0.003691	0.970607	-1.464748
C	-0.011355	3.300181	1.882380
H	-0.009922	2.852233	2.894974
H	-0.905944	3.953225	1.808137
H	0.878901	3.959133	1.808230
H	-0.011727	3.441752	-1.097114
H	1.066566	-4.420219	0.887375
H	-0.701364	-4.419395	1.199130
H	1.063590	-1.450628	-0.187554
$end

$rem
JOBTYPE		SP
EXCHANGE	HF
CORRELATION	pRIMP2
BASIS		cc-pvtz
METHOD		rimp2
AUX_BASIS	rimp2-cc-pvtz
SOLVENT_METHOD	PCM
PURECART	11111
SYMMETRY	false
MEM_TOTAL	110000
SCF_CONVERGENCE = 6
THRESH=10
GUI = 2
$end

$solvent
dielectric 4.90
$end
--------------------------------------------------------------

             Standard Nuclear Orientation (Angstroms)
    I     Atom           X                Y                Z
 ----------------------------------------------------------------
    1      C       0.1247260000    -3.8878000000     0.7136440000
    2      C      -0.1158240000    -3.7014560000    -0.6509070000
    3      C      -0.1888440000    -2.3451700000    -1.0686460000
    4      H      -0.2388410000    -4.5452330000    -1.3462840000
    5      C       0.0000000000    -1.4501350000     0.0000000000
    6      S       0.2648900000    -2.3213340000     1.5043750000
    7      C      -0.4398160000    -1.9344390000    -2.4929780000
    8      H      -0.5556690000    -2.8197990000    -3.1475820000
    9      H       0.3948790000    -1.3262100000    -2.8999310000
   10      H      -1.3627990000    -1.3253740000    -2.5899820000
   11      C       0.0000000000     0.0000000000     0.0000000000
   12      C      -0.0030810000     0.8446050000     1.1130200000
   13      C      -0.0077720000     2.2355750000     0.8205780000
   14      H      -0.0017430000     0.4565100000     2.1428810000
   15      C      -0.0084270000     2.4837260000    -0.5635880000
   16      S      -0.0036910000     0.9706070000    -1.4647480000
   17      C      -0.0113550000     3.3001810000     1.8823800000
   18      H      -0.0099220000     2.8522330000     2.8949740000
   19      H      -0.9059440000     3.9532250000     1.8081370000
   20      H       0.8789010000     3.9591330000     1.8082300000
   21      H      -0.0117270000     3.4417520000    -1.0971140000
   22      H       1.0665660000    -4.4202190000     0.8873750000
   23      H      -0.7013640000    -4.4193950000     1.1991300000
   24      H       1.0635900000    -1.4506280000    -0.1875540000
 ----------------------------------------------------------------

   10   -1180.7602593869      5.03e-07  Convergence criterion met
 Total energy in the final basis set =    -1180.7602593869
        RIMP2         total energy =     -1182.7652021223 a.u.

                    Orbital Energies (a.u.)
 --------------------------------------------------------------

 Alpha MOs
 -- Occupied --
-91.9819 -91.9477 -11.2907 -11.2659 -11.2630 -11.2538 -11.2498 -11.2449
-11.2329 -11.2299 -11.2275 -11.2232  -8.9819  -8.9521  -6.6629  -6.6623
 -6.6616  -6.6335  -6.6325  -6.6312  -1.2020  -1.1524  -1.0601  -1.0282
 -1.0067  -0.9567  -0.9167  -0.9017  -0.8146  -0.7717  -0.7177  -0.7051
 -0.6586  -0.6482  -0.6113  -0.5928  -0.5814  -0.5716  -0.5683  -0.5535
 -0.5419  -0.5336  -0.5160  -0.5089  -0.4884  -0.4877  -0.4583  -0.4461
 -0.3594  -0.3417  -0.3268  -0.2659

          Ground-State Mulliken Net Atomic Charges

     Atom                 Charge (a.u.)
  ----------------------------------------
      1 C                    -0.072602
      2 C                    -0.317212
      3 C                    -0.061321
      4 H                     0.180162
      5 C                     0.163728
      6 S                    -0.183906
      7 C                    -0.309619
      8 H                     0.122019
      9 H                     0.107234
     10 H                     0.119352
     11 C                    -0.042834
     12 C                    -0.306173
     13 C                     0.041817
     14 H                     0.177814
     15 C                    -0.279353
     16 S                     0.005459
     17 C                    -0.272507
     18 H                     0.102838
     19 H                     0.108259
     20 H                     0.108498
     21 H                     0.197075
     22 H                     0.112366
     23 H                     0.112789
     24 H                     0.186116
  ----------------------------------------
  Sum of atomic charges =     0.000000

                    Cartesian Multipole Moments
 -----------------------------------------------------------------
    Charge (ESU x 10^10)
                -0.0000
    Dipole Moment (Debye)
         X       0.4155      Y      -0.4678      Z      -1.1891
       Tot       1.3437
    Quadrupole Moments (Debye-Ang)
        XX     -91.7043     XY      -0.8827     YY     -72.9792
        XZ       0.4192     YZ       5.1155     ZZ     -85.6140

 Total job time:  53.26s(wall), 1792.16s(cpu)
        *  Thank you very much for using Q-Chem.  Have a nice day.  *
