 Q-Chem 5.4, Q-Chem, Inc., Pleasanton, CA (2021)
 Q-Chem 5.4.0 for Intel X86 EM64T Linux

User input:
--------------------------------------------------------------
$molecule
0 1
C	-0.124726	-3.887800	-0.713644
C	0.115824	-3.701456	0.650907
C	0.188844	-2.345170	1.068646
H	0.238841	-4.545233	1.346284
C	0.000000	-1.450135	0.000000
S	-0.264890	-2.321334	-1.504375
C	0.439816	-1.934439	2.492978
H	0.555669	-2.819799	3.147582
H	-0.394879	-1.326210	2.899931
H	1.362799	-1.325374	2.589982
C	0.000000	0.000000	0.000000
C	0.143630	0.832309	1.113020
C	0.380550	2.202961	0.820578
H	0.077556	0.449877	2.142881
C	0.422995	2.447456	-0.563588
S	0.164909	0.956502	-1.464748
C	0.561888	3.252016	1.882380
H	0.485513	2.810624	2.894974
H	-0.205711	4.050482	1.808137
H	1.553045	3.746365	1.808230
H	0.586105	3.391501	-1.097114
H	-1.066566	-4.420219	-0.887375
H	0.701364	-4.419395	-1.199130
H	-1.063590	-1.450628	0.187554
$end

$rem
JOBTYPE		SP
EXCHANGE	HF
CORRELATION	pRIMP2
BASIS		cc-pvtz
METHOD		rimp2
AUX_BASIS	rimp2-cc-pvtz
SOLVENT_METHOD	PCM
PURECART	11111
SYMMETRY	false
MEM_TOTAL	110000
SCF_CONVERGENCE = 6
THRESH=10
GUI = 2
$end

$solvent
dielectric 4.90
$end
--------------------------------------------------------------

             Standard Nuclear Orientation (Angstroms)
    I     Atom           X                Y                Z
 ----------------------------------------------------------------
    1      C      -0.1247260000    -3.8878000000    -0.7136440000
    2      C       0.1158240000    -3.7014560000     0.6509070000
    3      C       0.1888440000    -2.3451700000     1.0686460000
    4      H       0.2388410000    -4.5452330000     1.3462840000
    5      C       0.0000000000    -1.4501350000     0.0000000000
    6      S      -0.2648900000    -2.3213340000    -1.5043750000
    7      C       0.4398160000    -1.9344390000     2.4929780000
    8      H       0.5556690000    -2.8197990000     3.1475820000
    9      H      -0.3948790000    -1.3262100000     2.8999310000
   10      H       1.3627990000    -1.3253740000     2.5899820000
   11      C       0.0000000000     0.0000000000     0.0000000000
   12      C       0.1436300000     0.8323090000     1.1130200000
   13      C       0.3805500000     2.2029610000     0.8205780000
   14      H       0.0775560000     0.4498770000     2.1428810000
   15      C       0.4229950000     2.4474560000    -0.5635880000
   16      S       0.1649090000     0.9565020000    -1.4647480000
   17      C       0.5618880000     3.2520160000     1.8823800000
   18      H       0.4855130000     2.8106240000     2.8949740000
   19      H      -0.2057110000     4.0504820000     1.8081370000
   20      H       1.5530450000     3.7463650000     1.8082300000
   21      H       0.5861050000     3.3915010000    -1.0971140000
   22      H      -1.0665660000    -4.4202190000    -0.8873750000
   23      H       0.7013640000    -4.4193950000    -1.1991300000
   24      H      -1.0635900000    -1.4506280000     0.1875540000
 ----------------------------------------------------------------

   10   -1180.7536508096      5.03e-07  Convergence criterion met
 Total energy in the final basis set =    -1180.7536508096
        RIMP2         total energy =     -1182.7603950352 a.u.

                    Orbital Energies (a.u.)
 --------------------------------------------------------------

 Alpha MOs
 -- Occupied --
-91.9840 -91.9467 -11.2894 -11.2666 -11.2618 -11.2542 -11.2499 -11.2450
-11.2341 -11.2283 -11.2282 -11.2235  -8.9835  -8.9513  -6.6645  -6.6639
 -6.6633  -6.6327  -6.6317  -6.6304  -1.2016  -1.1523  -1.0593  -1.0318
 -1.0016  -0.9613  -0.9167  -0.8998  -0.8176  -0.7625  -0.7267  -0.7079
 -0.6570  -0.6486  -0.6109  -0.5944  -0.5870  -0.5690  -0.5595  -0.5514
 -0.5441  -0.5353  -0.5244  -0.5007  -0.4859  -0.4819  -0.4681  -0.4444
 -0.3610  -0.3434  -0.3242  -0.2641

          Ground-State Mulliken Net Atomic Charges

     Atom                 Charge (a.u.)
  ----------------------------------------
      1 C                    -0.072925
      2 C                    -0.312493
      3 C                    -0.067851
      4 H                     0.180195
      5 C                     0.143143
      6 S                    -0.180101
      7 C                    -0.300348
      8 H                     0.123131
      9 H                     0.100510
     10 H                     0.115355
     11 C                    -0.053472
     12 C                    -0.285070
     13 C                     0.042653
     14 H                     0.189954
     15 C                    -0.283534
     16 S                     0.010318
     17 C                    -0.272782
     18 H                     0.100414
     19 H                     0.108387
     20 H                     0.108618
     21 H                     0.196347
     22 H                     0.111914
     23 H                     0.113501
     24 H                     0.184139
  ----------------------------------------
  Sum of atomic charges =     0.000000

                    Cartesian Multipole Moments
 -----------------------------------------------------------------
    Charge (ESU x 10^10)
                -0.0000
    Dipole Moment (Debye)
         X      -0.2088      Y      -0.4535      Z       3.9258
       Tot       3.9574
    Quadrupole Moments (Debye-Ang)
        XX     -91.3850     XY       2.5224     YY     -73.2483
        XZ       0.5568     YZ      -2.5918     ZZ     -85.7723

 Total job time:  55.10s(wall), 1928.13s(cpu)
        *  Thank you very much for using Q-Chem.  Have a nice day.  *
