 Q-Chem 5.4, Q-Chem, Inc., Pleasanton, CA (2021)
 Q-Chem 5.4.0 for Intel X86 EM64T Linux

User input:
--------------------------------------------------------------
$molecule
0 1
C	-0.713644	-3.887800	0.124726
C	0.650907	-3.701456	-0.115824
C	1.068646	-2.345170	-0.188844
H	1.346284	-4.545233	-0.238841
C	-0.000000	-1.450135	-0.000000
S	-1.504375	-2.321334	0.264890
C	2.492978	-1.934439	-0.439816
H	3.147582	-2.819799	-0.555669
H	2.899931	-1.326210	0.394879
H	2.589982	-1.325374	-1.362799
C	0.000000	0.000000	0.000000
C	0.540541	0.648986	1.113020
C	1.431046	1.717546	0.820578
H	0.292104	0.350827	2.142881
C	1.590053	1.908061	-0.563588
S	0.621066	0.745901	-1.464748
C	2.112618	2.535384	1.882380
H	1.825779	2.191315	2.894974
H	1.847090	3.610676	1.808137
H	3.218159	2.467925	1.808230
H	2.203332	2.644073	-1.097114
H	-0.887375	-4.420219	1.066566
H	-1.199130	-4.419395	-0.701364
H	0.187554	-1.450628	1.063590
$end

$rem
JOBTYPE		SP
EXCHANGE	HF
CORRELATION	pRIMP2
BASIS		cc-pvtz
METHOD		rimp2
AUX_BASIS	rimp2-cc-pvtz
SOLVENT_METHOD	PCM
PURECART	11111
SYMMETRY	false
MEM_TOTAL	110000
SCF_CONVERGENCE = 6
THRESH=10
GUI = 2
$end

$solvent
dielectric 4.90
$end
--------------------------------------------------------------

             Standard Nuclear Orientation (Angstroms)
    I     Atom           X                Y                Z
 ----------------------------------------------------------------
    1      C      -0.7136440000    -3.8878000000     0.1247260000
    2      C       0.6509070000    -3.7014560000    -0.1158240000
    3      C       1.0686460000    -2.3451700000    -0.1888440000
    4      H       1.3462840000    -4.5452330000    -0.2388410000
    5      C       0.0000000000    -1.4501350000     0.0000000000
    6      S      -1.5043750000    -2.3213340000     0.2648900000
    7      C       2.4929780000    -1.9344390000    -0.4398160000
    8      H       3.1475820000    -2.8197990000    -0.5556690000
    9      H       2.8999310000    -1.3262100000     0.3948790000
   10      H       2.5899820000    -1.3253740000    -1.3627990000
   11      C       0.0000000000     0.0000000000     0.0000000000
   12      C       0.5405410000     0.6489860000     1.1130200000
   13      C       1.4310460000     1.7175460000     0.8205780000
   14      H       0.2921040000     0.3508270000     2.1428810000
   15      C       1.5900530000     1.9080610000    -0.5635880000
   16      S       0.6210660000     0.7459010000    -1.4647480000
   17      C       2.1126180000     2.5353840000     1.8823800000
   18      H       1.8257790000     2.1913150000     2.8949740000
   19      H       1.8470900000     3.6106760000     1.8081370000
   20      H       3.2181590000     2.4679250000     1.8082300000
   21      H       2.2033320000     2.6440730000    -1.0971140000
   22      H      -0.8873750000    -4.4202190000     1.0665660000
   23      H      -1.1991300000    -4.4193950000    -0.7013640000
   24      H       0.1875540000    -1.4506280000     1.0635900000
 ----------------------------------------------------------------

   10   -1180.7290355345      7.20e-07  Convergence criterion met
 Total energy in the final basis set =    -1180.7290355345
        RIMP2         total energy =     -1182.7434942437 a.u.

                    Orbital Energies (a.u.)
 --------------------------------------------------------------

 Alpha MOs
 -- Occupied --
-91.9809 -91.9349 -11.2754 -11.2699 -11.2607 -11.2529 -11.2517 -11.2511
-11.2379 -11.2310 -11.2283 -11.2168  -8.9811  -8.9398  -6.6620  -6.6614
 -6.6609  -6.6212  -6.6201  -6.6189  -1.1998  -1.1541  -1.0574  -1.0222
 -1.0081  -0.9601  -0.9100  -0.9025  -0.8093  -0.7615  -0.7396  -0.7013
 -0.6586  -0.6380  -0.6110  -0.5896  -0.5800  -0.5735  -0.5663  -0.5507
 -0.5415  -0.5265  -0.5201  -0.5029  -0.4940  -0.4664  -0.4589  -0.4444
 -0.3521  -0.3440  -0.3162  -0.2738

          Ground-State Mulliken Net Atomic Charges

     Atom                 Charge (a.u.)
  ----------------------------------------
      1 C                    -0.073088
      2 C                    -0.331026
      3 C                    -0.028093
      4 H                     0.176304
      5 C                     0.071666
      6 S                    -0.203260
      7 C                    -0.285837
      8 H                     0.119248
      9 H                     0.104941
     10 H                     0.113278
     11 C                    -0.074227
     12 C                    -0.227205
     13 C                     0.025736
     14 H                     0.182098
     15 C                    -0.213413
     16 S                     0.007557
     17 C                    -0.268676
     18 H                     0.102808
     19 H                     0.109119
     20 H                     0.106613
     21 H                     0.198958
     22 H                     0.107195
     23 H                     0.108403
     24 H                     0.170898
  ----------------------------------------
  Sum of atomic charges =     0.000000

                    Cartesian Multipole Moments
 -----------------------------------------------------------------
    Charge (ESU x 10^10)
                -0.0000
    Dipole Moment (Debye)
         X       4.1838      Y       0.9604      Z       1.9254
       Tot       4.7047
    Quadrupole Moments (Debye-Ang)
        XX     -87.5342     XY       1.4607     YY     -79.2788
        XZ       0.3465     YZ       0.3102     ZZ     -85.5153

 Total job time:  57.17s(wall), 1967.73s(cpu)
        *  Thank you very much for using Q-Chem.  Have a nice day.  *
