 Q-Chem 5.4, Q-Chem, Inc., Pleasanton, CA (2021)
 Q-Chem 5.4.0 for Intel X86 EM64T Linux

User input:
--------------------------------------------------------------
$molecule
0 1
C	-0.554267	-3.887800	-0.466510
C	0.507121	-3.701456	0.424173
C	0.831575	-2.345170	0.697244
H	1.048337	-4.545233	0.877789
C	0.000000	-1.450135	0.000000
S	-1.169911	-2.321334	-0.982150
C	1.939374	-1.934439	1.627024
H	2.448894	-2.819799	2.054010
H	1.561545	-1.326210	2.475299
H	2.708773	-1.325374	1.108051
C	0.000000	0.000000	0.000000
C	0.354153	0.766774	1.113020
C	0.937751	2.029404	0.820578
H	0.191350	0.414475	2.142881
C	1.042030	2.254581	-0.563588
S	0.406851	0.881228	-1.464748
C	1.384426	2.995779	1.882380
H	1.196413	2.589194	2.894974
H	0.849641	3.965707	1.808137
H	2.469756	3.216753	1.808230
H	1.443919	3.124243	-1.097114
H	-1.387431	-4.420219	0.005807
H	-0.233510	-4.419395	-1.369415
H	-0.694200	-1.450628	0.827337
$end

$rem
JOBTYPE		SP
EXCHANGE	HF
CORRELATION	pRIMP2
BASIS		cc-pvtz
METHOD		rimp2
AUX_BASIS	rimp2-cc-pvtz
SOLVENT_METHOD	PCM
PURECART	11111
SYMMETRY	false
MEM_TOTAL	110000
SCF_CONVERGENCE = 6
THRESH=10
GUI = 2
$end

$solvent
dielectric 4.90
$end
--------------------------------------------------------------

             Standard Nuclear Orientation (Angstroms)
    I     Atom           X                Y                Z
 ----------------------------------------------------------------
    1      C      -0.5542670000    -3.8878000000    -0.4665100000
    2      C       0.5071210000    -3.7014560000     0.4241730000
    3      C       0.8315750000    -2.3451700000     0.6972440000
    4      H       1.0483370000    -4.5452330000     0.8777890000
    5      C       0.0000000000    -1.4501350000     0.0000000000
    6      S      -1.1699110000    -2.3213340000    -0.9821500000
    7      C       1.9393740000    -1.9344390000     1.6270240000
    8      H       2.4488940000    -2.8197990000     2.0540100000
    9      H       1.5615450000    -1.3262100000     2.4752990000
   10      H       2.7087730000    -1.3253740000     1.1080510000
   11      C       0.0000000000     0.0000000000     0.0000000000
   12      C       0.3541530000     0.7667740000     1.1130200000
   13      C       0.9377510000     2.0294040000     0.8205780000
   14      H       0.1913500000     0.4144750000     2.1428810000
   15      C       1.0420300000     2.2545810000    -0.5635880000
   16      S       0.4068510000     0.8812280000    -1.4647480000
   17      C       1.3844260000     2.9957790000     1.8823800000
   18      H       1.1964130000     2.5891940000     2.8949740000
   19      H       0.8496410000     3.9657070000     1.8081370000
   20      H       2.4697560000     3.2167530000     1.8082300000
   21      H       1.4439190000     3.1242430000    -1.0971140000
   22      H      -1.3874310000    -4.4202190000     0.0058070000
   23      H      -0.2335100000    -4.4193950000    -1.3694150000
   24      H      -0.6942000000    -1.4506280000     0.8273370000
 ----------------------------------------------------------------

   10   -1180.7503019210      5.62e-07  Convergence criterion met
 Total energy in the final basis set =    -1180.7503019210
        RIMP2         total energy =     -1182.7596343145 a.u.

                    Orbital Energies (a.u.)
 --------------------------------------------------------------

 Alpha MOs
 -- Occupied --
-91.9802 -91.9416 -11.2787 -11.2661 -11.2632 -11.2566 -11.2517 -11.2429
-11.2414 -11.2311 -11.2299 -11.2197  -8.9803  -8.9463  -6.6612  -6.6606
 -6.6600  -6.6277  -6.6267  -6.6254  -1.1986  -1.1538  -1.0575  -1.0271
 -1.0034  -0.9619  -0.9123  -0.9013  -0.8143  -0.7598  -0.7323  -0.7071
 -0.6569  -0.6428  -0.6114  -0.5908  -0.5852  -0.5713  -0.5601  -0.5540
 -0.5409  -0.5307  -0.5190  -0.5070  -0.4854  -0.4759  -0.4617  -0.4468
 -0.3554  -0.3416  -0.3198  -0.2733

          Ground-State Mulliken Net Atomic Charges

     Atom                 Charge (a.u.)
  ----------------------------------------
      1 C                    -0.072678
      2 C                    -0.322455
      3 C                    -0.052118
      4 H                     0.178387
      5 C                     0.092640
      6 S                    -0.179651
      7 C                    -0.275887
      8 H                     0.118503
      9 H                     0.096572
     10 H                     0.114603
     11 C                    -0.053368
     12 C                    -0.284501
     13 C                     0.039270
     14 H                     0.191707
     15 C                    -0.240983
     16 S                     0.008494
     17 C                    -0.271234
     18 H                     0.101715
     19 H                     0.109132
     20 H                     0.108096
     21 H                     0.197634
     22 H                     0.109726
     23 H                     0.110278
     24 H                     0.176118
  ----------------------------------------
  Sum of atomic charges =     0.000000

                    Cartesian Multipole Moments
 -----------------------------------------------------------------
    Charge (ESU x 10^10)
                -0.0000
    Dipole Moment (Debye)
         X       2.1624      Y       0.4421      Z       3.7775
       Tot       4.3750
    Quadrupole Moments (Debye-Ang)
        XX     -89.5412     XY       2.3037     YY     -75.5319
        XZ       0.5562     YZ      -2.3547     ZZ     -86.3150

 Total job time:  58.08s(wall), 1946.35s(cpu)
        *  Thank you very much for using Q-Chem.  Have a nice day.  *
