 Q-Chem 5.4, Q-Chem, Inc., Pleasanton, CA (2021)
 Q-Chem 5.4.0 for Intel X86 EM64T Linux

User input:
--------------------------------------------------------------
$molecule
0 1
C	-0.000240	-0.991205	0.978203
S	0.000260	-0.086405	2.485703
C	-0.000540	1.486095	1.697103
C	0.000560	-0.086805	-0.089697
C	-0.001840	1.303395	0.291803
S	0.003360	-0.330305	-1.827297
C	-0.002140	1.421295	-2.076297
C	-0.004640	2.129695	-0.884397
F	-0.009440	3.466295	-0.840897
C	-0.000240	1.869395	-3.477897
O	0.007660	1.099495	-4.428297
O	-0.007740	3.219895	-3.590997
C	-0.002540	3.714995	-4.937997
H	-0.009540	4.815995	-4.854897
H	-0.895640	3.361695	-5.491997
H	0.901260	3.372095	-5.481097
C	-0.000240	-2.426405	0.978203
H	0.362160	-2.434405	-0.039197
H	0.789860	-3.104305	1.265503
H	-0.886140	-2.957505	0.662803
H	-0.001940	2.410395	2.284703
$end

$rem
JOBTYPE		SP
EXCHANGE	HF
CORRELATION	pRIMP2
BASIS		cc-pvtz
METHOD		rimp2
AUX_BASIS	rimp2-cc-pvtz
SOLVENT_METHOD	PCM
PURECART	11111
SYMMETRY	false
MEM_TOTAL	110000
SCF_CONVERGENCE = 6
THRESH=10
GUI = 2
$end

$solvent
dielectric 4.90
$end
--------------------------------------------------------------

             Standard Nuclear Orientation (Angstroms)
    I     Atom           X                Y                Z
 ----------------------------------------------------------------
    1      C      -0.0002400000    -0.9912050000     0.9782030000
    2      S       0.0002600000    -0.0864050000     2.4857030000
    3      C      -0.0005400000     1.4860950000     1.6971030000
    4      C       0.0005600000    -0.0868050000    -0.0896970000
    5      C      -0.0018400000     1.3033950000     0.2918030000
    6      S       0.0033600000    -0.3303050000    -1.8272970000
    7      C      -0.0021400000     1.4212950000    -2.0762970000
    8      C      -0.0046400000     2.1296950000    -0.8843970000
    9      F      -0.0094400000     3.4662950000    -0.8408970000
   10      C      -0.0002400000     1.8693950000    -3.4778970000
   11      O       0.0076600000     1.0994950000    -4.4282970000
   12      O      -0.0077400000     3.2198950000    -3.5909970000
   13      C      -0.0025400000     3.7149950000    -4.9379970000
   14      H      -0.0095400000     4.8159950000    -4.8548970000
   15      H      -0.8956400000     3.3616950000    -5.4919970000
   16      H       0.9012600000     3.3720950000    -5.4810970000
   17      C      -0.0002400000    -2.4264050000     0.9782030000
   18      H       0.3621600000    -2.4344050000    -0.0391970000
   19      H       0.7898600000    -3.1043050000     1.2655030000
   20      H      -0.8861400000    -2.9575050000     0.6628030000
   21      H      -0.0019400000     2.4103950000     2.2847030000
 ----------------------------------------------------------------

   11   -1389.2732858871      4.62e-07  Convergence criterion met
 Total energy in the final basis set =    -1389.2732858871
        RIMP2         total energy =     -1391.7790659554 a.u.

                    Orbital Energies (a.u.)
 --------------------------------------------------------------

 Alpha MOs
 -- Occupied --
-92.0032 -91.9936 -26.3412 -20.6137 -20.5598 -11.4078 -11.3796 -11.2988
-11.2958 -11.2946 -11.2889 -11.2882 -11.2789 -11.2271  -9.0023  -8.9938
 -6.6831  -6.6824  -6.6820  -6.6748  -6.6741  -6.6730  -1.6584  -1.4661
 -1.3687  -1.2133  -1.1352  -1.0681  -1.0186  -0.9952  -0.9582  -0.9143
 -0.8634  -0.8051  -0.7890  -0.7592  -0.7301  -0.7232  -0.6942  -0.6835
 -0.6729  -0.6611  -0.6080  -0.6034  -0.5917  -0.5828  -0.5664  -0.5561
 -0.5396  -0.5301  -0.5070  -0.4878  -0.4734  -0.4717  -0.4646  -0.4545
 -0.3914  -0.3447  -0.2911

          Ground-State Mulliken Net Atomic Charges

     Atom                 Charge (a.u.)
  ----------------------------------------
      1 C                     0.047172
      2 S                     0.073066
      3 C                    -0.204269
      4 C                    -0.013197
      5 C                    -0.101329
      6 S                    -0.010328
      7 C                    -0.157989
      8 C                     0.389877
      9 F                    -0.207764
     10 C                     0.444879
     11 O                    -0.462962
     12 O                    -0.300892
     13 C                    -0.058682
     14 H                     0.121188
     15 H                     0.094792
     16 H                     0.094719
     17 C                    -0.372330
     18 H                     0.115142
     19 H                     0.159415
     20 H                     0.136809
     21 H                     0.212682
  ----------------------------------------
  Sum of atomic charges =     0.000000

                    Cartesian Multipole Moments
 -----------------------------------------------------------------
    Charge (ESU x 10^10)
                -0.0000
    Dipole Moment (Debye)
         X       0.2047      Y       0.5420      Z       2.6112
       Tot       2.6747
    Quadrupole Moments (Debye-Ang)
        XX     -96.2987     XY      -0.7022     YY     -80.9533
        XZ       0.4968     YZ      -8.6574     ZZ     -98.0404

 Total job time:  56.10s(wall), 1966.14s(cpu)
        *  Thank you very much for using Q-Chem.  Have a nice day.  *
