 Q-Chem 5.4, Q-Chem, Inc., Pleasanton, CA (2021)
 Q-Chem 5.4.0 for Intel X86 EM64T Linux

User input:
--------------------------------------------------------------
$molecule
0 1
C	-0.268787	-0.955820	0.978264
S	-0.034187	-0.082020	2.485764
C	0.372113	1.437180	1.697164
C	-0.033987	-0.082420	-0.089636
C	0.323613	1.260980	0.291864
S	-0.094287	-0.318420	-1.827236
C	0.353813	1.374980	-2.076236
C	0.534713	2.059780	-0.884336
F	0.876013	3.352180	-0.840836
C	0.471513	1.807280	-3.477836
O	0.280013	1.061580	-4.428236
O	0.813913	3.113680	-3.590936
C	0.947013	3.590580	-4.937936
H	1.225313	4.655880	-4.854836
H	-0.007087	3.480480	-5.491936
H	1.731313	3.025480	-5.481036
C	-0.268787	-2.391020	0.978264
H	-0.276187	-2.399020	-0.101636
H	0.571913	-3.068920	0.977964
H	-1.209187	-2.922120	0.984964
H	0.609913	2.330280	2.284764
$end

$rem
JOBTYPE		SP
EXCHANGE	HF
CORRELATION	pRIMP2
BASIS		cc-pvtz
METHOD		rimp2
AUX_BASIS	rimp2-cc-pvtz
SOLVENT_METHOD	PCM
PURECART	11111
SYMMETRY	false
MEM_TOTAL	110000
SCF_CONVERGENCE = 6
THRESH=10
GUI = 2
$end

$solvent
dielectric 4.90
$end
--------------------------------------------------------------

             Standard Nuclear Orientation (Angstroms)
    I     Atom           X                Y                Z
 ----------------------------------------------------------------
    1      C      -0.2687870000    -0.9558200000     0.9782640000
    2      S      -0.0341870000    -0.0820200000     2.4857640000
    3      C       0.3721130000     1.4371800000     1.6971640000
    4      C      -0.0339870000    -0.0824200000    -0.0896360000
    5      C       0.3236130000     1.2609800000     0.2918640000
    6      S      -0.0942870000    -0.3184200000    -1.8272360000
    7      C       0.3538130000     1.3749800000    -2.0762360000
    8      C       0.5347130000     2.0597800000    -0.8843360000
    9      F       0.8760130000     3.3521800000    -0.8408360000
   10      C       0.4715130000     1.8072800000    -3.4778360000
   11      O       0.2800130000     1.0615800000    -4.4282360000
   12      O       0.8139130000     3.1136800000    -3.5909360000
   13      C       0.9470130000     3.5905800000    -4.9379360000
   14      H       1.2253130000     4.6558800000    -4.8548360000
   15      H      -0.0070870000     3.4804800000    -5.4919360000
   16      H       1.7313130000     3.0254800000    -5.4810360000
   17      C      -0.2687870000    -2.3910200000     0.9782640000
   18      H      -0.2761870000    -2.3990200000    -0.1016360000
   19      H       0.5719130000    -3.0689200000     0.9779640000
   20      H      -1.2091870000    -2.9221200000     0.9849640000
   21      H       0.6099130000     2.3302800000     2.2847640000
 ----------------------------------------------------------------

   11   -1389.2685063006      4.57e-07  Convergence criterion met
 Total energy in the final basis set =    -1389.2685063006
        RIMP2         total energy =     -1391.7753366532 a.u.

                    Orbital Energies (a.u.)
 --------------------------------------------------------------

 Alpha MOs
 -- Occupied --
-92.0025 -91.9945 -26.3415 -20.6138 -20.5598 -11.4079 -11.3801 -11.3020
-11.2947 -11.2922 -11.2910 -11.2883 -11.2790 -11.2254  -9.0017  -8.9947
 -6.6825  -6.6818  -6.6814  -6.6757  -6.6750  -6.6739  -1.6586  -1.4661
 -1.3688  -1.2142  -1.1355  -1.0682  -1.0190  -0.9946  -0.9584  -0.9141
 -0.8637  -0.8056  -0.7893  -0.7595  -0.7301  -0.7234  -0.6948  -0.6835
 -0.6730  -0.6613  -0.6073  -0.6042  -0.5918  -0.5831  -0.5659  -0.5562
 -0.5383  -0.5302  -0.5073  -0.4871  -0.4736  -0.4719  -0.4650  -0.4495
 -0.3934  -0.3448  -0.2931

          Ground-State Mulliken Net Atomic Charges

     Atom                 Charge (a.u.)
  ----------------------------------------
      1 C                     0.025759
      2 S                     0.075421
      3 C                    -0.199291
      4 C                    -0.019930
      5 C                    -0.093954
      6 S                    -0.007073
      7 C                    -0.157416
      8 C                     0.390811
      9 F                    -0.207464
     10 C                     0.444916
     11 O                    -0.462969
     12 O                    -0.301106
     13 C                    -0.058499
     14 H                     0.121137
     15 H                     0.094799
     16 H                     0.094707
     17 C                    -0.354148
     18 H                     0.111539
     19 H                     0.151944
     20 H                     0.137910
     21 H                     0.212909
  ----------------------------------------
  Sum of atomic charges =     0.000000

                    Cartesian Multipole Moments
 -----------------------------------------------------------------
    Charge (ESU x 10^10)
                -0.0000
    Dipole Moment (Debye)
         X       0.5996      Y       0.6840      Z       2.5426
       Tot       2.7004
    Quadrupole Moments (Debye-Ang)
        XX     -95.5145     XY       2.7862     YY     -82.0281
        XZ      -1.9351     YZ      -7.9709     ZZ     -98.0826

 Total job time:  57.21s(wall), 1939.07s(cpu)
        *  Thank you very much for using Q-Chem.  Have a nice day.  *
