 Q-Chem 5.4, Q-Chem, Inc., Pleasanton, CA (2021)
 Q-Chem 5.4.0 for Intel X86 EM64T Linux

User input:
--------------------------------------------------------------
$molecule
0 1
C	-0.898844	-0.471137	0.975276
S	-0.115044	-0.019137	2.482776
C	1.246456	0.767763	1.694176
C	-0.115144	-0.019537	-0.092624
C	1.087556	0.677463	0.288876
S	-0.324744	-0.143837	-1.830224
C	1.189556	0.736763	-2.079224
C	1.801656	1.093063	-0.887324
F	2.956856	1.765563	-0.843824
C	1.578456	0.959163	-3.480824
O	0.915756	0.567363	-4.431224
O	2.744356	1.640863	-3.593924
C	3.175656	1.883963	-4.940924
H	4.125756	2.440463	-4.857824
H	2.423156	2.480763	-5.494924
H	3.330656	0.929763	-5.484024
C	-0.898844	-1.906337	0.975276
H	-1.961044	-1.914337	1.170176
H	-1.045144	-2.584237	0.147376
H	-0.729044	-2.437437	1.900176
H	2.046156	1.231163	2.281776
$end

$rem
JOBTYPE		SP
EXCHANGE	HF
CORRELATION	pRIMP2
BASIS		cc-pvtz
METHOD		rimp2
AUX_BASIS	rimp2-cc-pvtz
SOLVENT_METHOD	PCM
PURECART	11111
SYMMETRY	false
MEM_TOTAL	110000
SCF_CONVERGENCE = 6
THRESH=10
GUI = 2
$end

$solvent
dielectric 4.90
$end
--------------------------------------------------------------

             Standard Nuclear Orientation (Angstroms)
    I     Atom           X                Y                Z
 ----------------------------------------------------------------
    1      C      -0.8988440000    -0.4711370000     0.9752760000
    2      S      -0.1150440000    -0.0191370000     2.4827760000
    3      C       1.2464560000     0.7677630000     1.6941760000
    4      C      -0.1151440000    -0.0195370000    -0.0926240000
    5      C       1.0875560000     0.6774630000     0.2888760000
    6      S      -0.3247440000    -0.1438370000    -1.8302240000
    7      C       1.1895560000     0.7367630000    -2.0792240000
    8      C       1.8016560000     1.0930630000    -0.8873240000
    9      F       2.9568560000     1.7655630000    -0.8438240000
   10      C       1.5784560000     0.9591630000    -3.4808240000
   11      O       0.9157560000     0.5673630000    -4.4312240000
   12      O       2.7443560000     1.6408630000    -3.5939240000
   13      C       3.1756560000     1.8839630000    -4.9409240000
   14      H       4.1257560000     2.4404630000    -4.8578240000
   15      H       2.4231560000     2.4807630000    -5.4949240000
   16      H       3.3306560000     0.9297630000    -5.4840240000
   17      C      -0.8988440000    -1.9063370000     0.9752760000
   18      H      -1.9610440000    -1.9143370000     1.1701760000
   19      H      -1.0451440000    -2.5842370000     0.1473760000
   20      H      -0.7290440000    -2.4374370000     1.9001760000
   21      H       2.0461560000     1.2311630000     2.2817760000
 ----------------------------------------------------------------

   11   -1389.1875647800      6.19e-07  Convergence criterion met
 Total energy in the final basis set =    -1389.1875647800
        RIMP2         total energy =     -1391.7051432373 a.u.

                    Orbital Energies (a.u.)
 --------------------------------------------------------------

 Alpha MOs
 -- Occupied --
-92.0027 -92.0014 -26.3433 -20.6140 -20.5599 -11.4083 -11.3830 -11.3239
-11.3055 -11.2941 -11.2886 -11.2804 -11.2547 -11.2101  -9.0024  -9.0014
 -6.6834  -6.6827  -6.6821  -6.6817  -6.6810  -6.6809  -1.6605  -1.4664
 -1.3691  -1.2211  -1.1420  -1.0676  -1.0224  -0.9906  -0.9605  -0.9071
 -0.8664  -0.8105  -0.7909  -0.7601  -0.7327  -0.7251  -0.6962  -0.6839
 -0.6734  -0.6609  -0.6140  -0.5962  -0.5915  -0.5698  -0.5660  -0.5605
 -0.5319  -0.5255  -0.5059  -0.4927  -0.4761  -0.4723  -0.4715  -0.4445
 -0.3712  -0.3427  -0.2867

          Ground-State Mulliken Net Atomic Charges

     Atom                 Charge (a.u.)
  ----------------------------------------
      1 C                    -0.155112
      2 S                     0.093422
      3 C                    -0.139073
      4 C                     0.100389
      5 C                    -0.122686
      6 S                     0.038911
      7 C                    -0.160739
      8 C                     0.394118
      9 F                    -0.206585
     10 C                     0.448408
     11 O                    -0.464476
     12 O                    -0.301562
     13 C                    -0.058284
     14 H                     0.121134
     15 H                     0.094926
     16 H                     0.094694
     17 C                    -0.405475
     18 H                     0.133502
     19 H                     0.149399
     20 H                     0.128785
     21 H                     0.216304
  ----------------------------------------
  Sum of atomic charges =     0.000000

                    Cartesian Multipole Moments
 -----------------------------------------------------------------
    Charge (ESU x 10^10)
                -0.0000
    Dipole Moment (Debye)
         X       2.6419      Y       0.4852      Z       2.8960
       Tot       3.9499
    Quadrupole Moments (Debye-Ang)
        XX     -89.2600     XY       6.2726     YY     -91.6214
        XZ      -5.7069     YZ      -4.6156     ZZ     -94.9526

 Total job time:  83.29s(wall), 2065.55s(cpu)
        *  Thank you very much for using Q-Chem.  Have a nice day.  *
