 Q-Chem 5.4, Q-Chem, Inc., Pleasanton, CA (2021)
 Q-Chem 5.4.0 for Intel X86 EM64T Linux

User input:
--------------------------------------------------------------
$molecule
0 1
C	-0.441209	-0.893839	0.974266
S	-0.058409	-0.074039	2.481766
C	0.605491	1.351461	1.693166
C	-0.058309	-0.074439	-0.093634
C	0.527091	1.186461	0.287866
S	-0.158609	-0.296439	-1.831234
C	0.576591	1.293461	-2.080234
C	0.873791	1.936461	-0.888334
F	1.434291	3.149961	-0.844834
C	0.767691	1.698761	-3.481834
O	0.449591	0.997661	-4.432234
O	1.331691	2.925861	-3.594934
C	1.545691	3.372361	-4.941934
H	2.004591	4.373161	-4.858834
H	0.586891	3.429561	-5.495934
H	2.219891	2.679661	-5.485034
C	-0.441209	-2.329039	0.974266
H	0.258691	-2.337039	1.796766
H	-1.085109	-3.006939	1.514866
H	0.274891	-2.860139	0.364666
H	0.994791	2.189761	2.280766
$end

$rem
JOBTYPE		SP
EXCHANGE	HF
CORRELATION	pRIMP2
BASIS		cc-pvtz
METHOD		rimp2
AUX_BASIS	rimp2-cc-pvtz
SOLVENT_METHOD	PCM
PURECART	11111
SYMMETRY	false
MEM_TOTAL	110000
SCF_CONVERGENCE = 6
THRESH=10
GUI = 2
$end

$solvent
dielectric 4.90
$end
--------------------------------------------------------------

             Standard Nuclear Orientation (Angstroms)
    I     Atom           X                Y                Z
 ----------------------------------------------------------------
    1      C      -0.4412090000    -0.8938390000     0.9742660000
    2      S      -0.0584090000    -0.0740390000     2.4817660000
    3      C       0.6054910000     1.3514610000     1.6931660000
    4      C      -0.0583090000    -0.0744390000    -0.0936340000
    5      C       0.5270910000     1.1864610000     0.2878660000
    6      S      -0.1586090000    -0.2964390000    -1.8312340000
    7      C       0.5765910000     1.2934610000    -2.0802340000
    8      C       0.8737910000     1.9364610000    -0.8883340000
    9      F       1.4342910000     3.1499610000    -0.8448340000
   10      C       0.7676910000     1.6987610000    -3.4818340000
   11      O       0.4495910000     0.9976610000    -4.4322340000
   12      O       1.3316910000     2.9258610000    -3.5949340000
   13      C       1.5456910000     3.3723610000    -4.9419340000
   14      H       2.0045910000     4.3731610000    -4.8588340000
   15      H       0.5868910000     3.4295610000    -5.4959340000
   16      H       2.2198910000     2.6796610000    -5.4850340000
   17      C      -0.4412090000    -2.3290390000     0.9742660000
   18      H       0.2586910000    -2.3370390000     1.7967660000
   19      H      -1.0851090000    -3.0069390000     1.5148660000
   20      H       0.2748910000    -2.8601390000     0.3646660000
   21      H       0.9947910000     2.1897610000     2.2807660000
 ----------------------------------------------------------------

   11   -1389.2589188868      5.25e-07  Convergence criterion met
 Total energy in the final basis set =    -1389.2589188868
        RIMP2         total energy =     -1391.7653994296 a.u.

                    Orbital Energies (a.u.)
 --------------------------------------------------------------

 Alpha MOs
 -- Occupied --
-92.0038 -91.9922 -26.3407 -20.6134 -20.5595 -11.4073 -11.3789 -11.3016
-11.2941 -11.2924 -11.2880 -11.2869 -11.2786 -11.2249  -9.0033  -8.9923
 -6.6841  -6.6834  -6.6829  -6.6734  -6.6727  -6.6715  -1.6579  -1.4658
 -1.3684  -1.2136  -1.1383  -1.0658  -1.0197  -0.9938  -0.9587  -0.9109
 -0.8638  -0.8068  -0.7886  -0.7582  -0.7315  -0.7228  -0.6921  -0.6831
 -0.6726  -0.6603  -0.6097  -0.6013  -0.5927  -0.5738  -0.5648  -0.5554
 -0.5378  -0.5297  -0.5100  -0.4911  -0.4739  -0.4712  -0.4704  -0.4523
 -0.3879  -0.3458  -0.2865

          Ground-State Mulliken Net Atomic Charges

     Atom                 Charge (a.u.)
  ----------------------------------------
      1 C                     0.036739
      2 S                     0.073865
      3 C                    -0.204533
      4 C                    -0.047508
      5 C                    -0.079503
      6 S                     0.000264
      7 C                    -0.156385
      8 C                     0.388453
      9 F                    -0.208298
     10 C                     0.446119
     11 O                    -0.462305
     12 O                    -0.301062
     13 C                    -0.058517
     14 H                     0.121037
     15 H                     0.094817
     16 H                     0.094634
     17 C                    -0.380570
     18 H                     0.131282
     19 H                     0.150674
     20 H                     0.147336
     21 H                     0.213461
  ----------------------------------------
  Sum of atomic charges =     0.000000

                    Cartesian Multipole Moments
 -----------------------------------------------------------------
    Charge (ESU x 10^10)
                -0.0000
    Dipole Moment (Debye)
         X       1.4447      Y       0.4558      Z       3.6850
       Tot       3.9843
    Quadrupole Moments (Debye-Ang)
        XX     -95.1533     XY       3.3230     YY     -83.4616
        XZ      -3.5022     YZ     -10.4053     ZZ     -95.5738

 Total job time:  115.71s(wall), 1960.44s(cpu)
        *  Thank you very much for using Q-Chem.  Have a nice day.  *
