 Q-Chem 5.4, Q-Chem, Inc., Pleasanton, CA (2021)
 Q-Chem 5.4.0 for Intel X86 EM64T Linux

User input:
--------------------------------------------------------------
$molecule
0 1
C	-0.797602	-0.619704	0.978203
S	-0.104202	-0.038504	2.485703
C	1.099898	0.972896	1.697103
C	-0.104302	-0.038904	-0.089697
C	0.959198	0.856396	0.291803
S	-0.289002	-0.197704	-1.827297
C	1.049298	0.932496	-2.076297
C	1.590298	1.389696	-0.884397
F	2.611098	2.252596	-0.840897
C	1.393698	1.219096	-3.477897
O	0.809098	0.718096	-4.428297
O	2.423498	2.092896	-3.590997
C	2.806098	2.407096	-4.937997
H	3.644998	3.120196	-4.854897
H	1.961398	2.864196	-5.491997
H	3.124398	1.494396	-5.481097
C	-0.797602	-2.054904	0.978203
H	-0.435202	-2.062904	-0.039197
H	-0.007502	-2.732804	1.265503
H	-1.683502	-2.586004	0.662803
H	1.807098	1.568096	2.284703
$end

$rem
JOBTYPE		SP
EXCHANGE	HF
CORRELATION	pRIMP2
BASIS		cc-pvtz
METHOD		rimp2
AUX_BASIS	rimp2-cc-pvtz
SOLVENT_METHOD	PCM
PURECART	11111
SYMMETRY	false
MEM_TOTAL	110000
SCF_CONVERGENCE = 6
THRESH=10
GUI = 2
$end

$solvent
dielectric 4.90
$end
--------------------------------------------------------------

             Standard Nuclear Orientation (Angstroms)
    I     Atom           X                Y                Z
 ----------------------------------------------------------------
    1      C      -0.7976020000    -0.6197040000     0.9782030000
    2      S      -0.1042020000    -0.0385040000     2.4857030000
    3      C       1.0998980000     0.9728960000     1.6971030000
    4      C      -0.1043020000    -0.0389040000    -0.0896970000
    5      C       0.9591980000     0.8563960000     0.2918030000
    6      S      -0.2890020000    -0.1977040000    -1.8272970000
    7      C       1.0492980000     0.9324960000    -2.0762970000
    8      C       1.5902980000     1.3896960000    -0.8843970000
    9      F       2.6110980000     2.2525960000    -0.8408970000
   10      C       1.3936980000     1.2190960000    -3.4778970000
   11      O       0.8090980000     0.7180960000    -4.4282970000
   12      O       2.4234980000     2.0928960000    -3.5909970000
   13      C       2.8060980000     2.4070960000    -4.9379970000
   14      H       3.6449980000     3.1201960000    -4.8548970000
   15      H       1.9613980000     2.8641960000    -5.4919970000
   16      H       3.1243980000     1.4943960000    -5.4810970000
   17      C      -0.7976020000    -2.0549040000     0.9782030000
   18      H      -0.4352020000    -2.0629040000    -0.0391970000
   19      H      -0.0075020000    -2.7328040000     1.2655030000
   20      H      -1.6835020000    -2.5860040000     0.6628030000
   21      H       1.8070980000     1.5680960000     2.2847030000
 ----------------------------------------------------------------

   11   -1389.2168068172      5.29e-07  Convergence criterion met
 Total energy in the final basis set =    -1389.2168068172
        RIMP2         total energy =     -1391.7331933812 a.u.

                    Orbital Energies (a.u.)
 --------------------------------------------------------------

 Alpha MOs
 -- Occupied --
-92.0031 -92.0022 -26.3436 -20.6143 -20.5602 -11.4087 -11.3834 -11.3165
-11.3008 -11.2949 -11.2888 -11.2806 -11.2694 -11.2151  -9.0025  -9.0021
 -6.6832  -6.6831  -6.6824  -6.6823  -6.6822  -6.6813  -1.6607  -1.4667
 -1.3694  -1.2208  -1.1407  -1.0713  -1.0213  -0.9911  -0.9599  -0.9082
 -0.8657  -0.8085  -0.7913  -0.7609  -0.7313  -0.7253  -0.6979  -0.6842
 -0.6736  -0.6618  -0.6086  -0.6026  -0.5925  -0.5846  -0.5644  -0.5614
 -0.5308  -0.5206  -0.5117  -0.4878  -0.4748  -0.4727  -0.4682  -0.4413
 -0.3846  -0.3407  -0.2987

          Ground-State Mulliken Net Atomic Charges

     Atom                 Charge (a.u.)
  ----------------------------------------
      1 C                    -0.093038
      2 S                     0.092110
      3 C                    -0.163641
      4 C                     0.045397
      5 C                    -0.102653
      6 S                     0.027057
      7 C                    -0.159204
      8 C                     0.391144
      9 F                    -0.205928
     10 C                     0.448380
     11 O                    -0.464079
     12 O                    -0.301488
     13 C                    -0.058299
     14 H                     0.121192
     15 H                     0.094945
     16 H                     0.094769
     17 C                    -0.359798
     18 H                     0.112170
     19 H                     0.148690
     20 H                     0.118103
     21 H                     0.214171
  ----------------------------------------
  Sum of atomic charges =     0.000000

                    Cartesian Multipole Moments
 -----------------------------------------------------------------
    Charge (ESU x 10^10)
                -0.0000
    Dipole Moment (Debye)
         X       2.7407      Y       0.7706      Z       2.3367
       Tot       3.6831
    Quadrupole Moments (Debye-Ang)
        XX     -91.2175     XY       4.8657     YY     -89.5565
        XZ      -4.3537     YZ      -4.6909     ZZ     -96.9279

 Total job time:  58.03s(wall), 2058.40s(cpu)
        *  Thank you very much for using Q-Chem.  Have a nice day.  *
