 Q-Chem 5.4, Q-Chem, Inc., Pleasanton, CA (2021)
 Q-Chem 5.4.0 for Intel X86 EM64T Linux

User input:
--------------------------------------------------------------
$molecule
0 1
C	-0.090177	-0.987267	0.973560
S	-0.010877	-0.085967	2.481060
C	0.125423	1.480633	1.692460
C	-0.010577	-0.086367	-0.094340
C	0.108223	1.298733	0.287160
S	-0.028977	-0.329267	-1.831940
C	0.118123	1.416233	-2.080940
C	0.177423	2.122133	-0.889040
F	0.289123	3.454033	-0.845540
C	0.159123	1.862433	-3.482540
O	0.099923	1.094833	-4.432940
O	0.269323	3.208433	-3.595640
C	0.317723	3.701233	-4.942640
H	0.406723	4.798633	-4.859540
H	-0.602777	3.427033	-5.496640
H	1.188223	3.280833	-5.485740
C	-0.090177	-2.422467	0.973560
H	-0.270377	-2.430467	2.038360
H	-0.918177	-3.100367	0.827860
H	0.837023	-2.953567	1.130260
H	0.204623	2.401533	2.280060
$end

$rem
JOBTYPE		SP
EXCHANGE	HF
CORRELATION	pRIMP2
BASIS		cc-pvtz
METHOD		rimp2
AUX_BASIS	rimp2-cc-pvtz
SOLVENT_METHOD	PCM
PURECART	11111
SYMMETRY	false
MEM_TOTAL	110000
SCF_CONVERGENCE = 6
THRESH=10
GUI = 2
$end

$solvent
dielectric 4.90
$end
--------------------------------------------------------------

             Standard Nuclear Orientation (Angstroms)
    I     Atom           X                Y                Z
 ----------------------------------------------------------------
    1      C      -0.0901770000    -0.9872670000     0.9735600000
    2      S      -0.0108770000    -0.0859670000     2.4810600000
    3      C       0.1254230000     1.4806330000     1.6924600000
    4      C      -0.0105770000    -0.0863670000    -0.0943400000
    5      C       0.1082230000     1.2987330000     0.2871600000
    6      S      -0.0289770000    -0.3292670000    -1.8319400000
    7      C       0.1181230000     1.4162330000    -2.0809400000
    8      C       0.1774230000     2.1221330000    -0.8890400000
    9      F       0.2891230000     3.4540330000    -0.8455400000
   10      C       0.1591230000     1.8624330000    -3.4825400000
   11      O       0.0999230000     1.0948330000    -4.4329400000
   12      O       0.2693230000     3.2084330000    -3.5956400000
   13      C       0.3177230000     3.7012330000    -4.9426400000
   14      H       0.4067230000     4.7986330000    -4.8595400000
   15      H      -0.6027770000     3.4270330000    -5.4966400000
   16      H       1.1882230000     3.2808330000    -5.4857400000
   17      C      -0.0901770000    -2.4224670000     0.9735600000
   18      H      -0.2703770000    -2.4304670000     2.0383600000
   19      H      -0.9181770000    -3.1003670000     0.8278600000
   20      H       0.8370230000    -2.9535670000     1.1302600000
   21      H       0.2046230000     2.4015330000     2.2800600000
 ----------------------------------------------------------------

   11   -1389.2699001426      4.80e-07  Convergence criterion met
 Total energy in the final basis set =    -1389.2699001426
        RIMP2         total energy =     -1391.7750673223 a.u.

                    Orbital Energies (a.u.)
 --------------------------------------------------------------

 Alpha MOs
 -- Occupied --
-92.0086 -91.9919 -26.3403 -20.6133 -20.5594 -11.4073 -11.3783 -11.3000
-11.2941 -11.2922 -11.2880 -11.2850 -11.2786 -11.2255  -9.0074  -8.9921
 -6.6882  -6.6876  -6.6871  -6.6731  -6.6724  -6.6713  -1.6576  -1.4657
 -1.3683  -1.2122  -1.1369  -1.0647  -1.0198  -0.9951  -0.9587  -0.9125
 -0.8638  -0.8066  -0.7883  -0.7579  -0.7313  -0.7225  -0.6912  -0.6831
 -0.6725  -0.6606  -0.6075  -0.6020  -0.5918  -0.5771  -0.5661  -0.5566
 -0.5400  -0.5298  -0.5075  -0.4795  -0.4733  -0.4711  -0.4653  -0.4615
 -0.3918  -0.3451  -0.2912

          Ground-State Mulliken Net Atomic Charges

     Atom                 Charge (a.u.)
  ----------------------------------------
      1 C                     0.030694
      2 S                     0.076264
      3 C                    -0.210264
      4 C                    -0.002983
      5 C                    -0.094628
      6 S                    -0.004765
      7 C                    -0.158414
      8 C                     0.392456
      9 F                    -0.208839
     10 C                     0.445006
     11 O                    -0.462374
     12 O                    -0.300804
     13 C                    -0.058692
     14 H                     0.121044
     15 H                     0.094781
     16 H                     0.094679
     17 C                    -0.369292
     18 H                     0.111544
     19 H                     0.155480
     20 H                     0.134373
     21 H                     0.214733
  ----------------------------------------
  Sum of atomic charges =     0.000000

                    Cartesian Multipole Moments
 -----------------------------------------------------------------
    Charge (ESU x 10^10)
                -0.0000
    Dipole Moment (Debye)
         X       0.0929      Y       0.6763      Z       3.8338
       Tot       3.8941
    Quadrupole Moments (Debye-Ang)
        XX     -96.1514     XY       1.3988     YY     -81.4106
        XZ      -0.7029     YZ     -11.3771     ZZ     -95.4638

 Total job time:  53.63s(wall), 1937.40s(cpu)
        *  Thank you very much for using Q-Chem.  Have a nice day.  *
