 Q-Chem 5.4, Q-Chem, Inc., Pleasanton, CA (2021)
 Q-Chem 5.4.0 for Intel X86 EM64T Linux

User input:
--------------------------------------------------------------
$molecule
0 1
C	-0.181407	-0.975447	0.973787
S	-0.023807	-0.084547	2.481287
C	0.248493	1.464253	1.692687
C	-0.023607	-0.084847	-0.094113
C	0.215493	1.284553	0.287387
S	-0.063107	-0.325247	-1.831713
C	0.235593	1.400753	-2.080713
C	0.356193	2.098753	-0.888813
F	0.583593	3.415953	-0.845313
C	0.315293	1.841653	-3.482313
O	0.189493	1.082153	-4.432713
O	0.542493	3.172953	-3.595413
C	0.633593	3.659653	-4.942413
H	0.817893	4.745153	-4.859313
H	-0.307307	3.466753	-5.496413
H	1.464093	3.165053	-5.485513
C	-0.181407	-2.410647	0.973787
H	0.194993	-2.418647	1.986087
H	-0.971307	-3.088547	1.261587
H	0.699993	-2.941747	0.645887
H	0.407593	2.374753	2.280287
$end

$rem
JOBTYPE		SP
EXCHANGE	HF
CORRELATION	pRIMP2
BASIS		cc-pvtz
METHOD		rimp2
AUX_BASIS	rimp2-cc-pvtz
SOLVENT_METHOD	PCM
PURECART	11111
SYMMETRY	false
MEM_TOTAL	110000
SCF_CONVERGENCE = 6
THRESH=10
GUI = 2
$end

$solvent
dielectric 4.90
$end
--------------------------------------------------------------

             Standard Nuclear Orientation (Angstroms)
    I     Atom           X                Y                Z
 ----------------------------------------------------------------
    1      C      -0.1814070000    -0.9754470000     0.9737870000
    2      S      -0.0238070000    -0.0845470000     2.4812870000
    3      C       0.2484930000     1.4642530000     1.6926870000
    4      C      -0.0236070000    -0.0848470000    -0.0941130000
    5      C       0.2154930000     1.2845530000     0.2873870000
    6      S      -0.0631070000    -0.3252470000    -1.8317130000
    7      C       0.2355930000     1.4007530000    -2.0807130000
    8      C       0.3561930000     2.0987530000    -0.8888130000
    9      F       0.5835930000     3.4159530000    -0.8453130000
   10      C       0.3152930000     1.8416530000    -3.4823130000
   11      O       0.1894930000     1.0821530000    -4.4327130000
   12      O       0.5424930000     3.1729530000    -3.5954130000
   13      C       0.6335930000     3.6596530000    -4.9424130000
   14      H       0.8178930000     4.7451530000    -4.8593130000
   15      H      -0.3073070000     3.4667530000    -5.4964130000
   16      H       1.4640930000     3.1650530000    -5.4855130000
   17      C      -0.1814070000    -2.4106470000     0.9737870000
   18      H       0.1949930000    -2.4186470000     1.9860870000
   19      H      -0.9713070000    -3.0885470000     1.2615870000
   20      H       0.6999930000    -2.9417470000     0.6458870000
   21      H       0.4075930000     2.3747530000     2.2802870000
 ----------------------------------------------------------------

   11   -1389.2686476067      4.90e-07  Convergence criterion met
 Total energy in the final basis set =    -1389.2686476067
        RIMP2         total energy =     -1391.7738616334 a.u.

                    Orbital Energies (a.u.)
 --------------------------------------------------------------

 Alpha MOs
 -- Occupied --
-92.0073 -91.9919 -26.3404 -20.6133 -20.5594 -11.4073 -11.3784 -11.2999
-11.2941 -11.2929 -11.2880 -11.2854 -11.2785 -11.2255  -9.0063  -8.9920
 -6.6871  -6.6865  -6.6860  -6.6731  -6.6724  -6.6712  -1.6576  -1.4657
 -1.3683  -1.2124  -1.1370  -1.0649  -1.0197  -0.9949  -0.9586  -0.9122
 -0.8637  -0.8066  -0.7883  -0.7579  -0.7313  -0.7225  -0.6913  -0.6831
 -0.6725  -0.6605  -0.6074  -0.6025  -0.5921  -0.5763  -0.5659  -0.5564
 -0.5397  -0.5298  -0.5078  -0.4824  -0.4736  -0.4711  -0.4687  -0.4571
 -0.3909  -0.3452  -0.2901

          Ground-State Mulliken Net Atomic Charges

     Atom                 Charge (a.u.)
  ----------------------------------------
      1 C                     0.036277
      2 S                     0.075953
      3 C                    -0.209981
      4 C                    -0.015108
      5 C                    -0.089171
      6 S                    -0.003463
      7 C                    -0.157293
      8 C                     0.389292
      9 F                    -0.208654
     10 C                     0.445662
     11 O                    -0.462298
     12 O                    -0.300890
     13 C                    -0.058630
     14 H                     0.121008
     15 H                     0.094774
     16 H                     0.094673
     17 C                    -0.374128
     18 H                     0.115782
     19 H                     0.149450
     20 H                     0.142292
     21 H                     0.214452
  ----------------------------------------
  Sum of atomic charges =     0.000000

                    Cartesian Multipole Moments
 -----------------------------------------------------------------
    Charge (ESU x 10^10)
                -0.0000
    Dipole Moment (Debye)
         X       0.6366      Y       0.6194      Z       3.8129
       Tot       3.9150
    Quadrupole Moments (Debye-Ang)
        XX     -96.0986     XY       1.3927     YY     -81.6746
        XZ      -1.4825     YZ     -11.3252     ZZ     -95.4875

 Total job time:  61.28s(wall), 2263.11s(cpu)
        *  Thank you very much for using Q-Chem.  Have a nice day.  *
