 Q-Chem 5.4, Q-Chem, Inc., Pleasanton, CA (2021)
 Q-Chem 5.4.0 for Intel X86 EM64T Linux

User input:
--------------------------------------------------------------
$molecule
0 1
C	-0.807930	-0.620864	0.976149
S	-0.114530	-0.039664	2.483649
C	1.089570	0.971736	1.695049
C	-0.114630	-0.040064	-0.091751
C	0.948870	0.855236	0.289749
S	-0.299330	-0.198864	-1.829351
C	1.038970	0.931336	-2.078351
C	1.579970	1.388536	-0.886451
F	2.600770	2.251436	-0.842951
C	1.383370	1.217936	-3.479951
O	0.798770	0.716936	-4.430351
O	2.413170	2.091736	-3.593051
C	2.795770	2.405936	-4.940051
H	3.634670	3.119036	-4.856951
H	1.951070	2.863036	-5.494051
H	3.114070	1.493236	-5.483151
C	-0.558730	-2.034264	0.976149
H	0.506170	-1.854564	0.968749
H	-0.440730	-2.701864	1.816849
H	-0.473030	-2.558464	0.035749
H	1.796770	1.566936	2.282649
$end

$rem
JOBTYPE		SP
EXCHANGE	HF
CORRELATION	pRIMP2
BASIS		cc-pvtz
METHOD		rimp2
AUX_BASIS	rimp2-cc-pvtz
SOLVENT_METHOD	PCM
PURECART	11111
SYMMETRY	false
MEM_TOTAL	110000
SCF_CONVERGENCE = 6
THRESH=10
GUI = 2
$end

$solvent
dielectric 4.90
$end
--------------------------------------------------------------

             Standard Nuclear Orientation (Angstroms)
    I     Atom           X                Y                Z
 ----------------------------------------------------------------
    1      C      -0.8079300000    -0.6208640000     0.9761490000
    2      S      -0.1145300000    -0.0396640000     2.4836490000
    3      C       1.0895700000     0.9717360000     1.6950490000
    4      C      -0.1146300000    -0.0400640000    -0.0917510000
    5      C       0.9488700000     0.8552360000     0.2897490000
    6      S      -0.2993300000    -0.1988640000    -1.8293510000
    7      C       1.0389700000     0.9313360000    -2.0783510000
    8      C       1.5799700000     1.3885360000    -0.8864510000
    9      F       2.6007700000     2.2514360000    -0.8429510000
   10      C       1.3833700000     1.2179360000    -3.4799510000
   11      O       0.7987700000     0.7169360000    -4.4303510000
   12      O       2.4131700000     2.0917360000    -3.5930510000
   13      C       2.7957700000     2.4059360000    -4.9400510000
   14      H       3.6346700000     3.1190360000    -4.8569510000
   15      H       1.9510700000     2.8630360000    -5.4940510000
   16      H       3.1140700000     1.4932360000    -5.4831510000
   17      C      -0.5587300000    -2.0342640000     0.9761490000
   18      H       0.5061700000    -1.8545640000     0.9687490000
   19      H      -0.4407300000    -2.7018640000     1.8168490000
   20      H      -0.4730300000    -2.5584640000     0.0357490000
   21      H       1.7967700000     1.5669360000     2.2826490000
 ----------------------------------------------------------------

   11   -1389.1998147266      5.32e-07  Convergence criterion met
 Total energy in the final basis set =    -1389.1998147266
        RIMP2         total energy =     -1391.7186439085 a.u.

                    Orbital Energies (a.u.)
 --------------------------------------------------------------

 Alpha MOs
 -- Occupied --
-92.0028 -92.0023 -26.3437 -20.6147 -20.5607 -11.4091 -11.3830 -11.3213
-11.3006 -11.2960 -11.2889 -11.2838 -11.2706 -11.2224  -9.0028  -9.0021
 -6.6835  -6.6830  -6.6826  -6.6824  -6.6823  -6.6813  -1.6608  -1.4671
 -1.3697  -1.2251  -1.1468  -1.0722  -1.0229  -0.9910  -0.9611  -0.9044
 -0.8671  -0.8106  -0.7918  -0.7612  -0.7351  -0.7256  -0.6983  -0.6846
 -0.6739  -0.6627  -0.6156  -0.6028  -0.5965  -0.5704  -0.5641  -0.5590
 -0.5319  -0.5247  -0.5088  -0.5046  -0.4766  -0.4734  -0.4720  -0.4469
 -0.3796  -0.3457  -0.2868

          Ground-State Mulliken Net Atomic Charges

     Atom                 Charge (a.u.)
  ----------------------------------------
      1 C                    -0.116662
      2 S                     0.097449
      3 C                    -0.159406
      4 C                     0.072775
      5 C                    -0.117833
      6 S                     0.034832
      7 C                    -0.154784
      8 C                     0.391291
      9 F                    -0.206608
     10 C                     0.449191
     11 O                    -0.462911
     12 O                    -0.301195
     13 C                    -0.058293
     14 H                     0.121258
     15 H                     0.095108
     16 H                     0.094871
     17 C                    -0.368108
     18 H                     0.095213
     19 H                     0.149540
     20 H                     0.128630
     21 H                     0.215640
  ----------------------------------------
  Sum of atomic charges =     0.000000

                    Cartesian Multipole Moments
 -----------------------------------------------------------------
    Charge (ESU x 10^10)
                -0.0000
    Dipole Moment (Debye)
         X       3.3274      Y       0.8605      Z       2.7571
       Tot       4.4061
    Quadrupole Moments (Debye-Ang)
        XX     -92.5919     XY       4.4431     YY     -89.5687
        XZ      -4.3557     YZ      -5.7375     ZZ     -95.0597

 Total job time:  66.53s(wall), 1945.29s(cpu)
        *  Thank you very much for using Q-Chem.  Have a nice day.  *
