 Q-Chem 5.4, Q-Chem, Inc., Pleasanton, CA (2021)
 Q-Chem 5.4.0 for Intel X86 EM64T Linux

User input:
--------------------------------------------------------------
$molecule
0 1
C	-0.353267	-0.928548	0.975680
S	-0.043367	-0.078548	2.483180
C	0.493733	1.399452	1.694580
C	-0.043267	-0.078948	-0.092220
C	0.430033	1.228152	0.289280
S	-0.123867	-0.308748	-1.829820
C	0.470033	1.339152	-2.078820
C	0.710033	2.005552	-0.886920
F	1.162633	3.263252	-0.843420
C	0.625033	1.759552	-3.480420
O	0.369233	1.033352	-4.430820
O	1.079933	3.031152	-3.593520
C	1.254233	3.494552	-4.940520
H	1.624233	4.531652	-4.857420
H	0.294133	3.468052	-5.494520
H	1.986233	2.863252	-5.483620
C	-0.353267	-2.363748	0.975680
H	-1.433167	-2.371748	0.983080
H	-0.353567	-3.041648	0.134980
H	-0.346567	-2.894848	1.916080
H	0.808533	2.268452	2.282180
$end

$rem
JOBTYPE		SP
EXCHANGE	HF
CORRELATION	pRIMP2
BASIS		cc-pvtz
METHOD		rimp2
AUX_BASIS	rimp2-cc-pvtz
SOLVENT_METHOD	PCM
PURECART	11111
SYMMETRY	false
MEM_TOTAL	110000
SCF_CONVERGENCE = 6
THRESH=10
GUI = 2
$end

$solvent
dielectric 4.90
$end
--------------------------------------------------------------

             Standard Nuclear Orientation (Angstroms)
    I     Atom           X                Y                Z
 ----------------------------------------------------------------
    1      C      -0.3532670000    -0.9285480000     0.9756800000
    2      S      -0.0433670000    -0.0785480000     2.4831800000
    3      C       0.4937330000     1.3994520000     1.6945800000
    4      C      -0.0432670000    -0.0789480000    -0.0922200000
    5      C       0.4300330000     1.2281520000     0.2892800000
    6      S      -0.1238670000    -0.3087480000    -1.8298200000
    7      C       0.4700330000     1.3391520000    -2.0788200000
    8      C       0.7100330000     2.0055520000    -0.8869200000
    9      F       1.1626330000     3.2632520000    -0.8434200000
   10      C       0.6250330000     1.7595520000    -3.4804200000
   11      O       0.3692330000     1.0333520000    -4.4308200000
   12      O       1.0799330000     3.0311520000    -3.5935200000
   13      C       1.2542330000     3.4945520000    -4.9405200000
   14      H       1.6242330000     4.5316520000    -4.8574200000
   15      H       0.2941330000     3.4680520000    -5.4945200000
   16      H       1.9862330000     2.8632520000    -5.4836200000
   17      C      -0.3532670000    -2.3637480000     0.9756800000
   18      H      -1.4331670000    -2.3717480000     0.9830800000
   19      H      -0.3535670000    -3.0416480000     0.1349800000
   20      H      -0.3465670000    -2.8948480000     1.9160800000
   21      H       0.8085330000     2.2684520000     2.2821800000
 ----------------------------------------------------------------

   11   -1389.2615942309      5.04e-07  Convergence criterion met
 Total energy in the final basis set =    -1389.2615942309
        RIMP2         total energy =     -1391.7679582402 a.u.

                    Orbital Energies (a.u.)
 --------------------------------------------------------------

 Alpha MOs
 -- Occupied --
-92.0057 -91.9910 -26.3398 -20.6133 -20.5594 -11.4072 -11.3776 -11.2982
-11.2941 -11.2941 -11.2880 -11.2815 -11.2782 -11.2279  -9.0046  -8.9911
 -6.6854  -6.6848  -6.6843  -6.6722  -6.6715  -6.6704  -1.6571  -1.4657
 -1.3682  -1.2115  -1.1362  -1.0660  -1.0182  -0.9952  -0.9578  -0.9131
 -0.8628  -0.8046  -0.7879  -0.7582  -0.7300  -0.7220  -0.6923  -0.6830
 -0.6724  -0.6597  -0.6125  -0.5942  -0.5872  -0.5823  -0.5609  -0.5595
 -0.5324  -0.5267  -0.5129  -0.5000  -0.4726  -0.4715  -0.4706  -0.4581
 -0.3821  -0.3448  -0.2804

          Ground-State Mulliken Net Atomic Charges

     Atom                 Charge (a.u.)
  ----------------------------------------
      1 C                     0.026774
      2 S                     0.083806
      3 C                    -0.226949
      4 C                    -0.030635
      5 C                    -0.088930
      6 S                    -0.010310
      7 C                    -0.157730
      8 C                     0.393141
      9 F                    -0.208957
     10 C                     0.446283
     11 O                    -0.462191
     12 O                    -0.300792
     13 C                    -0.058475
     14 H                     0.121002
     15 H                     0.094679
     16 H                     0.094690
     17 C                    -0.384855
     18 H                     0.143426
     19 H                     0.167453
     20 H                     0.145989
     21 H                     0.212581
  ----------------------------------------
  Sum of atomic charges =     0.000000

                    Cartesian Multipole Moments
 -----------------------------------------------------------------
    Charge (ESU x 10^10)
                -0.0000
    Dipole Moment (Debye)
         X      -0.0620      Y       0.0597      Z       3.2823
       Tot       3.2834
    Quadrupole Moments (Debye-Ang)
        XX     -95.3202     XY       5.6227     YY     -82.1101
        XZ      -3.6714     YZ      -9.9455     ZZ     -96.3050

 Total job time:  54.23s(wall), 1925.53s(cpu)
        *  Thank you very much for using Q-Chem.  Have a nice day.  *
