 Q-Chem 5.4, Q-Chem, Inc., Pleasanton, CA (2021)
 Q-Chem 5.4.0 for Intel X86 EM64T Linux

User input:
--------------------------------------------------------------
$molecule
0 1
C	-0.266672	-0.955820	0.975680
S	-0.032072	-0.082020	2.483180
C	0.374228	1.437180	1.694580
C	-0.031872	-0.082420	-0.092220
C	0.325728	1.260980	0.289280
S	-0.092172	-0.318420	-1.829820
C	0.355928	1.374980	-2.078820
C	0.536828	2.059780	-0.886920
F	0.878128	3.352180	-0.843420
C	0.473628	1.807280	-3.480420
O	0.282128	1.061580	-4.430820
O	0.816028	3.113680	-3.593520
C	0.949128	3.590580	-4.940520
H	1.227428	4.655880	-4.857420
H	-0.004972	3.480480	-5.494520
H	1.733428	3.025480	-5.483620
C	-0.266672	-2.391020	0.975680
H	-1.346572	-2.399020	0.983080
H	-0.266972	-3.068920	0.134980
H	-0.259972	-2.922120	1.916080
H	0.612028	2.330280	2.282180
$end

$rem
JOBTYPE		SP
EXCHANGE	HF
CORRELATION	pRIMP2
BASIS		cc-pvtz
METHOD		rimp2
AUX_BASIS	rimp2-cc-pvtz
SOLVENT_METHOD	PCM
PURECART	11111
SYMMETRY	false
MEM_TOTAL	110000
SCF_CONVERGENCE = 6
THRESH=10
GUI = 2
$end

$solvent
dielectric 4.90
$end
--------------------------------------------------------------

             Standard Nuclear Orientation (Angstroms)
    I     Atom           X                Y                Z
 ----------------------------------------------------------------
    1      C      -0.2666720000    -0.9558200000     0.9756800000
    2      S      -0.0320720000    -0.0820200000     2.4831800000
    3      C       0.3742280000     1.4371800000     1.6945800000
    4      C      -0.0318720000    -0.0824200000    -0.0922200000
    5      C       0.3257280000     1.2609800000     0.2892800000
    6      S      -0.0921720000    -0.3184200000    -1.8298200000
    7      C       0.3559280000     1.3749800000    -2.0788200000
    8      C       0.5368280000     2.0597800000    -0.8869200000
    9      F       0.8781280000     3.3521800000    -0.8434200000
   10      C       0.4736280000     1.8072800000    -3.4804200000
   11      O       0.2821280000     1.0615800000    -4.4308200000
   12      O       0.8160280000     3.1136800000    -3.5935200000
   13      C       0.9491280000     3.5905800000    -4.9405200000
   14      H       1.2274280000     4.6558800000    -4.8574200000
   15      H      -0.0049720000     3.4804800000    -5.4945200000
   16      H       1.7334280000     3.0254800000    -5.4836200000
   17      C      -0.2666720000    -2.3910200000     0.9756800000
   18      H      -1.3465720000    -2.3990200000     0.9830800000
   19      H      -0.2669720000    -3.0689200000     0.1349800000
   20      H      -0.2599720000    -2.9221200000     1.9160800000
   21      H       0.6120280000     2.3302800000     2.2821800000
 ----------------------------------------------------------------

   11   -1389.2661136079      5.13e-07  Convergence criterion met
 Total energy in the final basis set =    -1389.2661136079
        RIMP2         total energy =     -1391.7713419156 a.u.

                    Orbital Energies (a.u.)
 --------------------------------------------------------------

 Alpha MOs
 -- Occupied --
-92.0060 -91.9904 -26.3397 -20.6133 -20.5594 -11.4072 -11.3774 -11.3004
-11.2941 -11.2926 -11.2879 -11.2803 -11.2781 -11.2294  -9.0049  -8.9906
 -6.6857  -6.6851  -6.6846  -6.6716  -6.6709  -6.6698  -1.6569  -1.4656
 -1.3682  -1.2111  -1.1361  -1.0662  -1.0180  -0.9956  -0.9577  -0.9132
 -0.8627  -0.8043  -0.7878  -0.7581  -0.7301  -0.7219  -0.6922  -0.6830
 -0.6724  -0.6598  -0.6127  -0.5941  -0.5871  -0.5831  -0.5608  -0.5594
 -0.5325  -0.5268  -0.5144  -0.4999  -0.4724  -0.4715  -0.4704  -0.4589
 -0.3827  -0.3448  -0.2802

          Ground-State Mulliken Net Atomic Charges

     Atom                 Charge (a.u.)
  ----------------------------------------
      1 C                     0.035935
      2 S                     0.082437
      3 C                    -0.229681
      4 C                    -0.030447
      5 C                    -0.091154
      6 S                    -0.013616
      7 C                    -0.157643
      8 C                     0.392703
      9 F                    -0.209194
     10 C                     0.445965
     11 O                    -0.462078
     12 O                    -0.300702
     13 C                    -0.058525
     14 H                     0.121043
     15 H                     0.094665
     16 H                     0.094665
     17 C                    -0.386619
     18 H                     0.144949
     19 H                     0.168706
     20 H                     0.145989
     21 H                     0.212602
  ----------------------------------------
  Sum of atomic charges =     0.000000

                    Cartesian Multipole Moments
 -----------------------------------------------------------------
    Charge (ESU x 10^10)
                -0.0000
    Dipole Moment (Debye)
         X      -0.2573      Y      -0.0052      Z       3.3082
       Tot       3.3182
    Quadrupole Moments (Debye-Ang)
        XX     -95.9481     XY       4.8370     YY     -81.3341
        XZ      -2.9808     YZ     -10.3328     ZZ     -96.3545

 Total job time:  55.20s(wall), 1953.79s(cpu)
        *  Thank you very much for using Q-Chem.  Have a nice day.  *
