 Q-Chem 5.4, Q-Chem, Inc., Pleasanton, CA (2021)
 Q-Chem 5.4.0 for Intel X86 EM64T Linux

User input:
--------------------------------------------------------------
$molecule
0 1
C	-0.270940	-0.955820	0.977293
S	-0.036340	-0.082020	2.484793
C	0.369960	1.437180	1.696193
C	-0.036140	-0.082420	-0.090607
C	0.321460	1.260980	0.290893
S	-0.096440	-0.318420	-1.828207
C	0.351660	1.374980	-2.077207
C	0.532560	2.059780	-0.885307
F	0.873860	3.352180	-0.841807
C	0.469360	1.807280	-3.478807
O	0.277860	1.061580	-4.429207
O	0.811760	3.113680	-3.591907
C	0.944860	3.590580	-4.938907
H	1.223160	4.655880	-4.855807
H	-0.009240	3.480480	-5.492907
H	1.729160	3.025480	-5.482007
C	-0.270940	-2.391020	0.977293
H	0.660560	-2.399020	0.430893
H	0.149660	-3.068920	1.705193
H	-0.746840	-2.922120	0.166293
H	0.607760	2.330280	2.283793
$end

$rem
JOBTYPE		SP
EXCHANGE	HF
CORRELATION	pRIMP2
BASIS		cc-pvtz
METHOD		rimp2
AUX_BASIS	rimp2-cc-pvtz
SOLVENT_METHOD	PCM
PURECART	11111
SYMMETRY	false
MEM_TOTAL	110000
SCF_CONVERGENCE = 6
THRESH=10
GUI = 2
$end

$solvent
dielectric 4.90
$end
--------------------------------------------------------------

             Standard Nuclear Orientation (Angstroms)
    I     Atom           X                Y                Z
 ----------------------------------------------------------------
    1      C      -0.2709400000    -0.9558200000     0.9772930000
    2      S      -0.0363400000    -0.0820200000     2.4847930000
    3      C       0.3699600000     1.4371800000     1.6961930000
    4      C      -0.0361400000    -0.0824200000    -0.0906070000
    5      C       0.3214600000     1.2609800000     0.2908930000
    6      S      -0.0964400000    -0.3184200000    -1.8282070000
    7      C       0.3516600000     1.3749800000    -2.0772070000
    8      C       0.5325600000     2.0597800000    -0.8853070000
    9      F       0.8738600000     3.3521800000    -0.8418070000
   10      C       0.4693600000     1.8072800000    -3.4788070000
   11      O       0.2778600000     1.0615800000    -4.4292070000
   12      O       0.8117600000     3.1136800000    -3.5919070000
   13      C       0.9448600000     3.5905800000    -4.9389070000
   14      H       1.2231600000     4.6558800000    -4.8558070000
   15      H      -0.0092400000     3.4804800000    -5.4929070000
   16      H       1.7291600000     3.0254800000    -5.4820070000
   17      C      -0.2709400000    -2.3910200000     0.9772930000
   18      H       0.6605600000    -2.3990200000     0.4308930000
   19      H       0.1496600000    -3.0689200000     1.7051930000
   20      H      -0.7468400000    -2.9221200000     0.1662930000
   21      H       0.6077600000     2.3302800000     2.2837930000
 ----------------------------------------------------------------

   11   -1389.2690475339      5.06e-07  Convergence criterion met
 Total energy in the final basis set =    -1389.2690475339
        RIMP2         total energy =     -1391.7749077524 a.u.

                    Orbital Energies (a.u.)
 --------------------------------------------------------------

 Alpha MOs
 -- Occupied --
-92.0060 -91.9922 -26.3403 -20.6136 -20.5597 -11.4076 -11.3783 -11.3014
-11.2946 -11.2926 -11.2881 -11.2816 -11.2789 -11.2299  -9.0048  -8.9923
 -6.6856  -6.6850  -6.6845  -6.6733  -6.6726  -6.6715  -1.6575  -1.4659
 -1.3685  -1.2123  -1.1365  -1.0677  -1.0181  -0.9951  -0.9579  -0.9127
 -0.8630  -0.8042  -0.7884  -0.7587  -0.7302  -0.7224  -0.6929  -0.6833
 -0.6727  -0.6602  -0.6109  -0.5960  -0.5907  -0.5868  -0.5630  -0.5598
 -0.5321  -0.5291  -0.5086  -0.4967  -0.4727  -0.4713  -0.4682  -0.4624
 -0.3842  -0.3444  -0.2835

          Ground-State Mulliken Net Atomic Charges

     Atom                 Charge (a.u.)
  ----------------------------------------
      1 C                     0.045202
      2 S                     0.079751
      3 C                    -0.227093
      4 C                    -0.028668
      5 C                    -0.088194
      6 S                    -0.013236
      7 C                    -0.154740
      8 C                     0.386885
      9 F                    -0.208486
     10 C                     0.446758
     11 O                    -0.462205
     12 O                    -0.300776
     13 C                    -0.058486
     14 H                     0.121113
     15 H                     0.094794
     16 H                     0.094612
     17 C                    -0.392199
     18 H                     0.139590
     19 H                     0.166878
     20 H                     0.146767
     21 H                     0.211733
  ----------------------------------------
  Sum of atomic charges =     0.000000

                    Cartesian Multipole Moments
 -----------------------------------------------------------------
    Charge (ESU x 10^10)
                -0.0000
    Dipole Moment (Debye)
         X       1.0867      Y       0.0611      Z       2.9237
       Tot       3.1197
    Quadrupole Moments (Debye-Ang)
        XX     -96.4672     XY       1.3250     YY     -81.4760
        XZ      -1.2911     YZ      -9.6817     ZZ     -97.0972

 Total job time:  62.05s(wall), 1968.47s(cpu)
        *  Thank you very much for using Q-Chem.  Have a nice day.  *
