 Q-Chem 5.4, Q-Chem, Inc., Pleasanton, CA (2021)
 Q-Chem 5.4.0 for Intel X86 EM64T Linux

User input:
--------------------------------------------------------------
$molecule
0 1
C	-0.271310	-0.955820	0.975331
S	-0.036710	-0.082020	2.482831
C	0.369590	1.437180	1.694231
C	-0.036510	-0.082420	-0.092569
C	0.321090	1.260980	0.288931
S	-0.096810	-0.318420	-1.830169
C	0.351290	1.374980	-2.079169
C	0.532190	2.059780	-0.887269
F	0.873490	3.352180	-0.843769
C	0.468990	1.807280	-3.480769
O	0.277490	1.061580	-4.431169
O	0.811390	3.113680	-3.593869
C	0.944490	3.590580	-4.940869
H	1.222790	4.655880	-4.857769
H	-0.009610	3.480480	-5.494869
H	1.728790	3.025480	-5.483969
C	-0.271310	-2.391020	0.975331
H	0.746090	-2.399020	1.337731
H	-0.558610	-3.068920	1.765431
H	0.044090	-2.922120	0.089431
H	0.607390	2.330280	2.281831
$end

$rem
JOBTYPE		SP
EXCHANGE	HF
CORRELATION	pRIMP2
BASIS		cc-pvtz
METHOD		rimp2
AUX_BASIS	rimp2-cc-pvtz
SOLVENT_METHOD	PCM
PURECART	11111
SYMMETRY	false
MEM_TOTAL	110000
SCF_CONVERGENCE = 6
THRESH=10
GUI = 2
$end

$solvent
dielectric 4.90
$end
--------------------------------------------------------------

             Standard Nuclear Orientation (Angstroms)
    I     Atom           X                Y                Z
 ----------------------------------------------------------------
    1      C      -0.2713100000    -0.9558200000     0.9753310000
    2      S      -0.0367100000    -0.0820200000     2.4828310000
    3      C       0.3695900000     1.4371800000     1.6942310000
    4      C      -0.0365100000    -0.0824200000    -0.0925690000
    5      C       0.3210900000     1.2609800000     0.2889310000
    6      S      -0.0968100000    -0.3184200000    -1.8301690000
    7      C       0.3512900000     1.3749800000    -2.0791690000
    8      C       0.5321900000     2.0597800000    -0.8872690000
    9      F       0.8734900000     3.3521800000    -0.8437690000
   10      C       0.4689900000     1.8072800000    -3.4807690000
   11      O       0.2774900000     1.0615800000    -4.4311690000
   12      O       0.8113900000     3.1136800000    -3.5938690000
   13      C       0.9444900000     3.5905800000    -4.9408690000
   14      H       1.2227900000     4.6558800000    -4.8577690000
   15      H      -0.0096100000     3.4804800000    -5.4948690000
   16      H       1.7287900000     3.0254800000    -5.4839690000
   17      C      -0.2713100000    -2.3910200000     0.9753310000
   18      H       0.7460900000    -2.3990200000     1.3377310000
   19      H      -0.5586100000    -3.0689200000     1.7654310000
   20      H       0.0440900000    -2.9221200000     0.0894310000
   21      H       0.6073900000     2.3302800000     2.2818310000
 ----------------------------------------------------------------

   11   -1389.2701904623      5.41e-07  Convergence criterion met
 Total energy in the final basis set =    -1389.2701904623
        RIMP2         total energy =     -1391.7741428189 a.u.

                    Orbital Energies (a.u.)
 --------------------------------------------------------------

 Alpha MOs
 -- Occupied --
-92.0044 -91.9900 -26.3398 -20.6134 -20.5595 -11.4073 -11.3776 -11.3020
-11.2943 -11.2937 -11.2880 -11.2811 -11.2783 -11.2312  -9.0035  -8.9902
 -6.6844  -6.6838  -6.6832  -6.6713  -6.6706  -6.6694  -1.6571  -1.4657
 -1.3683  -1.2118  -1.1371  -1.0668  -1.0183  -0.9951  -0.9579  -0.9124
 -0.8629  -0.8048  -0.7879  -0.7582  -0.7310  -0.7220  -0.6918  -0.6831
 -0.6725  -0.6599  -0.6120  -0.5977  -0.5925  -0.5781  -0.5630  -0.5565
 -0.5326  -0.5281  -0.5168  -0.4986  -0.4723  -0.4711  -0.4702  -0.4582
 -0.3851  -0.3459  -0.2808

          Ground-State Mulliken Net Atomic Charges

     Atom                 Charge (a.u.)
  ----------------------------------------
      1 C                     0.058830
      2 S                     0.073415
      3 C                    -0.226407
      4 C                    -0.057162
      5 C                    -0.081664
      6 S                    -0.012355
      7 C                    -0.155326
      8 C                     0.388838
      9 F                    -0.208978
     10 C                     0.445549
     11 O                    -0.461803
     12 O                    -0.300782
     13 C                    -0.058510
     14 H                     0.121058
     15 H                     0.094792
     16 H                     0.094594
     17 C                    -0.383571
     18 H                     0.146984
     19 H                     0.161968
     20 H                     0.147887
     21 H                     0.212644
  ----------------------------------------
  Sum of atomic charges =     0.000000

                    Cartesian Multipole Moments
 -----------------------------------------------------------------
    Charge (ESU x 10^10)
                -0.0000
    Dipole Moment (Debye)
         X       1.1748      Y      -0.0120      Z       3.4999
       Tot       3.6918
    Quadrupole Moments (Debye-Ang)
        XX     -96.6015     XY       1.2727     YY     -81.2269
        XZ      -1.8550     YZ     -11.0943     ZZ     -96.1188

 Total job time:  57.55s(wall), 1986.92s(cpu)
        *  Thank you very much for using Q-Chem.  Have a nice day.  *
