 Q-Chem 5.4, Q-Chem, Inc., Pleasanton, CA (2021)
 Q-Chem 5.4.0 for Intel X86 EM64T Linux

User input:
--------------------------------------------------------------
$molecule
0 1
C	-0.182511	-0.975447	0.976939
S	-0.024911	-0.084547	2.484439
C	0.247389	1.464253	1.695839
C	-0.024711	-0.084847	-0.090961
C	0.214389	1.284553	0.290539
S	-0.064211	-0.325247	-1.828561
C	0.234489	1.400753	-2.077561
C	0.355089	2.098753	-0.885661
F	0.582489	3.415953	-0.842161
C	0.314189	1.841653	-3.479161
O	0.188389	1.082153	-4.429561
O	0.541389	3.172953	-3.592261
C	0.632489	3.659653	-4.939261
H	0.816789	4.745153	-4.856161
H	-0.308411	3.466753	-5.493261
H	1.462989	3.165053	-5.482361
C	-0.182511	-2.410647	0.976939
H	0.829789	-2.418647	0.600539
H	0.105289	-3.088547	1.766839
H	-0.510411	-2.941747	0.095539
H	0.406489	2.374753	2.283439
$end

$rem
JOBTYPE		SP
EXCHANGE	HF
CORRELATION	pRIMP2
BASIS		cc-pvtz
METHOD		rimp2
AUX_BASIS	rimp2-cc-pvtz
SOLVENT_METHOD	PCM
PURECART	11111
SYMMETRY	false
MEM_TOTAL	110000
SCF_CONVERGENCE = 6
THRESH=10
GUI = 2
$end

$solvent
dielectric 4.90
$end
--------------------------------------------------------------

             Standard Nuclear Orientation (Angstroms)
    I     Atom           X                Y                Z
 ----------------------------------------------------------------
    1      C      -0.1825110000    -0.9754470000     0.9769390000
    2      S      -0.0249110000    -0.0845470000     2.4844390000
    3      C       0.2473890000     1.4642530000     1.6958390000
    4      C      -0.0247110000    -0.0848470000    -0.0909610000
    5      C       0.2143890000     1.2845530000     0.2905390000
    6      S      -0.0642110000    -0.3252470000    -1.8285610000
    7      C       0.2344890000     1.4007530000    -2.0775610000
    8      C       0.3550890000     2.0987530000    -0.8856610000
    9      F       0.5824890000     3.4159530000    -0.8421610000
   10      C       0.3141890000     1.8416530000    -3.4791610000
   11      O       0.1883890000     1.0821530000    -4.4295610000
   12      O       0.5413890000     3.1729530000    -3.5922610000
   13      C       0.6324890000     3.6596530000    -4.9392610000
   14      H       0.8167890000     4.7451530000    -4.8561610000
   15      H      -0.3084110000     3.4667530000    -5.4932610000
   16      H       1.4629890000     3.1650530000    -5.4823610000
   17      C      -0.1825110000    -2.4106470000     0.9769390000
   18      H       0.8297890000    -2.4186470000     0.6005390000
   19      H       0.1052890000    -3.0885470000     1.7668390000
   20      H      -0.5104110000    -2.9417470000     0.0955390000
   21      H       0.4064890000     2.3747530000     2.2834390000
 ----------------------------------------------------------------

   11   -1389.2720632167      5.16e-07  Convergence criterion met
 Total energy in the final basis set =    -1389.2720632167
        RIMP2         total energy =     -1391.7767481496 a.u.

                    Orbital Energies (a.u.)
 --------------------------------------------------------------

 Alpha MOs
 -- Occupied --
-92.0060 -91.9911 -26.3400 -20.6135 -20.5596 -11.4074 -11.3778 -11.3037
-11.2945 -11.2908 -11.2880 -11.2802 -11.2786 -11.2315  -9.0047  -8.9912
 -6.6855  -6.6849  -6.6844  -6.6723  -6.6716  -6.6704  -1.6572  -1.4658
 -1.3684  -1.2116  -1.1363  -1.0676  -1.0179  -0.9955  -0.9577  -0.9130
 -0.8628  -0.8040  -0.7881  -0.7585  -0.7303  -0.7221  -0.6924  -0.6832
 -0.6726  -0.6600  -0.6116  -0.5953  -0.5904  -0.5862  -0.5618  -0.5601
 -0.5321  -0.5285  -0.5108  -0.4993  -0.4724  -0.4713  -0.4692  -0.4616
 -0.3839  -0.3447  -0.2816

          Ground-State Mulliken Net Atomic Charges

     Atom                 Charge (a.u.)
  ----------------------------------------
      1 C                     0.053544
      2 S                     0.078662
      3 C                    -0.231374
      4 C                    -0.032208
      5 C                    -0.088896
      6 S                    -0.016962
      7 C                    -0.155076
      8 C                     0.386393
      9 F                    -0.208810
     10 C                     0.446466
     11 O                    -0.462047
     12 O                    -0.300722
     13 C                    -0.058640
     14 H                     0.121123
     15 H                     0.094794
     16 H                     0.094635
     17 C                    -0.392906
     18 H                     0.144988
     19 H                     0.167394
     20 H                     0.147894
     21 H                     0.211747
  ----------------------------------------
  Sum of atomic charges =     0.000000

                    Cartesian Multipole Moments
 -----------------------------------------------------------------
    Charge (ESU x 10^10)
                -0.0000
    Dipole Moment (Debye)
         X       0.9785      Y      -0.0699      Z       3.0523
       Tot       3.2061
    Quadrupole Moments (Debye-Ang)
        XX     -96.8690     XY       0.2566     YY     -80.7612
        XZ      -0.6038     YZ     -10.2994     ZZ     -96.9341

 Total job time:  58.46s(wall), 1982.45s(cpu)
        *  Thank you very much for using Q-Chem.  Have a nice day.  *
