 Q-Chem 5.4, Q-Chem, Inc., Pleasanton, CA (2021)
 Q-Chem 5.4.0 for Intel X86 EM64T Linux

User input:
--------------------------------------------------------------
$molecule
0 1
C	-0.902807	-0.471137	0.974266
S	-0.119007	-0.019137	2.481766
C	1.242493	0.767763	1.693166
C	-0.119107	-0.019537	-0.093634
C	1.083593	0.677463	0.287866
S	-0.328707	-0.143837	-1.831234
C	1.185593	0.736763	-2.080234
C	1.797693	1.093063	-0.888334
F	2.952893	1.765563	-0.844834
C	1.574493	0.959163	-3.481834
O	0.911793	0.567363	-4.432234
O	2.740393	1.640863	-3.594934
C	3.171693	1.883963	-4.941934
H	4.121793	2.440463	-4.858834
H	2.419193	2.480763	-5.495934
H	3.326693	0.929763	-5.485034
C	-0.902807	-1.906337	0.974266
H	-0.202907	-1.914337	1.796766
H	-1.546707	-2.584237	1.514866
H	-0.186707	-2.437437	0.364666
H	2.042193	1.231163	2.280766
$end

$rem
JOBTYPE		SP
EXCHANGE	HF
CORRELATION	pRIMP2
BASIS		cc-pvtz
METHOD		rimp2
AUX_BASIS	rimp2-cc-pvtz
SOLVENT_METHOD	PCM
PURECART	11111
SYMMETRY	false
MEM_TOTAL	110000
SCF_CONVERGENCE = 6
THRESH=10
GUI = 2
$end

$solvent
dielectric 4.90
$end
--------------------------------------------------------------

             Standard Nuclear Orientation (Angstroms)
    I     Atom           X                Y                Z
 ----------------------------------------------------------------
    1      C      -0.9028070000    -0.4711370000     0.9742660000
    2      S      -0.1190070000    -0.0191370000     2.4817660000
    3      C       1.2424930000     0.7677630000     1.6931660000
    4      C      -0.1191070000    -0.0195370000    -0.0936340000
    5      C       1.0835930000     0.6774630000     0.2878660000
    6      S      -0.3287070000    -0.1438370000    -1.8312340000
    7      C       1.1855930000     0.7367630000    -2.0802340000
    8      C       1.7976930000     1.0930630000    -0.8883340000
    9      F       2.9528930000     1.7655630000    -0.8448340000
   10      C       1.5744930000     0.9591630000    -3.4818340000
   11      O       0.9117930000     0.5673630000    -4.4322340000
   12      O       2.7403930000     1.6408630000    -3.5949340000
   13      C       3.1716930000     1.8839630000    -4.9419340000
   14      H       4.1217930000     2.4404630000    -4.8588340000
   15      H       2.4191930000     2.4807630000    -5.4959340000
   16      H       3.3266930000     0.9297630000    -5.4850340000
   17      C      -0.9028070000    -1.9063370000     0.9742660000
   18      H      -0.2029070000    -1.9143370000     1.7967660000
   19      H      -1.5467070000    -2.5842370000     1.5148660000
   20      H      -0.1867070000    -2.4374370000     0.3646660000
   21      H       2.0421930000     1.2311630000     2.2807660000
 ----------------------------------------------------------------

   11   -1389.1868864696      6.08e-07  Convergence criterion met
 Total energy in the final basis set =    -1389.1868864696
        RIMP2         total energy =     -1391.7038994566 a.u.

                    Orbital Energies (a.u.)
 --------------------------------------------------------------

 Alpha MOs
 -- Occupied --
-92.0016 -91.9985 -26.3441 -20.6141 -20.5601 -11.4084 -11.3841 -11.3270
-11.3076 -11.2944 -11.2887 -11.2815 -11.2626 -11.2121  -9.0015  -8.9996
 -6.6825  -6.6817  -6.6807  -6.6801  -6.6791  -6.6790  -1.6612  -1.4665
 -1.3692  -1.2249  -1.1474  -1.0704  -1.0246  -0.9899  -0.9619  -0.9024
 -0.8679  -0.8133  -0.7918  -0.7603  -0.7359  -0.7258  -0.6974  -0.6840
 -0.6735  -0.6623  -0.6124  -0.6059  -0.5946  -0.5707  -0.5636  -0.5564
 -0.5313  -0.5247  -0.5154  -0.4977  -0.4783  -0.4729  -0.4716  -0.4326
 -0.3811  -0.3435  -0.2906

          Ground-State Mulliken Net Atomic Charges

     Atom                 Charge (a.u.)
  ----------------------------------------
      1 C                    -0.109522
      2 S                     0.083254
      3 C                    -0.135068
      4 C                     0.062890
      5 C                    -0.119603
      6 S                     0.039116
      7 C                    -0.156139
      8 C                     0.392247
      9 F                    -0.205989
     10 C                     0.447716
     11 O                    -0.464021
     12 O                    -0.301667
     13 C                    -0.058313
     14 H                     0.121082
     15 H                     0.095017
     16 H                     0.094684
     17 C                    -0.382247
     18 H                     0.119758
     19 H                     0.130117
     20 H                     0.129586
     21 H                     0.217102
  ----------------------------------------
  Sum of atomic charges =     0.000000

                    Cartesian Multipole Moments
 -----------------------------------------------------------------
    Charge (ESU x 10^10)
                -0.0000
    Dipole Moment (Debye)
         X       3.6421      Y       0.4847      Z       3.2721
       Tot       4.9200
    Quadrupole Moments (Debye-Ang)
        XX     -90.4339     XY       4.3304     YY     -91.8283
        XZ      -5.4715     YZ      -5.6957     ZZ     -94.6501

 Total job time:  59.31s(wall), 2181.04s(cpu)
        *  Thank you very much for using Q-Chem.  Have a nice day.  *
