 Q-Chem 5.4, Q-Chem, Inc., Pleasanton, CA (2021)
 Q-Chem 5.4.0 for Intel X86 EM64T Linux

User input:
--------------------------------------------------------------
$molecule
0 1
C	-0.090119	-0.987267	0.978264
S	-0.010819	-0.085967	2.485764
C	0.125481	1.480633	1.697164
C	-0.010519	-0.086367	-0.089636
C	0.108281	1.298733	0.291864
S	-0.028919	-0.329267	-1.827236
C	0.118181	1.416233	-2.076236
C	0.177481	2.122133	-0.884336
F	0.289181	3.454033	-0.840836
C	0.159181	1.862433	-3.477836
O	0.099981	1.094833	-4.428236
O	0.269381	3.208433	-3.590936
C	0.317781	3.701233	-4.937936
H	0.406781	4.798633	-4.854836
H	-0.602719	3.427033	-5.491936
H	1.188281	3.280833	-5.481036
C	-0.090119	-2.422467	0.978264
H	-0.097519	-2.430467	-0.101636
H	0.750581	-3.100367	0.977964
H	-1.030519	-2.953567	0.984964
H	0.204681	2.401533	2.284764
$end

$rem
JOBTYPE		SP
EXCHANGE	HF
CORRELATION	pRIMP2
BASIS		cc-pvtz
METHOD		rimp2
AUX_BASIS	rimp2-cc-pvtz
SOLVENT_METHOD	PCM
PURECART	11111
SYMMETRY	false
MEM_TOTAL	110000
SCF_CONVERGENCE = 6
THRESH=10
GUI = 2
$end

$solvent
dielectric 4.90
$end
--------------------------------------------------------------

             Standard Nuclear Orientation (Angstroms)
    I     Atom           X                Y                Z
 ----------------------------------------------------------------
    1      C      -0.0901190000    -0.9872670000     0.9782640000
    2      S      -0.0108190000    -0.0859670000     2.4857640000
    3      C       0.1254810000     1.4806330000     1.6971640000
    4      C      -0.0105190000    -0.0863670000    -0.0896360000
    5      C       0.1082810000     1.2987330000     0.2918640000
    6      S      -0.0289190000    -0.3292670000    -1.8272360000
    7      C       0.1181810000     1.4162330000    -2.0762360000
    8      C       0.1774810000     2.1221330000    -0.8843360000
    9      F       0.2891810000     3.4540330000    -0.8408360000
   10      C       0.1591810000     1.8624330000    -3.4778360000
   11      O       0.0999810000     1.0948330000    -4.4282360000
   12      O       0.2693810000     3.2084330000    -3.5909360000
   13      C       0.3177810000     3.7012330000    -4.9379360000
   14      H       0.4067810000     4.7986330000    -4.8548360000
   15      H      -0.6027190000     3.4270330000    -5.4919360000
   16      H       1.1882810000     3.2808330000    -5.4810360000
   17      C      -0.0901190000    -2.4224670000     0.9782640000
   18      H      -0.0975190000    -2.4304670000    -0.1016360000
   19      H       0.7505810000    -3.1003670000     0.9779640000
   20      H      -1.0305190000    -2.9535670000     0.9849640000
   21      H       0.2046810000     2.4015330000     2.2847640000
 ----------------------------------------------------------------

   11   -1389.2727207702      4.57e-07  Convergence criterion met
 Total energy in the final basis set =    -1389.2727207702
        RIMP2         total energy =     -1391.7786020778 a.u.

                    Orbital Energies (a.u.)
 --------------------------------------------------------------

 Alpha MOs
 -- Occupied --
-92.0027 -91.9938 -26.3413 -20.6137 -20.5598 -11.4078 -11.3799 -11.3005
-11.2947 -11.2941 -11.2904 -11.2883 -11.2788 -11.2264  -9.0019  -8.9940
 -6.6826  -6.6820  -6.6816  -6.6751  -6.6744  -6.6733  -1.6585  -1.4661
 -1.3687  -1.2137  -1.1352  -1.0681  -1.0188  -0.9950  -0.9583  -0.9144
 -0.8635  -0.8054  -0.7891  -0.7593  -0.7301  -0.7233  -0.6946  -0.6835
 -0.6729  -0.6612  -0.6077  -0.6041  -0.5917  -0.5824  -0.5665  -0.5556
 -0.5402  -0.5302  -0.5070  -0.4870  -0.4734  -0.4718  -0.4645  -0.4512
 -0.3936  -0.3449  -0.2925

          Ground-State Mulliken Net Atomic Charges

     Atom                 Charge (a.u.)
  ----------------------------------------
      1 C                     0.042440
      2 S                     0.072899
      3 C                    -0.200239
      4 C                    -0.014501
      5 C                    -0.101046
      6 S                    -0.010566
      7 C                    -0.157947
      8 C                     0.391078
      9 F                    -0.207633
     10 C                     0.444415
     11 O                    -0.463039
     12 O                    -0.301009
     13 C                    -0.058700
     14 H                     0.121191
     15 H                     0.094823
     16 H                     0.094714
     17 C                    -0.362360
     18 H                     0.112402
     19 H                     0.150952
     20 H                     0.139138
     21 H                     0.212990
  ----------------------------------------
  Sum of atomic charges =     0.000000

                    Cartesian Multipole Moments
 -----------------------------------------------------------------
    Charge (ESU x 10^10)
                -0.0000
    Dipole Moment (Debye)
         X       0.1768      Y       0.6395      Z       2.5691
       Tot       2.6534
    Quadrupole Moments (Debye-Ang)
        XX     -96.1192     XY       0.9396     YY     -81.1452
        XZ      -0.6367     YZ      -8.3434     ZZ     -98.1618

 Total job time:  56.28s(wall), 1985.60s(cpu)
        *  Thank you very much for using Q-Chem.  Have a nice day.  *
