 Q-Chem 5.4, Q-Chem, Inc., Pleasanton, CA (2021)
 Q-Chem 5.4.0 for Intel X86 EM64T Linux

User input:
--------------------------------------------------------------
$molecule
0 1
C	-0.899786	-0.471137	0.973964
S	-0.115986	-0.019137	2.481464
C	1.245514	0.767763	1.692864
C	-0.116086	-0.019537	-0.093936
C	1.086614	0.677463	0.287564
S	-0.325686	-0.143837	-1.831536
C	1.188614	0.736763	-2.080536
C	1.800714	1.093063	-0.888636
F	2.955914	1.765563	-0.845136
C	1.577514	0.959163	-3.482136
O	0.914814	0.567363	-4.432536
O	2.743414	1.640863	-3.595236
C	3.174714	1.883963	-4.942236
H	4.124814	2.440463	-4.859136
H	2.422214	2.480763	-5.496236
H	3.329714	0.929763	-5.485336
C	-0.899786	-1.906337	0.973964
H	-1.588286	-1.914337	1.806064
H	-1.543986	-2.584237	0.433764
H	-0.175186	-2.437437	1.573264
H	2.045214	1.231163	2.280464
$end

$rem
JOBTYPE		SP
EXCHANGE	HF
CORRELATION	pRIMP2
BASIS		cc-pvtz
METHOD		rimp2
AUX_BASIS	rimp2-cc-pvtz
SOLVENT_METHOD	PCM
PURECART	11111
SYMMETRY	false
MEM_TOTAL	110000
SCF_CONVERGENCE = 6
THRESH=10
GUI = 2
$end

$solvent
dielectric 4.90
$end
--------------------------------------------------------------

             Standard Nuclear Orientation (Angstroms)
    I     Atom           X                Y                Z
 ----------------------------------------------------------------
    1      C      -0.8997860000    -0.4711370000     0.9739640000
    2      S      -0.1159860000    -0.0191370000     2.4814640000
    3      C       1.2455140000     0.7677630000     1.6928640000
    4      C      -0.1160860000    -0.0195370000    -0.0939360000
    5      C       1.0866140000     0.6774630000     0.2875640000
    6      S      -0.3256860000    -0.1438370000    -1.8315360000
    7      C       1.1886140000     0.7367630000    -2.0805360000
    8      C       1.8007140000     1.0930630000    -0.8886360000
    9      F       2.9559140000     1.7655630000    -0.8451360000
   10      C       1.5775140000     0.9591630000    -3.4821360000
   11      O       0.9148140000     0.5673630000    -4.4325360000
   12      O       2.7434140000     1.6408630000    -3.5952360000
   13      C       3.1747140000     1.8839630000    -4.9422360000
   14      H       4.1248140000     2.4404630000    -4.8591360000
   15      H       2.4222140000     2.4807630000    -5.4962360000
   16      H       3.3297140000     0.9297630000    -5.4853360000
   17      C      -0.8997860000    -1.9063370000     0.9739640000
   18      H      -1.5882860000    -1.9143370000     1.8060640000
   19      H      -1.5439860000    -2.5842370000     0.4337640000
   20      H      -0.1751860000    -2.4374370000     1.5732640000
   21      H       2.0452140000     1.2311630000     2.2804640000
 ----------------------------------------------------------------

   11   -1389.1988162624      6.07e-07  Convergence criterion met
 Total energy in the final basis set =    -1389.1988162624
        RIMP2         total energy =     -1391.7137870193 a.u.

                    Orbital Energies (a.u.)
 --------------------------------------------------------------

 Alpha MOs
 -- Occupied --
-92.0042 -92.0032 -26.3435 -20.6141 -20.5600 -11.4085 -11.3833 -11.3273
-11.3059 -11.2945 -11.2886 -11.2811 -11.2540 -11.2139  -9.0040  -9.0030
 -6.6847  -6.6839  -6.6837  -6.6836  -6.6832  -6.6822  -1.6607  -1.4665
 -1.3692  -1.2223  -1.1439  -1.0681  -1.0238  -0.9908  -0.9613  -0.9060
 -0.8672  -0.8120  -0.7912  -0.7601  -0.7343  -0.7254  -0.6960  -0.6840
 -0.6734  -0.6615  -0.6130  -0.6011  -0.5917  -0.5758  -0.5672  -0.5610
 -0.5309  -0.5211  -0.5100  -0.4821  -0.4738  -0.4719  -0.4632  -0.4530
 -0.3793  -0.3422  -0.2976

          Ground-State Mulliken Net Atomic Charges

     Atom                 Charge (a.u.)
  ----------------------------------------
      1 C                    -0.164536
      2 S                     0.092734
      3 C                    -0.131104
      4 C                     0.115766
      5 C                    -0.126219
      6 S                     0.042056
      7 C                    -0.159922
      8 C                     0.392666
      9 F                    -0.206462
     10 C                     0.448365
     11 O                    -0.464146
     12 O                    -0.301571
     13 C                    -0.058284
     14 H                     0.121128
     15 H                     0.094979
     16 H                     0.094754
     17 C                    -0.379511
     18 H                     0.110682
     19 H                     0.141247
     20 H                     0.119406
     21 H                     0.217972
  ----------------------------------------
  Sum of atomic charges =     0.000000

                    Cartesian Multipole Moments
 -----------------------------------------------------------------
    Charge (ESU x 10^10)
                -0.0000
    Dipole Moment (Debye)
         X       2.9877      Y       0.6620      Z       3.1297
       Tot       4.3772
    Quadrupole Moments (Debye-Ang)
        XX     -89.2260     XY       6.0575     YY     -91.6188
        XZ      -5.3582     YZ      -4.8957     ZZ     -94.6442

 Total job time:  84.17s(wall), 2115.17s(cpu)
        *  Thank you very much for using Q-Chem.  Have a nice day.  *
