 Q-Chem 5.4, Q-Chem, Inc., Pleasanton, CA (2021)
 Q-Chem 5.4.0 for Intel X86 EM64T Linux

User input:
--------------------------------------------------------------
$molecule
0 1
C	-0.181022	-0.975447	0.973641
S	-0.023422	-0.084547	2.481141
C	0.248878	1.464253	1.692541
C	-0.023222	-0.084847	-0.094259
C	0.215878	1.284553	0.287241
S	-0.062722	-0.325247	-1.831859
C	0.235978	1.400753	-2.080859
C	0.356578	2.098753	-0.888959
F	0.583978	3.415953	-0.845459
C	0.315678	1.841653	-3.482459
O	0.189878	1.082153	-4.432859
O	0.542878	3.172953	-3.595559
C	0.633978	3.659653	-4.942559
H	0.818278	4.745153	-4.859459
H	-0.306922	3.466753	-5.496559
H	1.464478	3.165053	-5.485659
C	-0.181022	-2.410647	0.973641
H	0.013878	-2.418647	2.035841
H	-1.008922	-3.088547	1.119941
H	0.743878	-2.941747	0.803841
H	0.407978	2.374753	2.280141
$end

$rem
JOBTYPE		SP
EXCHANGE	HF
CORRELATION	pRIMP2
BASIS		cc-pvtz
METHOD		rimp2
AUX_BASIS	rimp2-cc-pvtz
SOLVENT_METHOD	PCM
PURECART	11111
SYMMETRY	false
MEM_TOTAL	110000
SCF_CONVERGENCE = 6
THRESH=10
GUI = 2
$end

$solvent
dielectric 4.90
$end
--------------------------------------------------------------

             Standard Nuclear Orientation (Angstroms)
    I     Atom           X                Y                Z
 ----------------------------------------------------------------
    1      C      -0.1810220000    -0.9754470000     0.9736410000
    2      S      -0.0234220000    -0.0845470000     2.4811410000
    3      C       0.2488780000     1.4642530000     1.6925410000
    4      C      -0.0232220000    -0.0848470000    -0.0942590000
    5      C       0.2158780000     1.2845530000     0.2872410000
    6      S      -0.0627220000    -0.3252470000    -1.8318590000
    7      C       0.2359780000     1.4007530000    -2.0808590000
    8      C       0.3565780000     2.0987530000    -0.8889590000
    9      F       0.5839780000     3.4159530000    -0.8454590000
   10      C       0.3156780000     1.8416530000    -3.4824590000
   11      O       0.1898780000     1.0821530000    -4.4328590000
   12      O       0.5428780000     3.1729530000    -3.5955590000
   13      C       0.6339780000     3.6596530000    -4.9425590000
   14      H       0.8182780000     4.7451530000    -4.8594590000
   15      H      -0.3069220000     3.4667530000    -5.4965590000
   16      H       1.4644780000     3.1650530000    -5.4856590000
   17      C      -0.1810220000    -2.4106470000     0.9736410000
   18      H       0.0138780000    -2.4186470000     2.0358410000
   19      H      -1.0089220000    -3.0885470000     1.1199410000
   20      H       0.7438780000    -2.9417470000     0.8038410000
   21      H       0.4079780000     2.3747530000     2.2801410000
 ----------------------------------------------------------------

   11   -1389.2684441678      4.82e-07  Convergence criterion met
 Total energy in the final basis set =    -1389.2684441678
        RIMP2         total energy =     -1391.7739028975 a.u.

                    Orbital Energies (a.u.)
 --------------------------------------------------------------

 Alpha MOs
 -- Occupied --
-92.0081 -91.9921 -26.3404 -20.6133 -20.5594 -11.4073 -11.3785 -11.3004
-11.2941 -11.2918 -11.2880 -11.2856 -11.2786 -11.2251  -9.0069  -8.9923
 -6.6877  -6.6871  -6.6866  -6.6733  -6.6726  -6.6715  -1.6577  -1.4657
 -1.3683  -1.2124  -1.1371  -1.0648  -1.0199  -0.9949  -0.9587  -0.9122
 -0.8639  -0.8067  -0.7884  -0.7579  -0.7314  -0.7226  -0.6913  -0.6831
 -0.6725  -0.6606  -0.6067  -0.6032  -0.5920  -0.5764  -0.5661  -0.5567
 -0.5399  -0.5298  -0.5076  -0.4801  -0.4736  -0.4711  -0.4673  -0.4583
 -0.3918  -0.3451  -0.2913

          Ground-State Mulliken Net Atomic Charges

     Atom                 Charge (a.u.)
  ----------------------------------------
      1 C                     0.033690
      2 S                     0.076265
      3 C                    -0.210215
      4 C                    -0.012159
      5 C                    -0.089580
      6 S                    -0.002922
      7 C                    -0.157422
      8 C                     0.390276
      9 F                    -0.208674
     10 C                     0.445453
     11 O                    -0.462344
     12 O                    -0.300901
     13 C                    -0.058630
     14 H                     0.121006
     15 H                     0.094771
     16 H                     0.094685
     17 C                    -0.369760
     18 H                     0.112434
     19 H                     0.150035
     20 H                     0.139289
     21 H                     0.214705
  ----------------------------------------
  Sum of atomic charges =     0.000000

                    Cartesian Multipole Moments
 -----------------------------------------------------------------
    Charge (ESU x 10^10)
                -0.0000
    Dipole Moment (Debye)
         X       0.5293      Y       0.6778      Z       3.8261
       Tot       3.9215
    Quadrupole Moments (Debye-Ang)
        XX     -95.9908     XY       1.7010     YY     -81.7547
        XZ      -1.4848     YZ     -11.2796     ZZ     -95.4490

 Total job time:  55.89s(wall), 1939.36s(cpu)
        *  Thank you very much for using Q-Chem.  Have a nice day.  *
