 Q-Chem 5.4, Q-Chem, Inc., Pleasanton, CA (2021)
 Q-Chem 5.4.0 for Intel X86 EM64T Linux

User input:
--------------------------------------------------------------
$molecule
0 1
C	0.000167	-0.991205	0.978269
S	0.000667	-0.086405	2.485769
C	-0.000133	1.486095	1.697169
C	0.000967	-0.086805	-0.089631
C	-0.001433	1.303395	0.291869
S	0.003767	-0.330305	-1.827231
C	-0.001733	1.421295	-2.076231
C	-0.004233	2.129695	-0.884331
F	-0.009033	3.466295	-0.840831
C	0.000167	1.869395	-3.477831
O	0.008067	1.099495	-4.428231
O	-0.007333	3.219895	-3.590931
C	-0.002133	3.714995	-4.937931
H	-0.009133	4.815995	-4.854831
H	-0.895233	3.361695	-5.491931
H	0.901667	3.372095	-5.481031
C	0.000167	-2.426405	0.978269
H	0.180367	-2.434405	-0.086531
H	0.828167	-3.104305	1.123969
H	-0.927033	-2.957505	0.821569
H	-0.001533	2.410395	2.284769
$end

$rem
JOBTYPE		SP
EXCHANGE	HF
CORRELATION	pRIMP2
BASIS		cc-pvtz
METHOD		rimp2
AUX_BASIS	rimp2-cc-pvtz
SOLVENT_METHOD	PCM
PURECART	11111
SYMMETRY	false
MEM_TOTAL	110000
SCF_CONVERGENCE = 6
THRESH=10
GUI = 2
$end

$solvent
dielectric 4.90
$end
--------------------------------------------------------------

             Standard Nuclear Orientation (Angstroms)
    I     Atom           X                Y                Z
 ----------------------------------------------------------------
    1      C       0.0001670000    -0.9912050000     0.9782690000
    2      S       0.0006670000    -0.0864050000     2.4857690000
    3      C      -0.0001330000     1.4860950000     1.6971690000
    4      C       0.0009670000    -0.0868050000    -0.0896310000
    5      C      -0.0014330000     1.3033950000     0.2918690000
    6      S       0.0037670000    -0.3303050000    -1.8272310000
    7      C      -0.0017330000     1.4212950000    -2.0762310000
    8      C      -0.0042330000     2.1296950000    -0.8843310000
    9      F      -0.0090330000     3.4662950000    -0.8408310000
   10      C       0.0001670000     1.8693950000    -3.4778310000
   11      O       0.0080670000     1.0994950000    -4.4282310000
   12      O      -0.0073330000     3.2198950000    -3.5909310000
   13      C      -0.0021330000     3.7149950000    -4.9379310000
   14      H      -0.0091330000     4.8159950000    -4.8548310000
   15      H      -0.8952330000     3.3616950000    -5.4919310000
   16      H       0.9016670000     3.3720950000    -5.4810310000
   17      C       0.0001670000    -2.4264050000     0.9782690000
   18      H       0.1803670000    -2.4344050000    -0.0865310000
   19      H       0.8281670000    -3.1043050000     1.1239690000
   20      H      -0.9270330000    -2.9575050000     0.8215690000
   21      H      -0.0015330000     2.4103950000     2.2847690000
 ----------------------------------------------------------------

   11   -1389.2733150284      4.58e-07  Convergence criterion met
 Total energy in the final basis set =    -1389.2733150284
        RIMP2         total energy =     -1391.7790873909 a.u.

                    Orbital Energies (a.u.)
 --------------------------------------------------------------

 Alpha MOs
 -- Occupied --
-92.0028 -91.9937 -26.3413 -20.6137 -20.5598 -11.4078 -11.3798 -11.2998
-11.2948 -11.2947 -11.2899 -11.2883 -11.2788 -11.2268  -9.0019  -8.9939
 -6.6827  -6.6821  -6.6817  -6.6750  -6.6743  -6.6731  -1.6584  -1.4661
 -1.3687  -1.2135  -1.1352  -1.0681  -1.0187  -0.9951  -0.9583  -0.9144
 -0.8635  -0.8052  -0.7890  -0.7593  -0.7301  -0.7232  -0.6945  -0.6835
 -0.6729  -0.6612  -0.6074  -0.6046  -0.5917  -0.5824  -0.5667  -0.5556
 -0.5403  -0.5302  -0.5070  -0.4872  -0.4734  -0.4718  -0.4644  -0.4523
 -0.3930  -0.3448  -0.2921

          Ground-State Mulliken Net Atomic Charges

     Atom                 Charge (a.u.)
  ----------------------------------------
      1 C                     0.045674
      2 S                     0.072720
      3 C                    -0.201423
      4 C                    -0.013339
      5 C                    -0.102248
      6 S                    -0.010872
      7 C                    -0.157931
      8 C                     0.390878
      9 F                    -0.207713
     10 C                     0.444475
     11 O                    -0.463062
     12 O                    -0.300953
     13 C                    -0.058694
     14 H                     0.121190
     15 H                     0.094796
     16 H                     0.094735
     17 C                    -0.366709
     18 H                     0.113439
     19 H                     0.155603
     20 H                     0.136547
     21 H                     0.212885
  ----------------------------------------
  Sum of atomic charges =     0.000000

                    Cartesian Multipole Moments
 -----------------------------------------------------------------
    Charge (ESU x 10^10)
                -0.0000
    Dipole Moment (Debye)
         X       0.0901      Y       0.6031      Z       2.5808
       Tot       2.6518
    Quadrupole Moments (Debye-Ang)
        XX     -96.2269     XY      -0.3828     YY     -81.0020
        XZ       0.2744     YZ      -8.4736     ZZ     -98.1459

 Total job time:  60.89s(wall), 1972.42s(cpu)
        *  Thank you very much for using Q-Chem.  Have a nice day.  *
