 Q-Chem 5.4, Q-Chem, Inc., Pleasanton, CA (2021)
 Q-Chem 5.4.0 for Intel X86 EM64T Linux

User input:
--------------------------------------------------------------
$molecule
0 1
C	-0.794730	-0.619704	0.976498
S	-0.101330	-0.038504	2.483998
C	1.102770	0.972896	1.695398
C	-0.101430	-0.038904	-0.091402
C	0.962070	0.856396	0.290098
S	-0.286130	-0.197704	-1.829002
C	1.052170	0.932496	-2.078002
C	1.593170	1.389696	-0.886102
F	2.613970	2.252596	-0.842602
C	1.396570	1.219096	-3.479602
O	0.811970	0.718096	-4.430002
O	2.426370	2.092896	-3.592702
C	2.808970	2.407096	-4.939702
H	3.647870	3.120196	-4.856602
H	1.964270	2.864196	-5.493702
H	3.127270	1.494396	-5.482802
C	-0.794730	-2.054904	0.976498
H	-1.812130	-2.062904	0.614098
H	-0.507430	-2.732804	0.186398
H	-1.110130	-2.586004	1.862398
H	1.809970	1.568096	2.282998
$end

$rem
JOBTYPE		SP
EXCHANGE	HF
CORRELATION	pRIMP2
BASIS		cc-pvtz
METHOD		rimp2
AUX_BASIS	rimp2-cc-pvtz
SOLVENT_METHOD	PCM
PURECART	11111
SYMMETRY	false
MEM_TOTAL	110000
SCF_CONVERGENCE = 6
THRESH=10
GUI = 2
$end

$solvent
dielectric 4.90
$end
--------------------------------------------------------------

             Standard Nuclear Orientation (Angstroms)
    I     Atom           X                Y                Z
 ----------------------------------------------------------------
    1      C      -0.7947300000    -0.6197040000     0.9764980000
    2      S      -0.1013300000    -0.0385040000     2.4839980000
    3      C       1.1027700000     0.9728960000     1.6953980000
    4      C      -0.1014300000    -0.0389040000    -0.0914020000
    5      C       0.9620700000     0.8563960000     0.2900980000
    6      S      -0.2861300000    -0.1977040000    -1.8290020000
    7      C       1.0521700000     0.9324960000    -2.0780020000
    8      C       1.5931700000     1.3896960000    -0.8861020000
    9      F       2.6139700000     2.2525960000    -0.8426020000
   10      C       1.3965700000     1.2190960000    -3.4796020000
   11      O       0.8119700000     0.7180960000    -4.4300020000
   12      O       2.4263700000     2.0928960000    -3.5927020000
   13      C       2.8089700000     2.4070960000    -4.9397020000
   14      H       3.6478700000     3.1201960000    -4.8566020000
   15      H       1.9642700000     2.8641960000    -5.4937020000
   16      H       3.1272700000     1.4943960000    -5.4828020000
   17      C      -0.7947300000    -2.0549040000     0.9764980000
   18      H      -1.8121300000    -2.0629040000     0.6140980000
   19      H      -0.5074300000    -2.7328040000     0.1863980000
   20      H      -1.1101300000    -2.5860040000     1.8623980000
   21      H       1.8099700000     1.5680960000     2.2829980000
 ----------------------------------------------------------------

   11   -1389.2155688932      5.06e-07  Convergence criterion met
 Total energy in the final basis set =    -1389.2155688932
        RIMP2         total energy =     -1391.7313458019 a.u.

                    Orbital Energies (a.u.)
 --------------------------------------------------------------

 Alpha MOs
 -- Occupied --
-92.0003 -91.9999 -26.3425 -20.6139 -20.5599 -11.4082 -11.3817 -11.3136
-11.2992 -11.2944 -11.2885 -11.2802 -11.2698 -11.2156  -9.0000  -8.9997
 -6.6808  -6.6807  -6.6800  -6.6798  -6.6796  -6.6789  -1.6597  -1.4663
 -1.3690  -1.2178  -1.1391  -1.0670  -1.0206  -0.9919  -0.9593  -0.9100
 -0.8650  -0.8080  -0.7902  -0.7598  -0.7309  -0.7244  -0.6953  -0.6838
 -0.6732  -0.6608  -0.6126  -0.5960  -0.5920  -0.5726  -0.5628  -0.5583
 -0.5328  -0.5273  -0.5047  -0.4998  -0.4761  -0.4722  -0.4710  -0.4448
 -0.3760  -0.3442  -0.2859

          Ground-State Mulliken Net Atomic Charges

     Atom                 Charge (a.u.)
  ----------------------------------------
      1 C                    -0.073526
      2 S                     0.089838
      3 C                    -0.167289
      4 C                     0.027374
      5 C                    -0.100008
      6 S                     0.024099
      7 C                    -0.158013
      8 C                     0.391494
      9 F                    -0.206718
     10 C                     0.447975
     11 O                    -0.463853
     12 O                    -0.301339
     13 C                    -0.058370
     14 H                     0.121142
     15 H                     0.094856
     16 H                     0.094739
     17 C                    -0.400593
     18 H                     0.133881
     19 H                     0.153229
     20 H                     0.138466
     21 H                     0.212616
  ----------------------------------------
  Sum of atomic charges =     0.000000

                    Cartesian Multipole Moments
 -----------------------------------------------------------------
    Charge (ESU x 10^10)
                -0.0000
    Dipole Moment (Debye)
         X       1.7724      Y       0.5388      Z       2.7110
       Tot       3.2835
    Quadrupole Moments (Debye-Ang)
        XX     -90.4360     XY       6.9860     YY     -89.2170
        XZ      -6.0540     YZ      -5.6363     ZZ     -96.1418

 Total job time:  89.36s(wall), 2163.18s(cpu)
        *  Thank you very much for using Q-Chem.  Have a nice day.  *
