 Q-Chem 5.4, Q-Chem, Inc., Pleasanton, CA (2021)
 Q-Chem 5.4.0 for Intel X86 EM64T Linux

User input:
--------------------------------------------------------------
$molecule
0 1
C	-0.437231	-0.893839	0.976498
S	-0.054431	-0.074039	2.483998
C	0.609469	1.351461	1.695398
C	-0.054331	-0.074439	-0.091402
C	0.531069	1.186461	0.290098
S	-0.154631	-0.296439	-1.829002
C	0.580569	1.293461	-2.078002
C	0.877769	1.936461	-0.886102
F	1.438269	3.149961	-0.842602
C	0.771669	1.698761	-3.479602
O	0.453569	0.997661	-4.430002
O	1.335669	2.925861	-3.592702
C	1.549669	3.372361	-4.939702
H	2.008569	4.373161	-4.856602
H	0.590869	3.429561	-5.493702
H	2.223869	2.679661	-5.482802
C	-0.437231	-2.329039	0.976498
H	-1.454631	-2.337039	0.614098
H	-0.149931	-3.006939	0.186398
H	-0.752631	-2.860139	1.862398
H	0.998769	2.189761	2.282998
$end

$rem
JOBTYPE		SP
EXCHANGE	HF
CORRELATION	pRIMP2
BASIS		cc-pvtz
METHOD		rimp2
AUX_BASIS	rimp2-cc-pvtz
SOLVENT_METHOD	PCM
PURECART	11111
SYMMETRY	false
MEM_TOTAL	110000
SCF_CONVERGENCE = 6
THRESH=10
GUI = 2
$end

$solvent
dielectric 4.90
$end
--------------------------------------------------------------

             Standard Nuclear Orientation (Angstroms)
    I     Atom           X                Y                Z
 ----------------------------------------------------------------
    1      C      -0.4372310000    -0.8938390000     0.9764980000
    2      S      -0.0544310000    -0.0740390000     2.4839980000
    3      C       0.6094690000     1.3514610000     1.6953980000
    4      C      -0.0543310000    -0.0744390000    -0.0914020000
    5      C       0.5310690000     1.1864610000     0.2900980000
    6      S      -0.1546310000    -0.2964390000    -1.8290020000
    7      C       0.5805690000     1.2934610000    -2.0780020000
    8      C       0.8777690000     1.9364610000    -0.8861020000
    9      F       1.4382690000     3.1499610000    -0.8426020000
   10      C       0.7716690000     1.6987610000    -3.4796020000
   11      O       0.4535690000     0.9976610000    -4.4300020000
   12      O       1.3356690000     2.9258610000    -3.5927020000
   13      C       1.5496690000     3.3723610000    -4.9397020000
   14      H       2.0085690000     4.3731610000    -4.8566020000
   15      H       0.5908690000     3.4295610000    -5.4937020000
   16      H       2.2238690000     2.6796610000    -5.4828020000
   17      C      -0.4372310000    -2.3290390000     0.9764980000
   18      H      -1.4546310000    -2.3370390000     0.6140980000
   19      H      -0.1499310000    -3.0069390000     0.1863980000
   20      H      -0.7526310000    -2.8601390000     1.8623980000
   21      H       0.9987690000     2.1897610000     2.2829980000
 ----------------------------------------------------------------

   11   -1389.2574331861      4.86e-07  Convergence criterion met
 Total energy in the final basis set =    -1389.2574331861
        RIMP2         total energy =     -1391.7656013793 a.u.

                    Orbital Energies (a.u.)
 --------------------------------------------------------------

 Alpha MOs
 -- Occupied --
-92.0043 -91.9929 -26.3405 -20.6135 -20.5595 -11.4075 -11.3786 -11.2969
-11.2943 -11.2941 -11.2881 -11.2851 -11.2787 -11.2259  -9.0033  -8.9930
 -6.6841  -6.6834  -6.6829  -6.6741  -6.6734  -6.6722  -1.6577  -1.4658
 -1.3684  -1.2125  -1.1361  -1.0662  -1.0184  -0.9948  -0.9580  -0.9130
 -0.8632  -0.8049  -0.7884  -0.7586  -0.7298  -0.7226  -0.6931  -0.6832
 -0.6726  -0.6601  -0.6123  -0.5948  -0.5893  -0.5795  -0.5619  -0.5588
 -0.5347  -0.5286  -0.5082  -0.4990  -0.4736  -0.4713  -0.4705  -0.4557
 -0.3822  -0.3446  -0.2826

          Ground-State Mulliken Net Atomic Charges

     Atom                 Charge (a.u.)
  ----------------------------------------
      1 C                     0.020456
      2 S                     0.085663
      3 C                    -0.216741
      4 C                    -0.038622
      5 C                    -0.082647
      6 S                    -0.004976
      7 C                    -0.156205
      8 C                     0.389660
      9 F                    -0.208263
     10 C                     0.446201
     11 O                    -0.462529
     12 O                    -0.300930
     13 C                    -0.058502
     14 H                     0.121118
     15 H                     0.094734
     16 H                     0.094691
     17 C                    -0.384584
     18 H                     0.140647
     19 H                     0.165293
     20 H                     0.144025
     21 H                     0.211511
  ----------------------------------------
  Sum of atomic charges =     0.000000

                    Cartesian Multipole Moments
 -----------------------------------------------------------------
    Charge (ESU x 10^10)
                -0.0000
    Dipole Moment (Debye)
         X       0.2249      Y       0.2222      Z       2.9841
       Tot       3.0008
    Quadrupole Moments (Debye-Ang)
        XX     -94.5292     XY       6.1354     YY     -83.1593
        XZ      -4.3799     YZ      -8.8589     ZZ     -96.7576

 Total job time:  59.02s(wall), 2006.18s(cpu)
        *  Thank you very much for using Q-Chem.  Have a nice day.  *
