 Q-Chem 5.4, Q-Chem, Inc., Pleasanton, CA (2021)
 Q-Chem 5.4.0 for Intel X86 EM64T Linux

User input:
--------------------------------------------------------------
$molecule
0 1
C	-0.796841	-0.619704	0.973560
S	-0.103441	-0.038504	2.481060
C	1.100659	0.972896	1.692460
C	-0.103541	-0.038904	-0.094340
C	0.959959	0.856396	0.287160
S	-0.288241	-0.197704	-1.831940
C	1.050059	0.932496	-2.080940
C	1.591059	1.389696	-0.889040
F	2.611859	2.252596	-0.845540
C	1.394459	1.219096	-3.482540
O	0.809859	0.718096	-4.432940
O	2.424259	2.092896	-3.595640
C	2.806859	2.407096	-4.942640
H	3.645759	3.120196	-4.859540
H	1.962159	2.864196	-5.496640
H	3.125159	1.494396	-5.485740
C	-0.796841	-2.054904	0.973560
H	-0.977041	-2.062904	2.038360
H	-1.624841	-2.732804	0.827860
H	0.130359	-2.586004	1.130260
H	1.807859	1.568096	2.280060
$end

$rem
JOBTYPE		SP
EXCHANGE	HF
CORRELATION	pRIMP2
BASIS		cc-pvtz
METHOD		rimp2
AUX_BASIS	rimp2-cc-pvtz
SOLVENT_METHOD	PCM
PURECART	11111
SYMMETRY	false
MEM_TOTAL	110000
SCF_CONVERGENCE = 6
THRESH=10
GUI = 2
$end

$solvent
dielectric 4.90
$end
--------------------------------------------------------------

             Standard Nuclear Orientation (Angstroms)
    I     Atom           X                Y                Z
 ----------------------------------------------------------------
    1      C      -0.7968410000    -0.6197040000     0.9735600000
    2      S      -0.1034410000    -0.0385040000     2.4810600000
    3      C       1.1006590000     0.9728960000     1.6924600000
    4      C      -0.1035410000    -0.0389040000    -0.0943400000
    5      C       0.9599590000     0.8563960000     0.2871600000
    6      S      -0.2882410000    -0.1977040000    -1.8319400000
    7      C       1.0500590000     0.9324960000    -2.0809400000
    8      C       1.5910590000     1.3896960000    -0.8890400000
    9      F       2.6118590000     2.2525960000    -0.8455400000
   10      C       1.3944590000     1.2190960000    -3.4825400000
   11      O       0.8098590000     0.7180960000    -4.4329400000
   12      O       2.4242590000     2.0928960000    -3.5956400000
   13      C       2.8068590000     2.4070960000    -4.9426400000
   14      H       3.6457590000     3.1201960000    -4.8595400000
   15      H       1.9621590000     2.8641960000    -5.4966400000
   16      H       3.1251590000     1.4943960000    -5.4857400000
   17      C      -0.7968410000    -2.0549040000     0.9735600000
   18      H      -0.9770410000    -2.0629040000     2.0383600000
   19      H      -1.6248410000    -2.7328040000     0.8278600000
   20      H       0.1303590000    -2.5860040000     1.1302600000
   21      H       1.8078590000     1.5680960000     2.2800600000
 ----------------------------------------------------------------

   11   -1389.2215082133      5.18e-07  Convergence criterion met
 Total energy in the final basis set =    -1389.2215082133
        RIMP2         total energy =     -1391.7349166811 a.u.

                    Orbital Energies (a.u.)
 --------------------------------------------------------------

 Alpha MOs
 -- Occupied --
-92.0052 -91.9997 -26.3426 -20.6137 -20.5596 -11.4079 -11.3818 -11.3187
-11.2996 -11.2939 -11.2884 -11.2800 -11.2664 -11.2174  -9.0048  -8.9995
 -6.6855  -6.6846  -6.6843  -6.6805  -6.6798  -6.6787  -1.6598  -1.4661
 -1.3688  -1.2190  -1.1421  -1.0667  -1.0228  -0.9913  -0.9606  -0.9070
 -0.8663  -0.8108  -0.7903  -0.7592  -0.7332  -0.7245  -0.6941  -0.6836
 -0.6731  -0.6613  -0.6084  -0.6046  -0.5920  -0.5766  -0.5651  -0.5607
 -0.5303  -0.5239  -0.5102  -0.4795  -0.4744  -0.4720  -0.4674  -0.4485
 -0.3884  -0.3420  -0.2984

          Ground-State Mulliken Net Atomic Charges

     Atom                 Charge (a.u.)
  ----------------------------------------
      1 C                    -0.091351
      2 S                     0.089291
      3 C                    -0.162984
      4 C                     0.046430
      5 C                    -0.099600
      6 S                     0.026975
      7 C                    -0.158394
      8 C                     0.391667
      9 F                    -0.207013
     10 C                     0.447254
     11 O                    -0.463951
     12 O                    -0.301527
     13 C                    -0.058389
     14 H                     0.121014
     15 H                     0.094862
     16 H                     0.094735
     17 C                    -0.353062
     18 H                     0.104152
     19 H                     0.137146
     20 H                     0.126353
     21 H                     0.216389
  ----------------------------------------
  Sum of atomic charges =     0.000000

                    Cartesian Multipole Moments
 -----------------------------------------------------------------
    Charge (ESU x 10^10)
                -0.0000
    Dipole Moment (Debye)
         X       2.4659      Y       0.8005      Z       3.4859
       Tot       4.3443
    Quadrupole Moments (Debye-Ang)
        XX     -90.7583     XY       5.9628     YY     -89.4295
        XZ      -5.4475     YZ      -6.8149     ZZ     -94.8553

 Total job time:  57.71s(wall), 1990.31s(cpu)
        *  Thank you very much for using Q-Chem.  Have a nice day.  *
