 Q-Chem 5.4, Q-Chem, Inc., Pleasanton, CA (2021)
 Q-Chem 5.4.0 for Intel X86 EM64T Linux

User input:
--------------------------------------------------------------
$molecule
0 1
C	0.002034	-0.991205	0.977564
S	0.002534	-0.086405	2.485064
C	0.001734	1.486095	1.696464
C	0.002834	-0.086805	-0.090336
C	0.000434	1.303395	0.291164
S	0.005634	-0.330305	-1.827936
C	0.000134	1.421295	-2.076936
C	-0.002366	2.129695	-0.885036
F	-0.007166	3.466295	-0.841536
C	0.002034	1.869395	-3.478536
O	0.009934	1.099495	-4.428936
O	-0.005466	3.219895	-3.591636
C	-0.000266	3.714995	-4.938636
H	-0.007266	4.815995	-4.855536
H	-0.893366	3.361695	-5.492636
H	0.903534	3.372095	-5.481736
C	0.002034	-2.426405	0.977564
H	-0.697866	-2.434405	0.155064
H	0.645934	-3.104305	0.436964
H	-0.714066	-2.957505	1.587164
H	0.000334	2.410395	2.284064
$end

$rem
JOBTYPE		SP
EXCHANGE	HF
CORRELATION	pRIMP2
BASIS		cc-pvtz
METHOD		rimp2
AUX_BASIS	rimp2-cc-pvtz
SOLVENT_METHOD	PCM
PURECART	11111
SYMMETRY	false
MEM_TOTAL	110000
SCF_CONVERGENCE = 6
THRESH=10
GUI = 2
$end

$solvent
dielectric 4.90
$end
--------------------------------------------------------------

             Standard Nuclear Orientation (Angstroms)
    I     Atom           X                Y                Z
 ----------------------------------------------------------------
    1      C       0.0020340000    -0.9912050000     0.9775640000
    2      S       0.0025340000    -0.0864050000     2.4850640000
    3      C       0.0017340000     1.4860950000     1.6964640000
    4      C       0.0028340000    -0.0868050000    -0.0903360000
    5      C       0.0004340000     1.3033950000     0.2911640000
    6      S       0.0056340000    -0.3303050000    -1.8279360000
    7      C       0.0001340000     1.4212950000    -2.0769360000
    8      C      -0.0023660000     2.1296950000    -0.8850360000
    9      F      -0.0071660000     3.4662950000    -0.8415360000
   10      C       0.0020340000     1.8693950000    -3.4785360000
   11      O       0.0099340000     1.0994950000    -4.4289360000
   12      O      -0.0054660000     3.2198950000    -3.5916360000
   13      C      -0.0002660000     3.7149950000    -4.9386360000
   14      H      -0.0072660000     4.8159950000    -4.8555360000
   15      H      -0.8933660000     3.3616950000    -5.4926360000
   16      H       0.9035340000     3.3720950000    -5.4817360000
   17      C       0.0020340000    -2.4264050000     0.9775640000
   18      H      -0.6978660000    -2.4344050000     0.1550640000
   19      H       0.6459340000    -3.1043050000     0.4369640000
   20      H      -0.7140660000    -2.9575050000     1.5871640000
   21      H       0.0003340000     2.4103950000     2.2840640000
 ----------------------------------------------------------------

   11   -1389.2734699096      4.79e-07  Convergence criterion met
 Total energy in the final basis set =    -1389.2734699096
        RIMP2         total energy =     -1391.7788201024 a.u.

                    Orbital Energies (a.u.)
 --------------------------------------------------------------

 Alpha MOs
 -- Occupied --
-92.0049 -91.9928 -26.3407 -20.6136 -20.5597 -11.4076 -11.3789 -11.2981
-11.2959 -11.2945 -11.2882 -11.2852 -11.2787 -11.2281  -9.0038  -8.9929
 -6.6846  -6.6839  -6.6835  -6.6740  -6.6733  -6.6722  -1.6579  -1.4660
 -1.3686  -1.2124  -1.1355  -1.0674  -1.0184  -0.9954  -0.9581  -0.9138
 -0.8632  -0.8047  -0.7886  -0.7589  -0.7300  -0.7228  -0.6939  -0.6833
 -0.6728  -0.6608  -0.6115  -0.5975  -0.5905  -0.5821  -0.5653  -0.5571
 -0.5386  -0.5299  -0.5073  -0.4906  -0.4733  -0.4714  -0.4666  -0.4598
 -0.3874  -0.3445  -0.2877

          Ground-State Mulliken Net Atomic Charges

     Atom                 Charge (a.u.)
  ----------------------------------------
      1 C                     0.053385
      2 S                     0.073666
      3 C                    -0.212312
      4 C                    -0.020488
      5 C                    -0.095421
      6 S                    -0.010755
      7 C                    -0.156741
      8 C                     0.386057
      9 F                    -0.208148
     10 C                     0.445608
     11 O                    -0.462719
     12 O                    -0.300763
     13 C                    -0.058666
     14 H                     0.121168
     15 H                     0.094730
     16 H                     0.094727
     17 C                    -0.381343
     18 H                     0.122369
     19 H                     0.155049
     20 H                     0.148072
     21 H                     0.212524
  ----------------------------------------
  Sum of atomic charges =     0.000000

                    Cartesian Multipole Moments
 -----------------------------------------------------------------
    Charge (ESU x 10^10)
                -0.0000
    Dipole Moment (Debye)
         X      -0.4613      Y       0.3599      Z       2.7547
       Tot       2.8161
    Quadrupole Moments (Debye-Ang)
        XX     -96.5506     XY       1.1868     YY     -80.8480
        XZ      -0.7475     YZ      -9.0807     ZZ     -97.6156

 Total job time:  57.23s(wall), 1973.01s(cpu)
        *  Thank you very much for using Q-Chem.  Have a nice day.  *
