 Q-Chem 5.4, Q-Chem, Inc., Pleasanton, CA (2021)
 Q-Chem 5.4.0 for Intel X86 EM64T Linux

User input:
--------------------------------------------------------------
$molecule
0 1
C	-0.439697	-0.893839	0.978269
S	-0.056897	-0.074039	2.485769
C	0.607003	1.351461	1.697169
C	-0.056797	-0.074439	-0.089631
C	0.528603	1.186461	0.291869
S	-0.157097	-0.296439	-1.827231
C	0.578103	1.293461	-2.076231
C	0.875303	1.936461	-0.884331
F	1.435803	3.149961	-0.840831
C	0.769203	1.698761	-3.477831
O	0.451103	0.997661	-4.428231
O	1.333203	2.925861	-3.590931
C	1.547203	3.372361	-4.937931
H	2.006103	4.373161	-4.854831
H	0.588403	3.429561	-5.491931
H	2.221403	2.679661	-5.481031
C	-0.439697	-2.329039	0.978269
H	-0.259497	-2.337039	-0.086531
H	0.388303	-3.006939	1.123969
H	-1.366897	-2.860139	0.821569
H	0.996303	2.189761	2.284769
$end

$rem
JOBTYPE		SP
EXCHANGE	HF
CORRELATION	pRIMP2
BASIS		cc-pvtz
METHOD		rimp2
AUX_BASIS	rimp2-cc-pvtz
SOLVENT_METHOD	PCM
PURECART	11111
SYMMETRY	false
MEM_TOTAL	110000
SCF_CONVERGENCE = 6
THRESH=10
GUI = 2
$end

$solvent
dielectric 4.90
$end
--------------------------------------------------------------

             Standard Nuclear Orientation (Angstroms)
    I     Atom           X                Y                Z
 ----------------------------------------------------------------
    1      C      -0.4396970000    -0.8938390000     0.9782690000
    2      S      -0.0568970000    -0.0740390000     2.4857690000
    3      C       0.6070030000     1.3514610000     1.6971690000
    4      C      -0.0567970000    -0.0744390000    -0.0896310000
    5      C       0.5286030000     1.1864610000     0.2918690000
    6      S      -0.1570970000    -0.2964390000    -1.8272310000
    7      C       0.5781030000     1.2934610000    -2.0762310000
    8      C       0.8753030000     1.9364610000    -0.8843310000
    9      F       1.4358030000     3.1499610000    -0.8408310000
   10      C       0.7692030000     1.6987610000    -3.4778310000
   11      O       0.4511030000     0.9976610000    -4.4282310000
   12      O       1.3332030000     2.9258610000    -3.5909310000
   13      C       1.5472030000     3.3723610000    -4.9379310000
   14      H       2.0061030000     4.3731610000    -4.8548310000
   15      H       0.5884030000     3.4295610000    -5.4919310000
   16      H       2.2214030000     2.6796610000    -5.4810310000
   17      C      -0.4396970000    -2.3290390000     0.9782690000
   18      H      -0.2594970000    -2.3370390000    -0.0865310000
   19      H       0.3883030000    -3.0069390000     1.1239690000
   20      H      -1.3668970000    -2.8601390000     0.8215690000
   21      H       0.9963030000     2.1897610000     2.2847690000
 ----------------------------------------------------------------

   11   -1389.2597261852      4.62e-07  Convergence criterion met
 Total energy in the final basis set =    -1389.2597261852
        RIMP2         total energy =     -1391.7684603549 a.u.

                    Orbital Energies (a.u.)
 --------------------------------------------------------------

 Alpha MOs
 -- Occupied --
-92.0027 -91.9958 -26.3418 -20.6138 -20.5598 -11.4080 -11.3807 -11.3042
-11.2947 -11.2928 -11.2884 -11.2881 -11.2792 -11.2234  -9.0019  -8.9959
 -6.6826  -6.6819  -6.6816  -6.6770  -6.6763  -6.6752  -1.6590  -1.4662
 -1.3688  -1.2151  -1.1363  -1.0684  -1.0193  -0.9937  -0.9586  -0.9131
 -0.8640  -0.8060  -0.7896  -0.7596  -0.7301  -0.7237  -0.6952  -0.6836
 -0.6730  -0.6613  -0.6054  -0.6052  -0.5918  -0.5846  -0.5651  -0.5576
 -0.5339  -0.5303  -0.5079  -0.4872  -0.4737  -0.4720  -0.4654  -0.4487
 -0.3915  -0.3444  -0.2940

          Ground-State Mulliken Net Atomic Charges

     Atom                 Charge (a.u.)
  ----------------------------------------
      1 C                     0.001005
      2 S                     0.078906
      3 C                    -0.195455
      4 C                    -0.017814
      5 C                    -0.087664
      6 S                    -0.000120
      7 C                    -0.157474
      8 C                     0.389752
      9 F                    -0.207069
     10 C                     0.445955
     11 O                    -0.463044
     12 O                    -0.301248
     13 C                    -0.058486
     14 H                     0.121176
     15 H                     0.094840
     16 H                     0.094722
     17 C                    -0.354060
     18 H                     0.113440
     19 H                     0.157598
     20 H                     0.132327
     21 H                     0.212713
  ----------------------------------------
  Sum of atomic charges =     0.000000

                    Cartesian Multipole Moments
 -----------------------------------------------------------------
    Charge (ESU x 10^10)
                -0.0000
    Dipole Moment (Debye)
         X       1.1692      Y       0.7245      Z       2.5112
       Tot       2.8633
    Quadrupole Moments (Debye-Ang)
        XX     -94.5416     XY       3.9465     YY     -83.6618
        XZ      -2.8658     YZ      -7.3553     ZZ     -97.8730

 Total job time:  61.13s(wall), 2031.81s(cpu)
        *  Thank you very much for using Q-Chem.  Have a nice day.  *
