 Q-Chem 5.4, Q-Chem, Inc., Pleasanton, CA (2021)
 Q-Chem 5.4.0 for Intel X86 EM64T Linux

User input:
--------------------------------------------------------------
$molecule
0 1
C	-0.794890	-0.619704	0.974891
S	-0.101490	-0.038504	2.482391
C	1.102610	0.972896	1.693791
C	-0.101590	-0.038904	-0.093009
C	0.961910	0.856396	0.288491
S	-0.286290	-0.197704	-1.830609
C	1.052010	0.932496	-2.079609
C	1.593010	1.389696	-0.887709
F	2.613810	2.252596	-0.844209
C	1.396410	1.219096	-3.481209
O	0.811810	0.718096	-4.431609
O	2.426210	2.092896	-3.594309
C	2.808810	2.407096	-4.941309
H	3.647710	3.120196	-4.858209
H	1.964110	2.864196	-5.495309
H	3.127110	1.494396	-5.484409
C	-0.794890	-2.054904	0.974891
H	-1.807190	-2.062904	1.351291
H	-1.082690	-2.732804	0.184991
H	-0.466990	-2.586004	1.856291
H	1.809810	1.568096	2.281391
$end

$rem
JOBTYPE		SP
EXCHANGE	HF
CORRELATION	pRIMP2
BASIS		cc-pvtz
METHOD		rimp2
AUX_BASIS	rimp2-cc-pvtz
SOLVENT_METHOD	PCM
PURECART	11111
SYMMETRY	false
MEM_TOTAL	110000
SCF_CONVERGENCE = 6
THRESH=10
GUI = 2
$end

$solvent
dielectric 4.90
$end
--------------------------------------------------------------

             Standard Nuclear Orientation (Angstroms)
    I     Atom           X                Y                Z
 ----------------------------------------------------------------
    1      C      -0.7948900000    -0.6197040000     0.9748910000
    2      S      -0.1014900000    -0.0385040000     2.4823910000
    3      C       1.1026100000     0.9728960000     1.6937910000
    4      C      -0.1015900000    -0.0389040000    -0.0930090000
    5      C       0.9619100000     0.8563960000     0.2884910000
    6      S      -0.2862900000    -0.1977040000    -1.8306090000
    7      C       1.0520100000     0.9324960000    -2.0796090000
    8      C       1.5930100000     1.3896960000    -0.8877090000
    9      F       2.6138100000     2.2525960000    -0.8442090000
   10      C       1.3964100000     1.2190960000    -3.4812090000
   11      O       0.8118100000     0.7180960000    -4.4316090000
   12      O       2.4262100000     2.0928960000    -3.5943090000
   13      C       2.8088100000     2.4070960000    -4.9413090000
   14      H       3.6477100000     3.1201960000    -4.8582090000
   15      H       1.9641100000     2.8641960000    -5.4953090000
   16      H       3.1271100000     1.4943960000    -5.4844090000
   17      C      -0.7948900000    -2.0549040000     0.9748910000
   18      H      -1.8071900000    -2.0629040000     1.3512910000
   19      H      -1.0826900000    -2.7328040000     0.1849910000
   20      H      -0.4669900000    -2.5860040000     1.8562910000
   21      H       1.8098100000     1.5680960000     2.2813910000
 ----------------------------------------------------------------

   11   -1389.2133315922      4.96e-07  Convergence criterion met
 Total energy in the final basis set =    -1389.2133315922
        RIMP2         total energy =     -1391.7283959772 a.u.

                    Orbital Energies (a.u.)
 --------------------------------------------------------------

 Alpha MOs
 -- Occupied --
-92.0034 -91.9983 -26.3420 -20.6137 -20.5597 -11.4079 -11.3810 -11.3147
-11.2965 -11.2940 -11.2883 -11.2796 -11.2692 -11.2148  -9.0030  -8.9982
 -6.6837  -6.6829  -6.6826  -6.6792  -6.6785  -6.6775  -1.6592  -1.4661
 -1.3688  -1.2173  -1.1398  -1.0658  -1.0211  -0.9916  -0.9596  -0.9093
 -0.8651  -0.8086  -0.7898  -0.7592  -0.7315  -0.7240  -0.6941  -0.6836
 -0.6730  -0.6602  -0.6125  -0.5960  -0.5897  -0.5749  -0.5648  -0.5605
 -0.5312  -0.5241  -0.5070  -0.4924  -0.4742  -0.4717  -0.4714  -0.4513
 -0.3764  -0.3438  -0.2856

          Ground-State Mulliken Net Atomic Charges

     Atom                 Charge (a.u.)
  ----------------------------------------
      1 C                    -0.103507
      2 S                     0.086918
      3 C                    -0.165842
      4 C                     0.061060
      5 C                    -0.104887
      6 S                     0.021994
      7 C                    -0.158377
      8 C                     0.391597
      9 F                    -0.207523
     10 C                     0.447842
     11 O                    -0.463684
     12 O                    -0.301323
     13 C                    -0.058401
     14 H                     0.121071
     15 H                     0.094821
     16 H                     0.094729
     17 C                    -0.394319
     18 H                     0.131717
     19 H                     0.154137
     20 H                     0.136554
     21 H                     0.215423
  ----------------------------------------
  Sum of atomic charges =     0.000000

                    Cartesian Multipole Moments
 -----------------------------------------------------------------
    Charge (ESU x 10^10)
                -0.0000
    Dipole Moment (Debye)
         X       1.8391      Y       0.5579      Z       3.1560
       Tot       3.6952
    Quadrupole Moments (Debye-Ang)
        XX     -90.5285     XY       6.9767     YY     -89.2309
        XZ      -5.6922     YZ      -6.2640     ZZ     -95.2635

 Total job time:  58.95s(wall), 2023.46s(cpu)
        *  Thank you very much for using Q-Chem.  Have a nice day.  *
