 Q-Chem 5.4, Q-Chem, Inc., Pleasanton, CA (2021)
 Q-Chem 5.4.0 for Intel X86 EM64T Linux

User input:
--------------------------------------------------------------
$molecule
0 1
C	-0.001305	-0.991205	0.977605
S	-0.000805	-0.086405	2.485105
C	-0.001605	1.486095	1.696505
C	-0.000505	-0.086805	-0.090295
C	-0.002905	1.303395	0.291205
S	0.002295	-0.330305	-1.827895
C	-0.003205	1.421295	-2.076895
C	-0.005705	2.129695	-0.884995
F	-0.010505	3.466295	-0.841495
C	-0.001305	1.869395	-3.478495
O	0.006595	1.099495	-4.428895
O	-0.008805	3.219895	-3.591595
C	-0.003605	3.714995	-4.938595
H	-0.010605	4.815995	-4.855495
H	-0.896705	3.361695	-5.492595
H	0.900195	3.372095	-5.481695
C	-0.001305	-2.426405	0.977605
H	0.821195	-2.434405	0.277705
H	0.539295	-3.104305	1.621505
H	-0.610905	-2.957505	0.261505
H	-0.003005	2.410395	2.284105
$end

$rem
JOBTYPE		SP
EXCHANGE	HF
CORRELATION	pRIMP2
BASIS		cc-pvtz
METHOD		rimp2
AUX_BASIS	rimp2-cc-pvtz
SOLVENT_METHOD	PCM
PURECART	11111
SYMMETRY	false
MEM_TOTAL	110000
SCF_CONVERGENCE = 6
THRESH=10
GUI = 2
$end

$solvent
dielectric 4.90
$end
--------------------------------------------------------------

             Standard Nuclear Orientation (Angstroms)
    I     Atom           X                Y                Z
 ----------------------------------------------------------------
    1      C      -0.0013050000    -0.9912050000     0.9776050000
    2      S      -0.0008050000    -0.0864050000     2.4851050000
    3      C      -0.0016050000     1.4860950000     1.6965050000
    4      C      -0.0005050000    -0.0868050000    -0.0902950000
    5      C      -0.0029050000     1.3033950000     0.2912050000
    6      S       0.0022950000    -0.3303050000    -1.8278950000
    7      C      -0.0032050000     1.4212950000    -2.0768950000
    8      C      -0.0057050000     2.1296950000    -0.8849950000
    9      F      -0.0105050000     3.4662950000    -0.8414950000
   10      C      -0.0013050000     1.8693950000    -3.4784950000
   11      O       0.0065950000     1.0994950000    -4.4288950000
   12      O      -0.0088050000     3.2198950000    -3.5915950000
   13      C      -0.0036050000     3.7149950000    -4.9385950000
   14      H      -0.0106050000     4.8159950000    -4.8554950000
   15      H      -0.8967050000     3.3616950000    -5.4925950000
   16      H       0.9001950000     3.3720950000    -5.4816950000
   17      C      -0.0013050000    -2.4264050000     0.9776050000
   18      H       0.8211950000    -2.4344050000     0.2777050000
   19      H       0.5392950000    -3.1043050000     1.6215050000
   20      H      -0.6109050000    -2.9575050000     0.2615050000
   21      H      -0.0030050000     2.4103950000     2.2841050000
 ----------------------------------------------------------------

   11   -1389.2732463246      4.91e-07  Convergence criterion met
 Total energy in the final basis set =    -1389.2732463246
        RIMP2         total energy =     -1391.7784600169 a.u.

                    Orbital Energies (a.u.)
 --------------------------------------------------------------

 Alpha MOs
 -- Occupied --
-92.0050 -91.9923 -26.3405 -20.6136 -20.5596 -11.4076 -11.3786 -11.3007
-11.2945 -11.2935 -11.2881 -11.2834 -11.2787 -11.2293  -9.0038  -8.9924
 -6.6846  -6.6840  -6.6835  -6.6735  -6.6728  -6.6716  -1.6577  -1.4659
 -1.3685  -1.2120  -1.1356  -1.0676  -1.0181  -0.9956  -0.9579  -0.9137
 -0.8630  -0.8043  -0.7884  -0.7588  -0.7300  -0.7226  -0.6930  -0.6833
 -0.6727  -0.6604  -0.6106  -0.5978  -0.5905  -0.5851  -0.5643  -0.5582
 -0.5362  -0.5297  -0.5074  -0.4936  -0.4730  -0.4713  -0.4673  -0.4605
 -0.3858  -0.3444  -0.2854

          Ground-State Mulliken Net Atomic Charges

     Atom                 Charge (a.u.)
  ----------------------------------------
      1 C                     0.057777
      2 S                     0.073961
      3 C                    -0.219214
      4 C                    -0.023169
      5 C                    -0.093048
      6 S                    -0.014291
      7 C                    -0.155284
      8 C                     0.384875
      9 F                    -0.208353
     10 C                     0.445668
     11 O                    -0.462590
     12 O                    -0.300709
     13 C                    -0.058676
     14 H                     0.121170
     15 H                     0.094783
     16 H                     0.094661
     17 C                    -0.389986
     18 H                     0.129676
     19 H                     0.166335
     20 H                     0.144548
     21 H                     0.211866
  ----------------------------------------
  Sum of atomic charges =     0.000000

                    Cartesian Multipole Moments
 -----------------------------------------------------------------
    Charge (ESU x 10^10)
                -0.0000
    Dipole Moment (Debye)
         X       0.5237      Y       0.1790      Z       2.8293
       Tot       2.8830
    Quadrupole Moments (Debye-Ang)
        XX     -96.6927     XY      -1.4913     YY     -80.6266
        XZ       0.9388     YZ      -9.6579     ZZ     -97.4622

 Total job time:  57.08s(wall), 1994.43s(cpu)
        *  Thank you very much for using Q-Chem.  Have a nice day.  *
