 Q-Chem 5.4, Q-Chem, Inc., Pleasanton, CA (2021)
 Q-Chem 5.4.0 for Intel X86 EM64T Linux

User input:
--------------------------------------------------------------
$molecule
0 1
C	-0.519422	-0.851940	0.978188
S	-0.066622	-0.068640	2.485688
C	0.718978	1.293660	1.697088
C	-0.066522	-0.069040	-0.089712
C	0.626478	1.136060	0.291788
S	-0.185822	-0.281440	-1.827312
C	0.685178	1.238360	-2.076312
C	1.037178	1.852960	-0.884412
F	1.701378	3.012960	-0.840912
C	0.910878	1.625360	-3.477912
O	0.532778	0.954660	-4.428312
O	1.579578	2.798760	-3.591012
C	1.831678	3.224860	-4.938012
H	2.376178	4.181860	-4.854912
H	0.881578	3.365460	-5.492012
H	2.442978	2.476060	-5.481112
C	-0.519422	-2.287140	0.978188
H	-0.714322	-2.295140	-0.084012
H	0.308478	-2.965040	0.831888
H	-1.444322	-2.818240	1.147988
H	1.179878	2.094760	2.284688
$end

$rem
JOBTYPE		SP
EXCHANGE	HF
CORRELATION	pRIMP2
BASIS		cc-pvtz
METHOD		rimp2
AUX_BASIS	rimp2-cc-pvtz
SOLVENT_METHOD	PCM
PURECART	11111
SYMMETRY	false
MEM_TOTAL	110000
SCF_CONVERGENCE = 6
THRESH=10
GUI = 2
$end

$solvent
dielectric 4.90
$end
--------------------------------------------------------------

             Standard Nuclear Orientation (Angstroms)
    I     Atom           X                Y                Z
 ----------------------------------------------------------------
    1      C      -0.5194220000    -0.8519400000     0.9781880000
    2      S      -0.0666220000    -0.0686400000     2.4856880000
    3      C       0.7189780000     1.2936600000     1.6970880000
    4      C      -0.0665220000    -0.0690400000    -0.0897120000
    5      C       0.6264780000     1.1360600000     0.2917880000
    6      S      -0.1858220000    -0.2814400000    -1.8273120000
    7      C       0.6851780000     1.2383600000    -2.0763120000
    8      C       1.0371780000     1.8529600000    -0.8844120000
    9      F       1.7013780000     3.0129600000    -0.8409120000
   10      C       0.9108780000     1.6253600000    -3.4779120000
   11      O       0.5327780000     0.9546600000    -4.4283120000
   12      O       1.5795780000     2.7987600000    -3.5910120000
   13      C       1.8316780000     3.2248600000    -4.9380120000
   14      H       2.3761780000     4.1818600000    -4.8549120000
   15      H       0.8815780000     3.3654600000    -5.4920120000
   16      H       2.4429780000     2.4760600000    -5.4811120000
   17      C      -0.5194220000    -2.2871400000     0.9781880000
   18      H      -0.7143220000    -2.2951400000    -0.0840120000
   19      H       0.3084780000    -2.9650400000     0.8318880000
   20      H      -1.4443220000    -2.8182400000     1.1479880000
   21      H       1.1798780000     2.0947600000     2.2846880000
 ----------------------------------------------------------------

   11   -1389.2555592175      4.61e-07  Convergence criterion met
 Total energy in the final basis set =    -1389.2555592175
        RIMP2         total energy =     -1391.7650564918 a.u.

                    Orbital Energies (a.u.)
 --------------------------------------------------------------

 Alpha MOs
 -- Occupied --
-92.0014 -91.9966 -26.3421 -20.6139 -20.5599 -11.4081 -11.3810 -11.3071
-11.2954 -11.2948 -11.2884 -11.2841 -11.2796 -11.2226  -9.0008  -8.9967
 -6.6816  -6.6808  -6.6805  -6.6777  -6.6770  -6.6759  -1.6592  -1.4663
 -1.3689  -1.2158  -1.1365  -1.0684  -1.0196  -0.9935  -0.9588  -0.9130
 -0.8642  -0.8064  -0.7898  -0.7598  -0.7303  -0.7240  -0.6955  -0.6837
 -0.6731  -0.6614  -0.6082  -0.6027  -0.5921  -0.5830  -0.5645  -0.5572
 -0.5340  -0.5302  -0.5081  -0.4879  -0.4741  -0.4722  -0.4667  -0.4439
 -0.3924  -0.3448  -0.2945

          Ground-State Mulliken Net Atomic Charges

     Atom                 Charge (a.u.)
  ----------------------------------------
      1 C                    -0.013627
      2 S                     0.079678
      3 C                    -0.189143
      4 C                    -0.015564
      5 C                    -0.088558
      6 S                     0.003505
      7 C                    -0.157446
      8 C                     0.391557
      9 F                    -0.206958
     10 C                     0.446354
     11 O                    -0.463069
     12 O                    -0.301283
     13 C                    -0.058445
     14 H                     0.121181
     15 H                     0.094839
     16 H                     0.094730
     17 C                    -0.346187
     18 H                     0.107986
     19 H                     0.154239
     20 H                     0.133055
     21 H                     0.213156
  ----------------------------------------
  Sum of atomic charges =     0.000000

                    Cartesian Multipole Moments
 -----------------------------------------------------------------
    Charge (ESU x 10^10)
                -0.0000
    Dipole Moment (Debye)
         X       1.2210      Y       0.7861      Z       2.4624
       Tot       2.8587
    Quadrupole Moments (Debye-Ang)
        XX     -93.6418     XY       5.1314     YY     -84.6227
        XZ      -3.7748     YZ      -6.7946     ZZ     -97.8559

 Total job time:  57.13s(wall), 1997.19s(cpu)
        *  Thank you very much for using Q-Chem.  Have a nice day.  *
