 Q-Chem 5.4, Q-Chem, Inc., Pleasanton, CA (2021)
 Q-Chem 5.4.0 for Intel X86 EM64T Linux

User input:
--------------------------------------------------------------
$molecule
0 1
C	-0.091326	-0.987267	0.978067
S	-0.012026	-0.085967	2.485567
C	0.124274	1.480633	1.696967
C	-0.011726	-0.086367	-0.089833
C	0.107074	1.298733	0.291667
S	-0.030126	-0.329267	-1.827433
C	0.116974	1.416233	-2.076433
C	0.176274	2.122133	-0.884533
F	0.287974	3.454033	-0.841033
C	0.157974	1.862433	-3.478033
O	0.098774	1.094833	-4.428433
O	0.268174	3.208433	-3.591133
C	0.316574	3.701233	-4.938133
H	0.405574	4.798633	-4.855033
H	-0.603926	3.427033	-5.492133
H	1.187074	3.280833	-5.481233
C	-0.091326	-2.422467	0.978067
H	0.442174	-2.430467	0.039067
H	0.636874	-3.100367	1.398167
H	-0.909026	-2.953567	0.513667
H	0.203474	2.401533	2.284567
$end

$rem
JOBTYPE		SP
EXCHANGE	HF
CORRELATION	pRIMP2
BASIS		cc-pvtz
METHOD		rimp2
AUX_BASIS	rimp2-cc-pvtz
SOLVENT_METHOD	PCM
PURECART	11111
SYMMETRY	false
MEM_TOTAL	110000
SCF_CONVERGENCE = 6
THRESH=10
GUI = 2
$end

$solvent
dielectric 4.90
$end
--------------------------------------------------------------

             Standard Nuclear Orientation (Angstroms)
    I     Atom           X                Y                Z
 ----------------------------------------------------------------
    1      C      -0.0913260000    -0.9872670000     0.9780670000
    2      S      -0.0120260000    -0.0859670000     2.4855670000
    3      C       0.1242740000     1.4806330000     1.6969670000
    4      C      -0.0117260000    -0.0863670000    -0.0898330000
    5      C       0.1070740000     1.2987330000     0.2916670000
    6      S      -0.0301260000    -0.3292670000    -1.8274330000
    7      C       0.1169740000     1.4162330000    -2.0764330000
    8      C       0.1762740000     2.1221330000    -0.8845330000
    9      F       0.2879740000     3.4540330000    -0.8410330000
   10      C       0.1579740000     1.8624330000    -3.4780330000
   11      O       0.0987740000     1.0948330000    -4.4284330000
   12      O       0.2681740000     3.2084330000    -3.5911330000
   13      C       0.3165740000     3.7012330000    -4.9381330000
   14      H       0.4055740000     4.7986330000    -4.8550330000
   15      H      -0.6039260000     3.4270330000    -5.4921330000
   16      H       1.1870740000     3.2808330000    -5.4812330000
   17      C      -0.0913260000    -2.4224670000     0.9780670000
   18      H       0.4421740000    -2.4304670000     0.0390670000
   19      H       0.6368740000    -3.1003670000     1.3981670000
   20      H      -0.9090260000    -2.9535670000     0.5136670000
   21      H       0.2034740000     2.4015330000     2.2845670000
 ----------------------------------------------------------------

   11   -1389.2725230072      4.71e-07  Convergence criterion met
 Total energy in the final basis set =    -1389.2725230072
        RIMP2         total energy =     -1391.7783824963 a.u.

                    Orbital Energies (a.u.)
 --------------------------------------------------------------

 Alpha MOs
 -- Occupied --
-92.0040 -91.9934 -26.3410 -20.6137 -20.5597 -11.4077 -11.3794 -11.2973
-11.2970 -11.2946 -11.2882 -11.2872 -11.2789 -11.2274  -9.0030  -8.9936
 -6.6837  -6.6831  -6.6827  -6.6747  -6.6739  -6.6728  -1.6582  -1.4660
 -1.3686  -1.2130  -1.1354  -1.0679  -1.0185  -0.9952  -0.9581  -0.9140
 -0.8633  -0.8049  -0.7889  -0.7591  -0.7300  -0.7230  -0.6939  -0.6834
 -0.6728  -0.6609  -0.6087  -0.6015  -0.5914  -0.5841  -0.5658  -0.5571
 -0.5378  -0.5301  -0.5071  -0.4888  -0.4733  -0.4716  -0.4645  -0.4581
 -0.3891  -0.3445  -0.2897

          Ground-State Mulliken Net Atomic Charges

     Atom                 Charge (a.u.)
  ----------------------------------------
      1 C                     0.046972
      2 S                     0.073619
      3 C                    -0.208464
      4 C                    -0.013349
      5 C                    -0.099343
      6 S                    -0.009923
      7 C                    -0.157816
      8 C                     0.388443
      9 F                    -0.207836
     10 C                     0.445467
     11 O                    -0.462785
     12 O                    -0.300857
     13 C                    -0.058672
     14 H                     0.121183
     15 H                     0.094817
     16 H                     0.094671
     17 C                    -0.379356
     18 H                     0.119115
     19 H                     0.161660
     20 H                     0.140065
     21 H                     0.212388
  ----------------------------------------
  Sum of atomic charges =     0.000000

                    Cartesian Multipole Moments
 -----------------------------------------------------------------
    Charge (ESU x 10^10)
                -0.0000
    Dipole Moment (Debye)
         X       0.5016      Y       0.4496      Z       2.6645
       Tot       2.7484
    Quadrupole Moments (Debye-Ang)
        XX     -96.3898     XY       0.0086     YY     -81.0107
        XZ      -0.0153     YZ      -8.8917     ZZ     -97.8484

 Total job time:  54.24s(wall), 1943.69s(cpu)
        *  Thank you very much for using Q-Chem.  Have a nice day.  *
