 Q-Chem 5.4, Q-Chem, Inc., Pleasanton, CA (2021)
 Q-Chem 5.4.0 for Intel X86 EM64T Linux

User input:
--------------------------------------------------------------
$molecule
0 1
C	-0.797990	-0.619704	0.978067
S	-0.104590	-0.038504	2.485567
C	1.099510	0.972896	1.696967
C	-0.104690	-0.038904	-0.089833
C	0.958810	0.856396	0.291667
S	-0.289390	-0.197704	-1.827433
C	1.048910	0.932496	-2.076433
C	1.589910	1.389696	-0.884533
F	2.610710	2.252596	-0.841033
C	1.393310	1.219096	-3.478033
O	0.808710	0.718096	-4.428433
O	2.423110	2.092896	-3.591133
C	2.805710	2.407096	-4.938133
H	3.644610	3.120196	-4.855033
H	1.961010	2.864196	-5.492133
H	3.124010	1.494396	-5.481233
C	-0.797990	-2.054904	0.978067
H	-0.264490	-2.062904	0.039067
H	-0.069790	-2.732804	1.398167
H	-1.615690	-2.586004	0.513667
H	1.806710	1.568096	2.284567
$end

$rem
JOBTYPE		SP
EXCHANGE	HF
CORRELATION	pRIMP2
BASIS		cc-pvtz
METHOD		rimp2
AUX_BASIS	rimp2-cc-pvtz
SOLVENT_METHOD	PCM
PURECART	11111
SYMMETRY	false
MEM_TOTAL	110000
SCF_CONVERGENCE = 6
THRESH=10
GUI = 2
$end

$solvent
dielectric 4.90
$end
--------------------------------------------------------------

             Standard Nuclear Orientation (Angstroms)
    I     Atom           X                Y                Z
 ----------------------------------------------------------------
    1      C      -0.7979900000    -0.6197040000     0.9780670000
    2      S      -0.1045900000    -0.0385040000     2.4855670000
    3      C       1.0995100000     0.9728960000     1.6969670000
    4      C      -0.1046900000    -0.0389040000    -0.0898330000
    5      C       0.9588100000     0.8563960000     0.2916670000
    6      S      -0.2893900000    -0.1977040000    -1.8274330000
    7      C       1.0489100000     0.9324960000    -2.0764330000
    8      C       1.5899100000     1.3896960000    -0.8845330000
    9      F       2.6107100000     2.2525960000    -0.8410330000
   10      C       1.3933100000     1.2190960000    -3.4780330000
   11      O       0.8087100000     0.7180960000    -4.4284330000
   12      O       2.4231100000     2.0928960000    -3.5911330000
   13      C       2.8057100000     2.4070960000    -4.9381330000
   14      H       3.6446100000     3.1201960000    -4.8550330000
   15      H       1.9610100000     2.8641960000    -5.4921330000
   16      H       3.1240100000     1.4943960000    -5.4812330000
   17      C      -0.7979900000    -2.0549040000     0.9780670000
   18      H      -0.2644900000    -2.0629040000     0.0390670000
   19      H      -0.0697900000    -2.7328040000     1.3981670000
   20      H      -1.6156900000    -2.5860040000     0.5136670000
   21      H       1.8067100000     1.5680960000     2.2845670000
 ----------------------------------------------------------------

   11   -1389.2149050730      5.31e-07  Convergence criterion met
 Total energy in the final basis set =    -1389.2149050730
        RIMP2         total energy =     -1391.7320364223 a.u.

                    Orbital Energies (a.u.)
 --------------------------------------------------------------

 Alpha MOs
 -- Occupied --
-92.0045 -92.0021 -26.3434 -20.6143 -20.5602 -11.4086 -11.3831 -11.3148
-11.2989 -11.2949 -11.2887 -11.2806 -11.2712 -11.2153  -9.0038  -9.0019
 -6.6845  -6.6836  -6.6834  -6.6829  -6.6822  -6.6811  -1.6606  -1.4667
 -1.3693  -1.2207  -1.1410  -1.0711  -1.0212  -0.9911  -0.9599  -0.9076
 -0.8656  -0.8083  -0.7912  -0.7608  -0.7313  -0.7252  -0.6976  -0.6841
 -0.6736  -0.6617  -0.6087  -0.6016  -0.5929  -0.5844  -0.5648  -0.5617
 -0.5308  -0.5202  -0.5116  -0.4881  -0.4746  -0.4726  -0.4684  -0.4468
 -0.3825  -0.3400  -0.2963

          Ground-State Mulliken Net Atomic Charges

     Atom                 Charge (a.u.)
  ----------------------------------------
      1 C                    -0.087040
      2 S                     0.094982
      3 C                    -0.169143
      4 C                     0.041912
      5 C                    -0.103675
      6 S                     0.027706
      7 C                    -0.158196
      8 C                     0.390692
      9 F                    -0.206093
     10 C                     0.448522
     11 O                    -0.464053
     12 O                    -0.301446
     13 C                    -0.058299
     14 H                     0.121185
     15 H                     0.094943
     16 H                     0.094756
     17 C                    -0.369104
     18 H                     0.116405
     19 H                     0.151351
     20 H                     0.120546
     21 H                     0.214047
  ----------------------------------------
  Sum of atomic charges =     0.000000

                    Cartesian Multipole Moments
 -----------------------------------------------------------------
    Charge (ESU x 10^10)
                -0.0000
    Dipole Moment (Debye)
         X       2.7683      Y       0.6988      Z       2.4111
       Tot       3.7370
    Quadrupole Moments (Debye-Ang)
        XX     -91.4666     XY       4.6830     YY     -89.5545
        XZ      -4.3177     YZ      -4.9212     ZZ     -96.6782

 Total job time:  60.45s(wall), 2022.87s(cpu)
        *  Thank you very much for using Q-Chem.  Have a nice day.  *
