 Q-Chem 5.4, Q-Chem, Inc., Pleasanton, CA (2021)
 Q-Chem 5.4.0 for Intel X86 EM64T Linux

User input:
--------------------------------------------------------------
$molecule
0 1
C	-0.517706	-0.851940	0.976092
S	-0.064906	-0.068640	2.483592
C	0.720694	1.293660	1.694992
C	-0.064806	-0.069040	-0.091808
C	0.628194	1.136060	0.289692
S	-0.184106	-0.281440	-1.829408
C	0.686894	1.238360	-2.078408
C	1.038894	1.852960	-0.886508
F	1.703094	3.012960	-0.843008
C	0.912594	1.625360	-3.480008
O	0.534494	0.954660	-4.430408
O	1.581294	2.798760	-3.593108
C	1.833394	3.224860	-4.940108
H	2.377894	4.181860	-4.857008
H	0.883294	3.365460	-5.494108
H	2.444694	2.476060	-5.483208
C	-0.517706	-2.287140	0.976092
H	-1.582506	-2.295140	0.795892
H	-0.372006	-2.965040	0.148092
H	-0.674406	-2.818240	1.903292
H	1.181594	2.094760	2.282592
$end

$rem
JOBTYPE		SP
EXCHANGE	HF
CORRELATION	pRIMP2
BASIS		cc-pvtz
METHOD		rimp2
AUX_BASIS	rimp2-cc-pvtz
SOLVENT_METHOD	PCM
PURECART	11111
SYMMETRY	false
MEM_TOTAL	110000
SCF_CONVERGENCE = 6
THRESH=10
GUI = 2
$end

$solvent
dielectric 4.90
$end
--------------------------------------------------------------

             Standard Nuclear Orientation (Angstroms)
    I     Atom           X                Y                Z
 ----------------------------------------------------------------
    1      C      -0.5177060000    -0.8519400000     0.9760920000
    2      S      -0.0649060000    -0.0686400000     2.4835920000
    3      C       0.7206940000     1.2936600000     1.6949920000
    4      C      -0.0648060000    -0.0690400000    -0.0918080000
    5      C       0.6281940000     1.1360600000     0.2896920000
    6      S      -0.1841060000    -0.2814400000    -1.8294080000
    7      C       0.6868940000     1.2383600000    -2.0784080000
    8      C       1.0388940000     1.8529600000    -0.8865080000
    9      F       1.7030940000     3.0129600000    -0.8430080000
   10      C       0.9125940000     1.6253600000    -3.4800080000
   11      O       0.5344940000     0.9546600000    -4.4304080000
   12      O       1.5812940000     2.7987600000    -3.5931080000
   13      C       1.8333940000     3.2248600000    -4.9401080000
   14      H       2.3778940000     4.1818600000    -4.8570080000
   15      H       0.8832940000     3.3654600000    -5.4941080000
   16      H       2.4446940000     2.4760600000    -5.4832080000
   17      C      -0.5177060000    -2.2871400000     0.9760920000
   18      H      -1.5825060000    -2.2951400000     0.7958920000
   19      H      -0.3720060000    -2.9650400000     0.1480920000
   20      H      -0.6744060000    -2.8182400000     1.9032920000
   21      H       1.1815940000     2.0947600000     2.2825920000
 ----------------------------------------------------------------

   11   -1389.2499992807      4.81e-07  Convergence criterion met
 Total energy in the final basis set =    -1389.2499992807
        RIMP2         total energy =     -1391.7594722029 a.u.

                    Orbital Energies (a.u.)
 --------------------------------------------------------------

 Alpha MOs
 -- Occupied --
-92.0041 -91.9932 -26.3405 -20.6135 -20.5595 -11.4075 -11.3787 -11.2986
-11.2941 -11.2915 -11.2881 -11.2858 -11.2787 -11.2243  -9.0032  -8.9933
 -6.6840  -6.6833  -6.6829  -6.6743  -6.6736  -6.6725  -1.6577  -1.4658
 -1.3684  -1.2128  -1.1365  -1.0659  -1.0187  -0.9943  -0.9581  -0.9126
 -0.8633  -0.8053  -0.7884  -0.7586  -0.7299  -0.7226  -0.6929  -0.6832
 -0.6726  -0.6599  -0.6123  -0.5945  -0.5890  -0.5786  -0.5615  -0.5594
 -0.5332  -0.5275  -0.5084  -0.5004  -0.4736  -0.4714  -0.4708  -0.4549
 -0.3808  -0.3445  -0.2817

          Ground-State Mulliken Net Atomic Charges

     Atom                 Charge (a.u.)
  ----------------------------------------
      1 C                     0.006599
      2 S                     0.086787
      3 C                    -0.215169
      4 C                    -0.030002
      5 C                    -0.083704
      6 S                    -0.001701
      7 C                    -0.157276
      8 C                     0.392278
      9 F                    -0.208261
     10 C                     0.446620
     11 O                    -0.462624
     12 O                    -0.300980
     13 C                    -0.058476
     14 H                     0.121098
     15 H                     0.094721
     16 H                     0.094674
     17 C                    -0.385929
     18 H                     0.140793
     19 H                     0.164326
     20 H                     0.144176
     21 H                     0.212050
  ----------------------------------------
  Sum of atomic charges =     0.000000

                    Cartesian Multipole Moments
 -----------------------------------------------------------------
    Charge (ESU x 10^10)
                -0.0000
    Dipole Moment (Debye)
         X       0.4130      Y       0.2337      Z       3.0811
       Tot       3.1174
    Quadrupole Moments (Debye-Ang)
        XX     -93.7739     XY       6.7342     YY     -84.1673
        XZ      -4.9100     YZ      -8.6334     ZZ     -96.4278

 Total job time:  59.09s(wall), 1992.65s(cpu)
        *  Thank you very much for using Q-Chem.  Have a nice day.  *
