 Q-Chem 5.4, Q-Chem, Inc., Pleasanton, CA (2021)
 Q-Chem 5.4.0 for Intel X86 EM64T Linux

User input:
--------------------------------------------------------------
$molecule
0 1
C	-0.898965	-0.471137	0.976887
S	-0.115165	-0.019137	2.484387
C	1.246335	0.767763	1.695787
C	-0.115265	-0.019537	-0.091013
C	1.087435	0.677463	0.290487
S	-0.324865	-0.143837	-1.828613
C	1.189435	0.736763	-2.077613
C	1.801535	1.093063	-0.885713
F	2.956735	1.765563	-0.842213
C	1.578335	0.959163	-3.479213
O	0.915635	0.567363	-4.429613
O	2.744235	1.640863	-3.592313
C	3.175535	1.883963	-4.939313
H	4.125635	2.440463	-4.856213
H	2.423035	2.480763	-5.493313
H	3.330535	0.929763	-5.482413
C	-0.898965	-1.906337	0.976887
H	-1.837965	-1.914337	0.443387
H	-0.478865	-2.584237	0.248687
H	-1.363365	-2.437437	1.794587
H	2.046035	1.231163	2.283387
$end

$rem
JOBTYPE		SP
EXCHANGE	HF
CORRELATION	pRIMP2
BASIS		cc-pvtz
METHOD		rimp2
AUX_BASIS	rimp2-cc-pvtz
SOLVENT_METHOD	PCM
PURECART	11111
SYMMETRY	false
MEM_TOTAL	110000
SCF_CONVERGENCE = 6
THRESH=10
GUI = 2
$end

$solvent
dielectric 4.90
$end
--------------------------------------------------------------

             Standard Nuclear Orientation (Angstroms)
    I     Atom           X                Y                Z
 ----------------------------------------------------------------
    1      C      -0.8989650000    -0.4711370000     0.9768870000
    2      S      -0.1151650000    -0.0191370000     2.4843870000
    3      C       1.2463350000     0.7677630000     1.6957870000
    4      C      -0.1152650000    -0.0195370000    -0.0910130000
    5      C       1.0874350000     0.6774630000     0.2904870000
    6      S      -0.3248650000    -0.1438370000    -1.8286130000
    7      C       1.1894350000     0.7367630000    -2.0776130000
    8      C       1.8015350000     1.0930630000    -0.8857130000
    9      F       2.9567350000     1.7655630000    -0.8422130000
   10      C       1.5783350000     0.9591630000    -3.4792130000
   11      O       0.9156350000     0.5673630000    -4.4296130000
   12      O       2.7442350000     1.6408630000    -3.5923130000
   13      C       3.1755350000     1.8839630000    -4.9393130000
   14      H       4.1256350000     2.4404630000    -4.8562130000
   15      H       2.4230350000     2.4807630000    -5.4933130000
   16      H       3.3305350000     0.9297630000    -5.4824130000
   17      C      -0.8989650000    -1.9063370000     0.9768870000
   18      H      -1.8379650000    -1.9143370000     0.4433870000
   19      H      -0.4788650000    -2.5842370000     0.2486870000
   20      H      -1.3633650000    -2.4374370000     1.7945870000
   21      H       2.0460350000     1.2311630000     2.2833870000
 ----------------------------------------------------------------

   11   -1389.1955732380      6.15e-07  Convergence criterion met
 Total energy in the final basis set =    -1389.1955732380
        RIMP2         total energy =     -1391.7128060823 a.u.

                    Orbital Energies (a.u.)
 --------------------------------------------------------------

 Alpha MOs
 -- Occupied --
-92.0047 -91.9984 -26.3440 -20.6143 -20.5602 -11.4088 -11.3839 -11.3240
-11.3088 -11.2948 -11.2888 -11.2816 -11.2550 -11.2125  -9.0044  -8.9986
 -6.6853  -6.6846  -6.6836  -6.6792  -6.6781  -6.6781  -1.6611  -1.4668
 -1.3694  -1.2222  -1.1416  -1.0694  -1.0220  -0.9911  -0.9603  -0.9079
 -0.8664  -0.8099  -0.7916  -0.7609  -0.7325  -0.7257  -0.6978  -0.6843
 -0.6737  -0.6619  -0.6135  -0.5984  -0.5933  -0.5728  -0.5622  -0.5577
 -0.5322  -0.5264  -0.5050  -0.4988  -0.4778  -0.4728  -0.4712  -0.4368
 -0.3730  -0.3441  -0.2909

          Ground-State Mulliken Net Atomic Charges

     Atom                 Charge (a.u.)
  ----------------------------------------
      1 C                    -0.134400
      2 S                     0.094793
      3 C                    -0.135672
      4 C                     0.074219
      5 C                    -0.118130
      6 S                     0.042802
      7 C                    -0.158698
      8 C                     0.392950
      9 F                    -0.205835
     10 C                     0.448720
     11 O                    -0.464388
     12 O                    -0.301552
     13 C                    -0.058257
     14 H                     0.121236
     15 H                     0.095002
     16 H                     0.094745
     17 C                    -0.405749
     18 H                     0.127473
     19 H                     0.142756
     20 H                     0.134015
     21 H                     0.213968
  ----------------------------------------
  Sum of atomic charges =     0.000000

                    Cartesian Multipole Moments
 -----------------------------------------------------------------
    Charge (ESU x 10^10)
                -0.0000
    Dipole Moment (Debye)
         X       2.6936      Y       0.5483      Z       2.4304
       Tot       3.6692
    Quadrupole Moments (Debye-Ang)
        XX     -89.0890     XY       6.1899     YY     -91.5999
        XZ      -5.9035     YZ      -4.0019     ZZ     -95.9339

 Total job time:  54.13s(wall), 1909.58s(cpu)
        *  Thank you very much for using Q-Chem.  Have a nice day.  *
