 Q-Chem 5.4, Q-Chem, Inc., Pleasanton, CA (2021)
 Q-Chem 5.4.0 for Intel X86 EM64T Linux

User input:
--------------------------------------------------------------
$molecule
0 1
C	-0.088664	-0.987267	0.977564
S	-0.009364	-0.085967	2.485064
C	0.126936	1.480633	1.696464
C	-0.009064	-0.086367	-0.090336
C	0.109736	1.298733	0.291164
S	-0.027464	-0.329267	-1.827936
C	0.119636	1.416233	-2.076936
C	0.178936	2.122133	-0.885036
F	0.290636	3.454033	-0.841536
C	0.160636	1.862433	-3.478536
O	0.101436	1.094833	-4.428936
O	0.270836	3.208433	-3.591636
C	0.319236	3.701233	-4.938636
H	0.408236	4.798633	-4.855536
H	-0.601264	3.427033	-5.492636
H	1.189736	3.280833	-5.481736
C	-0.088664	-2.422467	0.977564
H	-0.788564	-2.430467	0.155064
H	0.555236	-3.100367	0.436964
H	-0.804764	-2.953567	1.587164
H	0.206136	2.401533	2.284064
$end

$rem
JOBTYPE		SP
EXCHANGE	HF
CORRELATION	pRIMP2
BASIS		cc-pvtz
METHOD		rimp2
AUX_BASIS	rimp2-cc-pvtz
SOLVENT_METHOD	PCM
PURECART	11111
SYMMETRY	false
MEM_TOTAL	110000
SCF_CONVERGENCE = 6
THRESH=10
GUI = 2
$end

$solvent
dielectric 4.90
$end
--------------------------------------------------------------

             Standard Nuclear Orientation (Angstroms)
    I     Atom           X                Y                Z
 ----------------------------------------------------------------
    1      C      -0.0886640000    -0.9872670000     0.9775640000
    2      S      -0.0093640000    -0.0859670000     2.4850640000
    3      C       0.1269360000     1.4806330000     1.6964640000
    4      C      -0.0090640000    -0.0863670000    -0.0903360000
    5      C       0.1097360000     1.2987330000     0.2911640000
    6      S      -0.0274640000    -0.3292670000    -1.8279360000
    7      C       0.1196360000     1.4162330000    -2.0769360000
    8      C       0.1789360000     2.1221330000    -0.8850360000
    9      F       0.2906360000     3.4540330000    -0.8415360000
   10      C       0.1606360000     1.8624330000    -3.4785360000
   11      O       0.1014360000     1.0948330000    -4.4289360000
   12      O       0.2708360000     3.2084330000    -3.5916360000
   13      C       0.3192360000     3.7012330000    -4.9386360000
   14      H       0.4082360000     4.7986330000    -4.8555360000
   15      H      -0.6012640000     3.4270330000    -5.4926360000
   16      H       1.1897360000     3.2808330000    -5.4817360000
   17      C      -0.0886640000    -2.4224670000     0.9775640000
   18      H      -0.7885640000    -2.4304670000     0.1550640000
   19      H       0.5552360000    -3.1003670000     0.4369640000
   20      H      -0.8047640000    -2.9535670000     1.5871640000
   21      H       0.2061360000     2.4015330000     2.2840640000
 ----------------------------------------------------------------

   11   -1389.2728961346      4.77e-07  Convergence criterion met
 Total energy in the final basis set =    -1389.2728961346
        RIMP2         total energy =     -1391.7784036720 a.u.

                    Orbital Energies (a.u.)
 --------------------------------------------------------------

 Alpha MOs
 -- Occupied --
-92.0045 -91.9929 -26.3408 -20.6136 -20.5597 -11.4076 -11.3790 -11.2975
-11.2964 -11.2945 -11.2882 -11.2857 -11.2788 -11.2278  -9.0035  -8.9930
 -6.6842  -6.6836  -6.6832  -6.6741  -6.6734  -6.6723  -1.6580  -1.4660
 -1.3686  -1.2125  -1.1354  -1.0673  -1.0184  -0.9955  -0.9581  -0.9139
 -0.8632  -0.8047  -0.7887  -0.7589  -0.7300  -0.7228  -0.6939  -0.6833
 -0.6728  -0.6608  -0.6115  -0.5975  -0.5906  -0.5819  -0.5651  -0.5569
 -0.5389  -0.5299  -0.5072  -0.4908  -0.4734  -0.4714  -0.4671  -0.4585
 -0.3875  -0.3446  -0.2878

          Ground-State Mulliken Net Atomic Charges

     Atom                 Charge (a.u.)
  ----------------------------------------
      1 C                     0.052474
      2 S                     0.074235
      3 C                    -0.211705
      4 C                    -0.024777
      5 C                    -0.093735
      6 S                    -0.009984
      7 C                    -0.156754
      8 C                     0.385969
      9 F                    -0.208079
     10 C                     0.445462
     11 O                    -0.462670
     12 O                    -0.300790
     13 C                    -0.058669
     14 H                     0.121170
     15 H                     0.094759
     16 H                     0.094698
     17 C                    -0.378934
     18 H                     0.122042
     19 H                     0.154182
     20 H                     0.148611
     21 H                     0.212494
  ----------------------------------------
  Sum of atomic charges =     0.000000

                    Cartesian Multipole Moments
 -----------------------------------------------------------------
    Charge (ESU x 10^10)
                -0.0000
    Dipole Moment (Debye)
         X      -0.2804      Y       0.3793      Z       2.7444
       Tot       2.7847
    Quadrupole Moments (Debye-Ang)
        XX     -96.3841     XY       2.1929     YY     -80.9547
        XZ      -1.4638     YZ      -9.0125     ZZ     -97.6270

 Total job time:  53.84s(wall), 1940.59s(cpu)
        *  Thank you very much for using Q-Chem.  Have a nice day.  *
