 Q-Chem 5.4, Q-Chem, Inc., Pleasanton, CA (2021)
 Q-Chem 5.4.0 for Intel X86 EM64T Linux

User input:
--------------------------------------------------------------
$molecule
0 1
C	-0.357769	-0.928548	0.974943
S	-0.047869	-0.078548	2.482443
C	0.489231	1.399452	1.693843
C	-0.047769	-0.078948	-0.092957
C	0.425531	1.228152	0.288543
S	-0.128369	-0.308748	-1.830557
C	0.465531	1.339152	-2.079557
C	0.705531	2.005552	-0.887657
F	1.158131	3.263252	-0.844157
C	0.620531	1.759552	-3.481157
O	0.364731	1.033352	-4.431557
O	1.075431	3.031152	-3.594257
C	1.249731	3.494552	-4.941257
H	1.619731	4.531652	-4.858157
H	0.289631	3.468052	-5.495257
H	1.981731	2.863252	-5.484357
C	-0.357769	-2.363748	0.974943
H	0.581231	-2.371748	1.508443
H	-0.777869	-3.041648	1.703143
H	0.106631	-2.894848	0.157243
H	0.804031	2.268452	2.281443
$end

$rem
JOBTYPE		SP
EXCHANGE	HF
CORRELATION	pRIMP2
BASIS		cc-pvtz
METHOD		rimp2
AUX_BASIS	rimp2-cc-pvtz
SOLVENT_METHOD	PCM
PURECART	11111
SYMMETRY	false
MEM_TOTAL	110000
SCF_CONVERGENCE = 6
THRESH=10
GUI = 2
$end

$solvent
dielectric 4.90
$end
--------------------------------------------------------------

             Standard Nuclear Orientation (Angstroms)
    I     Atom           X                Y                Z
 ----------------------------------------------------------------
    1      C      -0.3577690000    -0.9285480000     0.9749430000
    2      S      -0.0478690000    -0.0785480000     2.4824430000
    3      C       0.4892310000     1.3994520000     1.6938430000
    4      C      -0.0477690000    -0.0789480000    -0.0929570000
    5      C       0.4255310000     1.2281520000     0.2885430000
    6      S      -0.1283690000    -0.3087480000    -1.8305570000
    7      C       0.4655310000     1.3391520000    -2.0795570000
    8      C       0.7055310000     2.0055520000    -0.8876570000
    9      F       1.1581310000     3.2632520000    -0.8441570000
   10      C       0.6205310000     1.7595520000    -3.4811570000
   11      O       0.3647310000     1.0333520000    -4.4315570000
   12      O       1.0754310000     3.0311520000    -3.5942570000
   13      C       1.2497310000     3.4945520000    -4.9412570000
   14      H       1.6197310000     4.5316520000    -4.8581570000
   15      H       0.2896310000     3.4680520000    -5.4952570000
   16      H       1.9817310000     2.8632520000    -5.4843570000
   17      C      -0.3577690000    -2.3637480000     0.9749430000
   18      H       0.5812310000    -2.3717480000     1.5084430000
   19      H      -0.7778690000    -3.0416480000     1.7031430000
   20      H       0.1066310000    -2.8948480000     0.1572430000
   21      H       0.8040310000     2.2684520000     2.2814430000
 ----------------------------------------------------------------

   11   -1389.2660412465      5.44e-07  Convergence criterion met
 Total energy in the final basis set =    -1389.2660412465
        RIMP2         total energy =     -1391.7708640636 a.u.

                    Orbital Energies (a.u.)
 --------------------------------------------------------------

 Alpha MOs
 -- Occupied --
-92.0037 -91.9907 -26.3402 -20.6134 -20.5595 -11.4073 -11.3781 -11.2989
-11.2967 -11.2942 -11.2880 -11.2832 -11.2785 -11.2291  -9.0030  -8.9908
 -6.6839  -6.6833  -6.6827  -6.6719  -6.6712  -6.6701  -1.6574  -1.4657
 -1.3683  -1.2126  -1.1377  -1.0665  -1.0188  -0.9945  -0.9581  -0.9118
 -0.8632  -0.8055  -0.7881  -0.7582  -0.7313  -0.7223  -0.6920  -0.6831
 -0.6725  -0.6600  -0.6115  -0.5991  -0.5927  -0.5757  -0.5638  -0.5554
 -0.5350  -0.5292  -0.5139  -0.4969  -0.4728  -0.4710  -0.4705  -0.4562
 -0.3858  -0.3461  -0.2823

          Ground-State Mulliken Net Atomic Charges

     Atom                 Charge (a.u.)
  ----------------------------------------
      1 C                     0.056333
      2 S                     0.072954
      3 C                    -0.218747
      4 C                    -0.063245
      5 C                    -0.078434
      6 S                    -0.007471
      7 C                    -0.155392
      8 C                     0.388976
      9 F                    -0.208678
     10 C                     0.445649
     11 O                    -0.461914
     12 O                    -0.300885
     13 C                    -0.058464
     14 H                     0.121002
     15 H                     0.094805
     16 H                     0.094631
     17 C                    -0.381868
     18 H                     0.142087
     19 H                     0.158342
     20 H                     0.147500
     21 H                     0.212818
  ----------------------------------------
  Sum of atomic charges =     0.000000

                    Cartesian Multipole Moments
 -----------------------------------------------------------------
    Charge (ESU x 10^10)
                -0.0000
    Dipole Moment (Debye)
         X       1.3248      Y       0.1396      Z       3.5658
       Tot       3.8065
    Quadrupole Moments (Debye-Ang)
        XX     -96.0593     XY       2.2676     YY     -82.1219
        XZ      -2.6969     YZ     -10.8285     ZZ     -95.9253

 Total job time:  59.02s(wall), 1967.92s(cpu)
        *  Thank you very much for using Q-Chem.  Have a nice day.  *
