 Q-Chem 5.4, Q-Chem, Inc., Pleasanton, CA (2021)
 Q-Chem 5.4.0 for Intel X86 EM64T Linux

User input:
--------------------------------------------------------------
$molecule
0 1
C	-0.178255	-0.975447	0.974891
S	-0.020655	-0.084547	2.482391
C	0.251645	1.464253	1.693791
C	-0.020455	-0.084847	-0.093009
C	0.218645	1.284553	0.288491
S	-0.059955	-0.325247	-1.830609
C	0.238745	1.400753	-2.079609
C	0.359345	2.098753	-0.887709
F	0.586745	3.415953	-0.844209
C	0.318445	1.841653	-3.481209
O	0.192645	1.082153	-4.431609
O	0.545645	3.172953	-3.594309
C	0.636745	3.659653	-4.941309
H	0.821045	4.745153	-4.858209
H	-0.304155	3.466753	-5.495309
H	1.467245	3.165053	-5.484409
C	-0.178255	-2.410647	0.974891
H	-1.190555	-2.418647	1.351291
H	-0.466055	-3.088547	0.184991
H	0.149645	-2.941747	1.856291
H	0.410745	2.374753	2.281391
$end

$rem
JOBTYPE		SP
EXCHANGE	HF
CORRELATION	pRIMP2
BASIS		cc-pvtz
METHOD		rimp2
AUX_BASIS	rimp2-cc-pvtz
SOLVENT_METHOD	PCM
PURECART	11111
SYMMETRY	false
MEM_TOTAL	110000
SCF_CONVERGENCE = 6
THRESH=10
GUI = 2
$end

$solvent
dielectric 4.90
$end
--------------------------------------------------------------

             Standard Nuclear Orientation (Angstroms)
    I     Atom           X                Y                Z
 ----------------------------------------------------------------
    1      C      -0.1782550000    -0.9754470000     0.9748910000
    2      S      -0.0206550000    -0.0845470000     2.4823910000
    3      C       0.2516450000     1.4642530000     1.6937910000
    4      C      -0.0204550000    -0.0848470000    -0.0930090000
    5      C       0.2186450000     1.2845530000     0.2884910000
    6      S      -0.0599550000    -0.3252470000    -1.8306090000
    7      C       0.2387450000     1.4007530000    -2.0796090000
    8      C       0.3593450000     2.0987530000    -0.8877090000
    9      F       0.5867450000     3.4159530000    -0.8442090000
   10      C       0.3184450000     1.8416530000    -3.4812090000
   11      O       0.1926450000     1.0821530000    -4.4316090000
   12      O       0.5456450000     3.1729530000    -3.5943090000
   13      C       0.6367450000     3.6596530000    -4.9413090000
   14      H       0.8210450000     4.7451530000    -4.8582090000
   15      H      -0.3041550000     3.4667530000    -5.4953090000
   16      H       1.4672450000     3.1650530000    -5.4844090000
   17      C      -0.1782550000    -2.4106470000     0.9748910000
   18      H      -1.1905550000    -2.4186470000     1.3512910000
   19      H      -0.4660550000    -3.0885470000     0.1849910000
   20      H       0.1496450000    -2.9417470000     1.8562910000
   21      H       0.4107450000     2.3747530000     2.2813910000
 ----------------------------------------------------------------

   11   -1389.2692457694      5.18e-07  Convergence criterion met
 Total energy in the final basis set =    -1389.2692457694
        RIMP2         total energy =     -1391.7733611278 a.u.

                    Orbital Energies (a.u.)
 --------------------------------------------------------------

 Alpha MOs
 -- Occupied --
-92.0064 -91.9897 -26.3395 -20.6132 -20.5594 -11.4071 -11.3772 -11.3007
-11.2941 -11.2933 -11.2879 -11.2800 -11.2779 -11.2296  -9.0053  -8.9899
 -6.6862  -6.6856  -6.6851  -6.6710  -6.6703  -6.6691  -1.6568  -1.4656
 -1.3682  -1.2109  -1.1363  -1.0658  -1.0182  -0.9956  -0.9577  -0.9131
 -0.8627  -0.8045  -0.7876  -0.7579  -0.7305  -0.7217  -0.6917  -0.6829
 -0.6723  -0.6598  -0.6125  -0.5947  -0.5891  -0.5814  -0.5625  -0.5574
 -0.5324  -0.5276  -0.5150  -0.4975  -0.4720  -0.4715  -0.4704  -0.4596
 -0.3841  -0.3453  -0.2809

          Ground-State Mulliken Net Atomic Charges

     Atom                 Charge (a.u.)
  ----------------------------------------
      1 C                     0.029713
      2 S                     0.073681
      3 C                    -0.221650
      4 C                    -0.009598
      5 C                    -0.099837
      6 S                    -0.014543
      7 C                    -0.157657
      8 C                     0.391608
      9 F                    -0.209444
     10 C                     0.445899
     11 O                    -0.461965
     12 O                    -0.300681
     13 C                    -0.058689
     14 H                     0.121028
     15 H                     0.094670
     16 H                     0.094700
     17 C                    -0.387173
     18 H                     0.141169
     19 H                     0.169164
     20 H                     0.145946
     21 H                     0.213660
  ----------------------------------------
  Sum of atomic charges =     0.000000

                    Cartesian Multipole Moments
 -----------------------------------------------------------------
    Charge (ESU x 10^10)
                -0.0000
    Dipole Moment (Debye)
         X      -0.3641      Y       0.0501      Z       3.5550
       Tot       3.5740
    Quadrupole Moments (Debye-Ang)
        XX     -96.3762     XY       3.8344     YY     -80.8523
        XZ      -1.9631     YZ     -11.0342     ZZ     -95.9878

 Total job time:  56.42s(wall), 1948.06s(cpu)
        *  Thank you very much for using Q-Chem.  Have a nice day.  *
