 Q-Chem 5.4, Q-Chem, Inc., Pleasanton, CA (2021)
 Q-Chem 5.4.0 for Intel X86 EM64T Linux

User input:
--------------------------------------------------------------
$molecule
0 1
C	-0.179411	-0.975447	0.973763
S	-0.021811	-0.084547	2.481263
C	0.250489	1.464253	1.692663
C	-0.021611	-0.084847	-0.094137
C	0.217489	1.284553	0.287363
S	-0.061111	-0.325247	-1.831737
C	0.237589	1.400753	-2.080737
C	0.358189	2.098753	-0.888837
F	0.585589	3.415953	-0.845337
C	0.317289	1.841653	-3.482337
O	0.191489	1.082153	-4.432737
O	0.544489	3.172953	-3.595437
C	0.635589	3.659653	-4.942437
H	0.819889	4.745153	-4.859337
H	-0.305311	3.466753	-5.496437
H	1.466089	3.165053	-5.485537
C	-0.179411	-2.410647	0.973763
H	-0.712911	-2.418647	1.912763
H	-0.907611	-3.088547	0.553663
H	0.638289	-2.941747	1.438163
H	0.409589	2.374753	2.280263
$end

$rem
JOBTYPE		SP
EXCHANGE	HF
CORRELATION	pRIMP2
BASIS		cc-pvtz
METHOD		rimp2
AUX_BASIS	rimp2-cc-pvtz
SOLVENT_METHOD	PCM
PURECART	11111
SYMMETRY	false
MEM_TOTAL	110000
SCF_CONVERGENCE = 6
THRESH=10
GUI = 2
$end

$solvent
dielectric 4.90
$end
--------------------------------------------------------------

             Standard Nuclear Orientation (Angstroms)
    I     Atom           X                Y                Z
 ----------------------------------------------------------------
    1      C      -0.1794110000    -0.9754470000     0.9737630000
    2      S      -0.0218110000    -0.0845470000     2.4812630000
    3      C       0.2504890000     1.4642530000     1.6926630000
    4      C      -0.0216110000    -0.0848470000    -0.0941370000
    5      C       0.2174890000     1.2845530000     0.2873630000
    6      S      -0.0611110000    -0.3252470000    -1.8317370000
    7      C       0.2375890000     1.4007530000    -2.0807370000
    8      C       0.3581890000     2.0987530000    -0.8888370000
    9      F       0.5855890000     3.4159530000    -0.8453370000
   10      C       0.3172890000     1.8416530000    -3.4823370000
   11      O       0.1914890000     1.0821530000    -4.4327370000
   12      O       0.5444890000     3.1729530000    -3.5954370000
   13      C       0.6355890000     3.6596530000    -4.9424370000
   14      H       0.8198890000     4.7451530000    -4.8593370000
   15      H      -0.3053110000     3.4667530000    -5.4964370000
   16      H       1.4660890000     3.1650530000    -5.4855370000
   17      C      -0.1794110000    -2.4106470000     0.9737630000
   18      H      -0.7129110000    -2.4186470000     1.9127630000
   19      H      -0.9076110000    -3.0885470000     0.5536630000
   20      H       0.6382890000    -2.9417470000     1.4381630000
   21      H       0.4095890000     2.3747530000     2.2802630000
 ----------------------------------------------------------------

   11   -1389.2689280496      4.86e-07  Convergence criterion met
 Total energy in the final basis set =    -1389.2689280496
        RIMP2         total energy =     -1391.7739620385 a.u.

                    Orbital Energies (a.u.)
 --------------------------------------------------------------

 Alpha MOs
 -- Occupied --
-92.0079 -91.9915 -26.3402 -20.6133 -20.5594 -11.4072 -11.3781 -11.2992
-11.2941 -11.2936 -11.2880 -11.2840 -11.2784 -11.2260  -9.0068  -8.9916
 -6.6876  -6.6870  -6.6865  -6.6727  -6.6720  -6.6708  -1.6574  -1.4657
 -1.3683  -1.2120  -1.1368  -1.0648  -1.0195  -0.9952  -0.9584  -0.9126
 -0.8635  -0.8061  -0.7881  -0.7579  -0.7311  -0.7223  -0.6913  -0.6831
 -0.6725  -0.6604  -0.6096  -0.5993  -0.5914  -0.5782  -0.5653  -0.5566
 -0.5378  -0.5298  -0.5083  -0.4836  -0.4729  -0.4710  -0.4684  -0.4607
 -0.3893  -0.3453  -0.2886

          Ground-State Mulliken Net Atomic Charges

     Atom                 Charge (a.u.)
  ----------------------------------------
      1 C                     0.013954
      2 S                     0.076104
      3 C                    -0.207222
      4 C                     0.004299
      5 C                    -0.098659
      6 S                    -0.006684
      7 C                    -0.158843
      8 C                     0.392101
      9 F                    -0.209057
     10 C                     0.445272
     11 O                    -0.462240
     12 O                    -0.300806
     13 C                    -0.058666
     14 H                     0.121012
     15 H                     0.094734
     16 H                     0.094719
     17 C                    -0.371776
     18 H                     0.117331
     19 H                     0.163630
     20 H                     0.136527
     21 H                     0.214270
  ----------------------------------------
  Sum of atomic charges =     0.000000

                    Cartesian Multipole Moments
 -----------------------------------------------------------------
    Charge (ESU x 10^10)
                -0.0000
    Dipole Moment (Debye)
         X       0.0543      Y       0.5508      Z       3.7842
       Tot       3.8245
    Quadrupole Moments (Debye-Ang)
        XX     -95.9938     XY       2.9665     YY     -81.5094
        XZ      -1.5079     YZ     -11.1993     ZZ     -95.5269

 Total job time:  56.11s(wall), 1941.42s(cpu)
        *  Thank you very much for using Q-Chem.  Have a nice day.  *
