 Q-Chem 5.4, Q-Chem, Inc., Pleasanton, CA (2021)
 Q-Chem 5.4.0 for Intel X86 EM64T Linux

User input:
--------------------------------------------------------------
$molecule
0 1
C	-0.521392	-0.851940	0.977865
S	-0.068592	-0.068640	2.485365
C	0.717008	1.293660	1.696765
C	-0.068492	-0.069040	-0.090035
C	0.624508	1.136060	0.291465
S	-0.187792	-0.281440	-1.827635
C	0.683208	1.238360	-2.076635
C	1.035208	1.852960	-0.884735
F	1.699408	3.012960	-0.841235
C	0.908908	1.625360	-3.478235
O	0.530808	0.954660	-4.428635
O	1.577608	2.798760	-3.591335
C	1.829708	3.224860	-4.938335
H	2.374208	4.181860	-4.855235
H	0.879608	3.365460	-5.492335
H	2.441008	2.476060	-5.481435
C	-0.521392	-2.287140	0.977865
H	0.167108	-2.295140	0.145765
H	0.122808	-2.965040	1.518065
H	-1.245992	-2.818240	0.378565
H	1.177908	2.094760	2.284365
$end

$rem
JOBTYPE		SP
EXCHANGE	HF
CORRELATION	pRIMP2
BASIS		cc-pvtz
METHOD		rimp2
AUX_BASIS	rimp2-cc-pvtz
SOLVENT_METHOD	PCM
PURECART	11111
SYMMETRY	false
MEM_TOTAL	110000
SCF_CONVERGENCE = 6
THRESH=10
GUI = 2
$end

$solvent
dielectric 4.90
$end
--------------------------------------------------------------

             Standard Nuclear Orientation (Angstroms)
    I     Atom           X                Y                Z
 ----------------------------------------------------------------
    1      C      -0.5213920000    -0.8519400000     0.9778650000
    2      S      -0.0685920000    -0.0686400000     2.4853650000
    3      C       0.7170080000     1.2936600000     1.6967650000
    4      C      -0.0684920000    -0.0690400000    -0.0900350000
    5      C       0.6245080000     1.1360600000     0.2914650000
    6      S      -0.1877920000    -0.2814400000    -1.8276350000
    7      C       0.6832080000     1.2383600000    -2.0766350000
    8      C       1.0352080000     1.8529600000    -0.8847350000
    9      F       1.6994080000     3.0129600000    -0.8412350000
   10      C       0.9089080000     1.6253600000    -3.4782350000
   11      O       0.5308080000     0.9546600000    -4.4286350000
   12      O       1.5776080000     2.7987600000    -3.5913350000
   13      C       1.8297080000     3.2248600000    -4.9383350000
   14      H       2.3742080000     4.1818600000    -4.8552350000
   15      H       0.8796080000     3.3654600000    -5.4923350000
   16      H       2.4410080000     2.4760600000    -5.4814350000
   17      C      -0.5213920000    -2.2871400000     0.9778650000
   18      H       0.1671080000    -2.2951400000     0.1457650000
   19      H       0.1228080000    -2.9650400000     1.5180650000
   20      H      -1.2459920000    -2.8182400000     0.3785650000
   21      H       1.1779080000     2.0947600000     2.2843650000
 ----------------------------------------------------------------

   11   -1389.2526669919      4.81e-07  Convergence criterion met
 Total energy in the final basis set =    -1389.2526669919
        RIMP2         total energy =     -1391.7629156800 a.u.

                    Orbital Energies (a.u.)
 --------------------------------------------------------------

 Alpha MOs
 -- Occupied --
-92.0054 -91.9959 -26.3415 -20.6138 -20.5599 -11.4080 -11.3802 -11.3006
-11.2947 -11.2911 -11.2884 -11.2878 -11.2794 -11.2237  -9.0043  -8.9959
 -6.6851  -6.6844  -6.6840  -6.6769  -6.6762  -6.6751  -1.6587  -1.4662
 -1.3688  -1.2149  -1.1375  -1.0683  -1.0192  -0.9934  -0.9586  -0.9113
 -0.8639  -0.8056  -0.7894  -0.7594  -0.7301  -0.7235  -0.6945  -0.6836
 -0.6730  -0.6608  -0.6085  -0.5992  -0.5917  -0.5867  -0.5642  -0.5599
 -0.5306  -0.5283  -0.5084  -0.4897  -0.4733  -0.4719  -0.4656  -0.4600
 -0.3847  -0.3433  -0.2895

          Ground-State Mulliken Net Atomic Charges

     Atom                 Charge (a.u.)
  ----------------------------------------
      1 C                     0.001727
      2 S                     0.084229
      3 C                    -0.206396
      4 C                    -0.015538
      5 C                    -0.085957
      6 S                     0.002717
      7 C                    -0.155987
      8 C                     0.387274
      9 F                    -0.207391
     10 C                     0.447264
     11 O                    -0.462818
     12 O                    -0.301101
     13 C                    -0.058428
     14 H                     0.121174
     15 H                     0.094845
     16 H                     0.094669
     17 C                    -0.382880
     18 H                     0.127757
     19 H                     0.164675
     20 H                     0.138063
     21 H                     0.212100
  ----------------------------------------
  Sum of atomic charges =     0.000000

                    Cartesian Multipole Moments
 -----------------------------------------------------------------
    Charge (ESU x 10^10)
                -0.0000
    Dipole Moment (Debye)
         X       1.5938      Y       0.4649      Z       2.6668
       Tot       3.1414
    Quadrupole Moments (Debye-Ang)
        XX     -94.5008     XY       3.7958     YY     -84.5419
        XZ      -3.0959     YZ      -7.7012     ZZ     -97.2174

 Total job time:  60.33s(wall), 2089.36s(cpu)
        *  Thank you very much for using Q-Chem.  Have a nice day.  *
