 Q-Chem 5.4, Q-Chem, Inc., Pleasanton, CA (2021)
 Q-Chem 5.4.0 for Intel X86 EM64T Linux

User input:
--------------------------------------------------------------
$molecule
0 1
C	-0.356256	-0.928548	0.973641
S	-0.046356	-0.078548	2.481141
C	0.490744	1.399452	1.692541
C	-0.046256	-0.078948	-0.094259
C	0.427044	1.228152	0.287241
S	-0.126856	-0.308748	-1.831859
C	0.467044	1.339152	-2.080859
C	0.707044	2.005552	-0.888959
F	1.159644	3.263252	-0.845459
C	0.622044	1.759552	-3.482459
O	0.366244	1.033352	-4.432859
O	1.076944	3.031152	-3.595559
C	1.251244	3.494552	-4.942559
H	1.621244	4.531652	-4.859459
H	0.291144	3.468052	-5.496559
H	1.983244	2.863252	-5.485659
C	-0.356256	-2.363748	0.973641
H	-0.161356	-2.371748	2.035841
H	-1.184156	-3.041648	1.119941
H	0.568644	-2.894848	0.803841
H	0.805544	2.268452	2.280141
$end

$rem
JOBTYPE		SP
EXCHANGE	HF
CORRELATION	pRIMP2
BASIS		cc-pvtz
METHOD		rimp2
AUX_BASIS	rimp2-cc-pvtz
SOLVENT_METHOD	PCM
PURECART	11111
SYMMETRY	false
MEM_TOTAL	110000
SCF_CONVERGENCE = 6
THRESH=10
GUI = 2
$end

$solvent
dielectric 4.90
$end
--------------------------------------------------------------

             Standard Nuclear Orientation (Angstroms)
    I     Atom           X                Y                Z
 ----------------------------------------------------------------
    1      C      -0.3562560000    -0.9285480000     0.9736410000
    2      S      -0.0463560000    -0.0785480000     2.4811410000
    3      C       0.4907440000     1.3994520000     1.6925410000
    4      C      -0.0462560000    -0.0789480000    -0.0942590000
    5      C       0.4270440000     1.2281520000     0.2872410000
    6      S      -0.1268560000    -0.3087480000    -1.8318590000
    7      C       0.4670440000     1.3391520000    -2.0808590000
    8      C       0.7070440000     2.0055520000    -0.8889590000
    9      F       1.1596440000     3.2632520000    -0.8454590000
   10      C       0.6220440000     1.7595520000    -3.4824590000
   11      O       0.3662440000     1.0333520000    -4.4328590000
   12      O       1.0769440000     3.0311520000    -3.5955590000
   13      C       1.2512440000     3.4945520000    -4.9425590000
   14      H       1.6212440000     4.5316520000    -4.8594590000
   15      H       0.2911440000     3.4680520000    -5.4965590000
   16      H       1.9832440000     2.8632520000    -5.4856590000
   17      C      -0.3562560000    -2.3637480000     0.9736410000
   18      H      -0.1613560000    -2.3717480000     2.0358410000
   19      H      -1.1841560000    -3.0416480000     1.1199410000
   20      H       0.5686440000    -2.8948480000     0.8038410000
   21      H       0.8055440000     2.2684520000     2.2801410000
 ----------------------------------------------------------------

   11   -1389.2624376795      4.81e-07  Convergence criterion met
 Total energy in the final basis set =    -1389.2624376795
        RIMP2         total energy =     -1391.7690913161 a.u.

                    Orbital Energies (a.u.)
 --------------------------------------------------------------

 Alpha MOs
 -- Occupied --
-92.0073 -91.9929 -26.3407 -20.6134 -20.5594 -11.4073 -11.3789 -11.3025
-11.2940 -11.2892 -11.2880 -11.2871 -11.2787 -11.2240  -9.0064  -8.9930
 -6.6871  -6.6865  -6.6860  -6.6741  -6.6734  -6.6723  -1.6580  -1.4657
 -1.3683  -1.2132  -1.1377  -1.0649  -1.0202  -0.9943  -0.9589  -0.9115
 -0.8641  -0.8072  -0.7886  -0.7580  -0.7315  -0.7228  -0.6916  -0.6831
 -0.6726  -0.6606  -0.6066  -0.6036  -0.5921  -0.5758  -0.5657  -0.5571
 -0.5385  -0.5299  -0.5078  -0.4803  -0.4742  -0.4713  -0.4684  -0.4552
 -0.3915  -0.3449  -0.2919

          Ground-State Mulliken Net Atomic Charges

     Atom                 Charge (a.u.)
  ----------------------------------------
      1 C                     0.023944
      2 S                     0.076654
      3 C                    -0.206267
      4 C                    -0.024740
      5 C                    -0.081808
      6 S                     0.000942
      7 C                    -0.156478
      8 C                     0.388931
      9 F                    -0.208365
     10 C                     0.445772
     11 O                    -0.462437
     12 O                    -0.301035
     13 C                    -0.058444
     14 H                     0.120945
     15 H                     0.094778
     16 H                     0.094681
     17 C                    -0.364676
     18 H                     0.113221
     19 H                     0.148579
     20 H                     0.141112
     21 H                     0.214692
  ----------------------------------------
  Sum of atomic charges =     0.000000

                    Cartesian Multipole Moments
 -----------------------------------------------------------------
    Charge (ESU x 10^10)
                -0.0000
    Dipole Moment (Debye)
         X       0.9615      Y       0.7095      Z       3.7907
       Tot       3.9746
    Quadrupole Moments (Debye-Ang)
        XX     -95.1820     XY       3.3943     YY     -82.9769
        XZ      -2.9190     YZ     -10.6877     ZZ     -95.3761

 Total job time:  64.05s(wall), 1989.17s(cpu)
        *  Thank you very much for using Q-Chem.  Have a nice day.  *
