 Q-Chem 5.4, Q-Chem, Inc., Pleasanton, CA (2021)
 Q-Chem 5.4.0 for Intel X86 EM64T Linux

User input:
--------------------------------------------------------------
$molecule
0 1
C	-0.441647	-0.893839	0.976939
S	-0.058847	-0.074039	2.484439
C	0.605053	1.351461	1.695839
C	-0.058747	-0.074439	-0.090961
C	0.526653	1.186461	0.290539
S	-0.159047	-0.296439	-1.828561
C	0.576153	1.293461	-2.077561
C	0.873353	1.936461	-0.885661
F	1.433853	3.149961	-0.842161
C	0.767253	1.698761	-3.479161
O	0.449153	0.997661	-4.429561
O	1.331253	2.925861	-3.592261
C	1.545253	3.372361	-4.939261
H	2.004153	4.373161	-4.856161
H	0.586453	3.429561	-5.493261
H	2.219453	2.679661	-5.482361
C	-0.441647	-2.329039	0.976939
H	0.570653	-2.337039	0.600539
H	-0.153847	-3.006939	1.766839
H	-0.769547	-2.860139	0.095539
H	0.994353	2.189761	2.283439
$end

$rem
JOBTYPE		SP
EXCHANGE	HF
CORRELATION	pRIMP2
BASIS		cc-pvtz
METHOD		rimp2
AUX_BASIS	rimp2-cc-pvtz
SOLVENT_METHOD	PCM
PURECART	11111
SYMMETRY	false
MEM_TOTAL	110000
SCF_CONVERGENCE = 6
THRESH=10
GUI = 2
$end

$solvent
dielectric 4.90
$end
--------------------------------------------------------------

             Standard Nuclear Orientation (Angstroms)
    I     Atom           X                Y                Z
 ----------------------------------------------------------------
    1      C      -0.4416470000    -0.8938390000     0.9769390000
    2      S      -0.0588470000    -0.0740390000     2.4844390000
    3      C       0.6050530000     1.3514610000     1.6958390000
    4      C      -0.0587470000    -0.0744390000    -0.0909610000
    5      C       0.5266530000     1.1864610000     0.2905390000
    6      S      -0.1590470000    -0.2964390000    -1.8285610000
    7      C       0.5761530000     1.2934610000    -2.0775610000
    8      C       0.8733530000     1.9364610000    -0.8856610000
    9      F       1.4338530000     3.1499610000    -0.8421610000
   10      C       0.7672530000     1.6987610000    -3.4791610000
   11      O       0.4491530000     0.9976610000    -4.4295610000
   12      O       1.3312530000     2.9258610000    -3.5922610000
   13      C       1.5452530000     3.3723610000    -4.9392610000
   14      H       2.0041530000     4.3731610000    -4.8561610000
   15      H       0.5864530000     3.4295610000    -5.4932610000
   16      H       2.2194530000     2.6796610000    -5.4823610000
   17      C      -0.4416470000    -2.3290390000     0.9769390000
   18      H       0.5706530000    -2.3370390000     0.6005390000
   19      H      -0.1538470000    -3.0069390000     1.7668390000
   20      H      -0.7695470000    -2.8601390000     0.0955390000
   21      H       0.9943530000     2.1897610000     2.2834390000
 ----------------------------------------------------------------

   11   -1389.2616644244      5.12e-07  Convergence criterion met
 Total energy in the final basis set =    -1389.2616644244
        RIMP2         total energy =     -1391.7690287818 a.u.

                    Orbital Energies (a.u.)
 --------------------------------------------------------------

 Alpha MOs
 -- Occupied --
-92.0061 -91.9926 -26.3404 -20.6136 -20.5597 -11.4076 -11.3784 -11.2998
-11.2947 -11.2939 -11.2882 -11.2817 -11.2792 -11.2298  -9.0049  -8.9927
 -6.6857  -6.6851  -6.6846  -6.6737  -6.6730  -6.6719  -1.6576  -1.4660
 -1.3686  -1.2131  -1.1377  -1.0678  -1.0184  -0.9943  -0.9581  -0.9115
 -0.8633  -0.8046  -0.7885  -0.7588  -0.7304  -0.7225  -0.6930  -0.6834
 -0.6727  -0.6602  -0.6113  -0.5952  -0.5934  -0.5835  -0.5617  -0.5611
 -0.5308  -0.5264  -0.5107  -0.4995  -0.4724  -0.4715  -0.4697  -0.4614
 -0.3832  -0.3445  -0.2821

          Ground-State Mulliken Net Atomic Charges

     Atom                 Charge (a.u.)
  ----------------------------------------
      1 C                     0.032142
      2 S                     0.083810
      3 C                    -0.227914
      4 C                    -0.036194
      5 C                    -0.082492
      6 S                    -0.009198
      7 C                    -0.153987
      8 C                     0.387860
      9 F                    -0.208431
     10 C                     0.447333
     11 O                    -0.462034
     12 O                    -0.300866
     13 C                    -0.058507
     14 H                     0.121149
     15 H                     0.094848
     16 H                     0.094634
     17 C                    -0.389791
     18 H                     0.145612
     19 H                     0.166361
     20 H                     0.143853
     21 H                     0.211814
  ----------------------------------------
  Sum of atomic charges =     0.000000

                    Cartesian Multipole Moments
 -----------------------------------------------------------------
    Charge (ESU x 10^10)
                -0.0000
    Dipole Moment (Debye)
         X       1.4722      Y       0.0191      Z       2.9963
       Tot       3.3385
    Quadrupole Moments (Debye-Ang)
        XX     -95.6974     XY       2.8937     YY     -82.9382
        XZ      -2.7555     YZ      -9.3196     ZZ     -96.7320

 Total job time:  60.02s(wall), 2017.16s(cpu)
        *  Thank you very much for using Q-Chem.  Have a nice day.  *
