 Q-Chem 5.4, Q-Chem, Inc., Pleasanton, CA (2021)
 Q-Chem 5.4.0 for Intel X86 EM64T Linux

User input:
--------------------------------------------------------------
$molecule
0 1
C	-0.089382	-0.987267	0.973763
S	-0.010082	-0.085967	2.481263
C	0.126218	1.480633	1.692663
C	-0.009782	-0.086367	-0.094137
C	0.109018	1.298733	0.287363
S	-0.028182	-0.329267	-1.831737
C	0.118918	1.416233	-2.080737
C	0.178218	2.122133	-0.888837
F	0.289918	3.454033	-0.845337
C	0.159918	1.862433	-3.482337
O	0.100718	1.094833	-4.432737
O	0.270118	3.208433	-3.595437
C	0.318518	3.701233	-4.942437
H	0.407518	4.798633	-4.859337
H	-0.601982	3.427033	-5.496437
H	1.189018	3.280833	-5.485537
C	-0.089382	-2.422467	0.973763
H	-0.622882	-2.430467	1.912763
H	-0.817582	-3.100367	0.553663
H	0.728318	-2.953567	1.438163
H	0.205418	2.401533	2.280263
$end

$rem
JOBTYPE		SP
EXCHANGE	HF
CORRELATION	pRIMP2
BASIS		cc-pvtz
METHOD		rimp2
AUX_BASIS	rimp2-cc-pvtz
SOLVENT_METHOD	PCM
PURECART	11111
SYMMETRY	false
MEM_TOTAL	110000
SCF_CONVERGENCE = 6
THRESH=10
GUI = 2
$end

$solvent
dielectric 4.90
$end
--------------------------------------------------------------

             Standard Nuclear Orientation (Angstroms)
    I     Atom           X                Y                Z
 ----------------------------------------------------------------
    1      C      -0.0893820000    -0.9872670000     0.9737630000
    2      S      -0.0100820000    -0.0859670000     2.4812630000
    3      C       0.1262180000     1.4806330000     1.6926630000
    4      C      -0.0097820000    -0.0863670000    -0.0941370000
    5      C       0.1090180000     1.2987330000     0.2873630000
    6      S      -0.0281820000    -0.3292670000    -1.8317370000
    7      C       0.1189180000     1.4162330000    -2.0807370000
    8      C       0.1782180000     2.1221330000    -0.8888370000
    9      F       0.2899180000     3.4540330000    -0.8453370000
   10      C       0.1599180000     1.8624330000    -3.4823370000
   11      O       0.1007180000     1.0948330000    -4.4327370000
   12      O       0.2701180000     3.2084330000    -3.5954370000
   13      C       0.3185180000     3.7012330000    -4.9424370000
   14      H       0.4075180000     4.7986330000    -4.8593370000
   15      H      -0.6019820000     3.4270330000    -5.4964370000
   16      H       1.1890180000     3.2808330000    -5.4855370000
   17      C      -0.0893820000    -2.4224670000     0.9737630000
   18      H      -0.6228820000    -2.4304670000     1.9127630000
   19      H      -0.8175820000    -3.1003670000     0.5536630000
   20      H       0.7283180000    -2.9535670000     1.4381630000
   21      H       0.2054180000     2.4015330000     2.2802630000
 ----------------------------------------------------------------

   11   -1389.2703215660      4.92e-07  Convergence criterion met
 Total energy in the final basis set =    -1389.2703215660
        RIMP2         total energy =     -1391.7749579855 a.u.

                    Orbital Energies (a.u.)
 --------------------------------------------------------------

 Alpha MOs
 -- Occupied --
-92.0078 -91.9912 -26.3401 -20.6133 -20.5594 -11.4072 -11.3780 -11.2987
-11.2945 -11.2941 -11.2879 -11.2837 -11.2784 -11.2263  -9.0067  -8.9914
 -6.6875  -6.6869  -6.6864  -6.6724  -6.6717  -6.6706  -1.6574  -1.4657
 -1.3683  -1.2118  -1.1367  -1.0649  -1.0194  -0.9953  -0.9584  -0.9127
 -0.8635  -0.8061  -0.7881  -0.7579  -0.7311  -0.7223  -0.6913  -0.6830
 -0.6725  -0.6604  -0.6096  -0.5994  -0.5915  -0.5778  -0.5654  -0.5562
 -0.5387  -0.5298  -0.5083  -0.4840  -0.4730  -0.4709  -0.4689  -0.4600
 -0.3894  -0.3454  -0.2883

          Ground-State Mulliken Net Atomic Charges

     Atom                 Charge (a.u.)
  ----------------------------------------
      1 C                     0.023596
      2 S                     0.075500
      3 C                    -0.208795
      4 C                     0.001213
      5 C                    -0.097984
      6 S                    -0.007742
      7 C                    -0.158411
      8 C                     0.391370
      9 F                    -0.209003
     10 C                     0.445171
     11 O                    -0.462258
     12 O                    -0.300745
     13 C                    -0.058711
     14 H                     0.121044
     15 H                     0.094754
     16 H                     0.094687
     17 C                    -0.374881
     18 H                     0.117974
     19 H                     0.162732
     20 H                     0.136142
     21 H                     0.214346
  ----------------------------------------
  Sum of atomic charges =     0.000000

                    Cartesian Multipole Moments
 -----------------------------------------------------------------
    Charge (ESU x 10^10)
                -0.0000
    Dipole Moment (Debye)
         X      -0.1458      Y       0.5312      Z       3.8019
       Tot       3.8416
    Quadrupole Moments (Debye-Ang)
        XX     -96.2821     XY       2.0155     YY     -81.1769
        XZ      -0.7426     YZ     -11.3811     ZZ     -95.5423

 Total job time:  55.15s(wall), 1974.30s(cpu)
        *  Thank you very much for using Q-Chem.  Have a nice day.  *
