 Q-Chem 5.4, Q-Chem, Inc., Pleasanton, CA (2021)
 Q-Chem 5.4.0 for Intel X86 EM64T Linux

User input:
--------------------------------------------------------------
$molecule
0 1
C	-0.898767	-0.471137	0.975680
S	-0.114967	-0.019137	2.483180
C	1.246533	0.767763	1.694580
C	-0.115067	-0.019537	-0.092220
C	1.087633	0.677463	0.289280
S	-0.324667	-0.143837	-1.829820
C	1.189633	0.736763	-2.078820
C	1.801733	1.093063	-0.886920
F	2.956933	1.765563	-0.843420
C	1.578533	0.959163	-3.480420
O	0.915833	0.567363	-4.430820
O	2.744433	1.640863	-3.593520
C	3.175733	1.883963	-4.940520
H	4.125833	2.440463	-4.857420
H	2.423233	2.480763	-5.494520
H	3.330733	0.929763	-5.483620
C	-0.898767	-1.906337	0.975680
H	-1.978667	-1.914337	0.983080
H	-0.899067	-2.584237	0.134980
H	-0.892067	-2.437437	1.916080
H	2.046233	1.231163	2.282180
$end

$rem
JOBTYPE		SP
EXCHANGE	HF
CORRELATION	pRIMP2
BASIS		cc-pvtz
METHOD		rimp2
AUX_BASIS	rimp2-cc-pvtz
SOLVENT_METHOD	PCM
PURECART	11111
SYMMETRY	false
MEM_TOTAL	110000
SCF_CONVERGENCE = 6
THRESH=10
GUI = 2
$end

$solvent
dielectric 4.90
$end
--------------------------------------------------------------

             Standard Nuclear Orientation (Angstroms)
    I     Atom           X                Y                Z
 ----------------------------------------------------------------
    1      C      -0.8987670000    -0.4711370000     0.9756800000
    2      S      -0.1149670000    -0.0191370000     2.4831800000
    3      C       1.2465330000     0.7677630000     1.6945800000
    4      C      -0.1150670000    -0.0195370000    -0.0922200000
    5      C       1.0876330000     0.6774630000     0.2892800000
    6      S      -0.3246670000    -0.1438370000    -1.8298200000
    7      C       1.1896330000     0.7367630000    -2.0788200000
    8      C       1.8017330000     1.0930630000    -0.8869200000
    9      F       2.9569330000     1.7655630000    -0.8434200000
   10      C       1.5785330000     0.9591630000    -3.4804200000
   11      O       0.9158330000     0.5673630000    -4.4308200000
   12      O       2.7444330000     1.6408630000    -3.5935200000
   13      C       3.1757330000     1.8839630000    -4.9405200000
   14      H       4.1258330000     2.4404630000    -4.8574200000
   15      H       2.4232330000     2.4807630000    -5.4945200000
   16      H       3.3307330000     0.9297630000    -5.4836200000
   17      C      -0.8987670000    -1.9063370000     0.9756800000
   18      H      -1.9786670000    -1.9143370000     0.9830800000
   19      H      -0.8990670000    -2.5842370000     0.1349800000
   20      H      -0.8920670000    -2.4374370000     1.9160800000
   21      H       2.0462330000     1.2311630000     2.2821800000
 ----------------------------------------------------------------

   11   -1389.1875224724      6.23e-07  Convergence criterion met
 Total energy in the final basis set =    -1389.1875224724
        RIMP2         total energy =     -1391.7054753416 a.u.

                    Orbital Energies (a.u.)
 --------------------------------------------------------------

 Alpha MOs
 -- Occupied --
-92.0030 -92.0005 -26.3434 -20.6140 -20.5599 -11.4083 -11.3832 -11.3232
-11.3060 -11.2942 -11.2886 -11.2805 -11.2550 -11.2102  -9.0027  -9.0005
 -6.6837  -6.6830  -6.6820  -6.6812  -6.6801  -6.6800  -1.6605  -1.4665
 -1.3691  -1.2211  -1.1417  -1.0679  -1.0221  -0.9907  -0.9603  -0.9073
 -0.8663  -0.8102  -0.7910  -0.7602  -0.7325  -0.7252  -0.6965  -0.6839
 -0.6734  -0.6610  -0.6140  -0.5959  -0.5921  -0.5697  -0.5642  -0.5599
 -0.5324  -0.5263  -0.5045  -0.4964  -0.4768  -0.4725  -0.4714  -0.4426
 -0.3706  -0.3428  -0.2860

          Ground-State Mulliken Net Atomic Charges

     Atom                 Charge (a.u.)
  ----------------------------------------
      1 C                    -0.143937
      2 S                     0.094752
      3 C                    -0.141123
      4 C                     0.087072
      5 C                    -0.120602
      6 S                     0.039565
      7 C                    -0.160846
      8 C                     0.394462
      9 F                    -0.206385
     10 C                     0.448479
     11 O                    -0.464560
     12 O                    -0.301570
     13 C                    -0.058278
     14 H                     0.121146
     15 H                     0.094929
     16 H                     0.094690
     17 C                    -0.407109
     18 H                     0.134528
     19 H                     0.148842
     20 H                     0.130572
     21 H                     0.215372
  ----------------------------------------
  Sum of atomic charges =     0.000000

                    Cartesian Multipole Moments
 -----------------------------------------------------------------
    Charge (ESU x 10^10)
                -0.0000
    Dipole Moment (Debye)
         X       2.5942      Y       0.4651      Z       2.7977
       Tot       3.8436
    Quadrupole Moments (Debye-Ang)
        XX     -89.2413     XY       6.2833     YY     -91.6110
        XZ      -5.8465     YZ      -4.5189     ZZ     -95.1512

 Total job time:  55.23s(wall), 1971.86s(cpu)
        *  Thank you very much for using Q-Chem.  Have a nice day.  *
