 Q-Chem 5.4, Q-Chem, Inc., Pleasanton, CA (2021)
 Q-Chem 5.4.0 for Intel X86 EM64T Linux

User input:
--------------------------------------------------------------
$molecule
0 1
C	0.002699	-0.991205	0.976092
S	0.003199	-0.086405	2.483592
C	0.002399	1.486095	1.694992
C	0.003499	-0.086805	-0.091808
C	0.001099	1.303395	0.289692
S	0.006299	-0.330305	-1.829408
C	0.000799	1.421295	-2.078408
C	-0.001701	2.129695	-0.886508
F	-0.006501	3.466295	-0.843008
C	0.002699	1.869395	-3.480008
O	0.010599	1.099495	-4.430408
O	-0.004801	3.219895	-3.593108
C	0.000399	3.714995	-4.940108
H	-0.006601	4.815995	-4.857008
H	-0.892701	3.361695	-5.494108
H	0.904199	3.372095	-5.483208
C	0.002699	-2.426405	0.976092
H	-1.062101	-2.434405	0.795892
H	0.148399	-3.104305	0.148092
H	-0.154001	-2.957505	1.903292
H	0.000999	2.410395	2.282592
$end

$rem
JOBTYPE		SP
EXCHANGE	HF
CORRELATION	pRIMP2
BASIS		cc-pvtz
METHOD		rimp2
AUX_BASIS	rimp2-cc-pvtz
SOLVENT_METHOD	PCM
PURECART	11111
SYMMETRY	false
MEM_TOTAL	110000
SCF_CONVERGENCE = 6
THRESH=10
GUI = 2
$end

$solvent
dielectric 4.90
$end
--------------------------------------------------------------

             Standard Nuclear Orientation (Angstroms)
    I     Atom           X                Y                Z
 ----------------------------------------------------------------
    1      C       0.0026990000    -0.9912050000     0.9760920000
    2      S       0.0031990000    -0.0864050000     2.4835920000
    3      C       0.0023990000     1.4860950000     1.6949920000
    4      C       0.0034990000    -0.0868050000    -0.0918080000
    5      C       0.0010990000     1.3033950000     0.2896920000
    6      S       0.0062990000    -0.3303050000    -1.8294080000
    7      C       0.0007990000     1.4212950000    -2.0784080000
    8      C      -0.0017010000     2.1296950000    -0.8865080000
    9      F      -0.0065010000     3.4662950000    -0.8430080000
   10      C       0.0026990000     1.8693950000    -3.4800080000
   11      O       0.0105990000     1.0994950000    -4.4304080000
   12      O      -0.0048010000     3.2198950000    -3.5931080000
   13      C       0.0003990000     3.7149950000    -4.9401080000
   14      H      -0.0066010000     4.8159950000    -4.8570080000
   15      H      -0.8927010000     3.3616950000    -5.4941080000
   16      H       0.9041990000     3.3720950000    -5.4832080000
   17      C       0.0026990000    -2.4264050000     0.9760920000
   18      H      -1.0621010000    -2.4344050000     0.7958920000
   19      H       0.1483990000    -3.1043050000     0.1480920000
   20      H      -0.1540010000    -2.9575050000     1.9032920000
   21      H       0.0009990000     2.4103950000     2.2825920000
 ----------------------------------------------------------------

   11   -1389.2733318823      5.25e-07  Convergence criterion met
 Total energy in the final basis set =    -1389.2733318823
        RIMP2         total energy =     -1391.7770329587 a.u.

                    Orbital Energies (a.u.)
 --------------------------------------------------------------

 Alpha MOs
 -- Occupied --
-92.0067 -91.9900 -26.3396 -20.6134 -20.5595 -11.4073 -11.3772 -11.3039
-11.2943 -11.2902 -11.2880 -11.2789 -11.2779 -11.2318  -9.0054  -8.9902
 -6.6862  -6.6857  -6.6851  -6.6713  -6.6706  -6.6694  -1.6569  -1.4657
 -1.3683  -1.2109  -1.1361  -1.0669  -1.0178  -0.9959  -0.9576  -0.9132
 -0.8626  -0.8039  -0.7877  -0.7582  -0.7302  -0.7218  -0.6925  -0.6831
 -0.6725  -0.6599  -0.6131  -0.5942  -0.5885  -0.5826  -0.5605  -0.5601
 -0.5332  -0.5280  -0.5144  -0.4999  -0.4723  -0.4715  -0.4702  -0.4606
 -0.3836  -0.3449  -0.2803

          Ground-State Mulliken Net Atomic Charges

     Atom                 Charge (a.u.)
  ----------------------------------------
      1 C                     0.051576
      2 S                     0.081343
      3 C                    -0.233139
      4 C                    -0.032369
      5 C                    -0.089714
      6 S                    -0.018431
      7 C                    -0.156680
      8 C                     0.388202
      9 F                    -0.209232
     10 C                     0.445366
     11 O                    -0.462127
     12 O                    -0.300587
     13 C                    -0.058707
     14 H                     0.121136
     15 H                     0.094678
     16 H                     0.094722
     17 C                    -0.391148
     18 H                     0.147770
     19 H                     0.169214
     20 H                     0.145805
     21 H                     0.212320
  ----------------------------------------
  Sum of atomic charges =     0.000000

                    Cartesian Multipole Moments
 -----------------------------------------------------------------
    Charge (ESU x 10^10)
                -0.0000
    Dipole Moment (Debye)
         X      -0.7399      Y      -0.1044      Z       3.2140
       Tot       3.2997
    Quadrupole Moments (Debye-Ang)
        XX     -97.0146     XY       1.8927     YY     -80.2813
        XZ      -0.7747     YZ     -10.5708     ZZ     -96.6569

 Total job time:  60.05s(wall), 2205.40s(cpu)
        *  Thank you very much for using Q-Chem.  Have a nice day.  *
