 Q-Chem 5.4, Q-Chem, Inc., Pleasanton, CA (2021)
 Q-Chem 5.4.0 for Intel X86 EM64T Linux

User input:
--------------------------------------------------------------
$molecule
0 1
C	0.002472	-0.991205	0.974891
S	0.002972	-0.086405	2.482391
C	0.002172	1.486095	1.693791
C	0.003272	-0.086805	-0.093009
C	0.000872	1.303395	0.288491
S	0.006072	-0.330305	-1.830609
C	0.000572	1.421295	-2.079609
C	-0.001928	2.129695	-0.887709
F	-0.006728	3.466295	-0.844209
C	0.002472	1.869395	-3.481209
O	0.010372	1.099495	-4.431609
O	-0.005028	3.219895	-3.594309
C	0.000172	3.714995	-4.941309
H	-0.006828	4.815995	-4.858209
H	-0.892928	3.361695	-5.495309
H	0.903972	3.372095	-5.484409
C	0.002472	-2.426405	0.974891
H	-1.009828	-2.434405	1.351291
H	-0.285328	-3.104305	0.184991
H	0.330372	-2.957505	1.856291
H	0.000772	2.410395	2.281391
$end

$rem
JOBTYPE		SP
EXCHANGE	HF
CORRELATION	pRIMP2
BASIS		cc-pvtz
METHOD		rimp2
AUX_BASIS	rimp2-cc-pvtz
SOLVENT_METHOD	PCM
PURECART	11111
SYMMETRY	false
MEM_TOTAL	110000
SCF_CONVERGENCE = 6
THRESH=10
GUI = 2
$end

$solvent
dielectric 4.90
$end
--------------------------------------------------------------

             Standard Nuclear Orientation (Angstroms)
    I     Atom           X                Y                Z
 ----------------------------------------------------------------
    1      C       0.0024720000    -0.9912050000     0.9748910000
    2      S       0.0029720000    -0.0864050000     2.4823910000
    3      C       0.0021720000     1.4860950000     1.6937910000
    4      C       0.0032720000    -0.0868050000    -0.0930090000
    5      C       0.0008720000     1.3033950000     0.2884910000
    6      S       0.0060720000    -0.3303050000    -1.8306090000
    7      C       0.0005720000     1.4212950000    -2.0796090000
    8      C      -0.0019280000     2.1296950000    -0.8877090000
    9      F      -0.0067280000     3.4662950000    -0.8442090000
   10      C       0.0024720000     1.8693950000    -3.4812090000
   11      O       0.0103720000     1.0994950000    -4.4316090000
   12      O      -0.0050280000     3.2198950000    -3.5943090000
   13      C       0.0001720000     3.7149950000    -4.9413090000
   14      H      -0.0068280000     4.8159950000    -4.8582090000
   15      H      -0.8929280000     3.3616950000    -5.4953090000
   16      H       0.9039720000     3.3720950000    -5.4844090000
   17      C       0.0024720000    -2.4264050000     0.9748910000
   18      H      -1.0098280000    -2.4344050000     1.3512910000
   19      H      -0.2853280000    -3.1043050000     0.1849910000
   20      H       0.3303720000    -2.9575050000     1.8562910000
   21      H       0.0007720000     2.4103950000     2.2813910000
 ----------------------------------------------------------------

   11   -1389.2726487501      5.33e-07  Convergence criterion met
 Total energy in the final basis set =    -1389.2726487501
        RIMP2         total energy =     -1391.7758225206 a.u.

                    Orbital Energies (a.u.)
 --------------------------------------------------------------

 Alpha MOs
 -- Occupied --
-92.0063 -91.9893 -26.3395 -20.6133 -20.5594 -11.4071 -11.3770 -11.3025
-11.2941 -11.2924 -11.2879 -11.2793 -11.2778 -11.2309  -9.0052  -8.9895
 -6.6861  -6.6855  -6.6849  -6.6706  -6.6699  -6.6687  -1.6568  -1.4656
 -1.3682  -1.2108  -1.1364  -1.0662  -1.0181  -0.9957  -0.9577  -0.9130
 -0.8626  -0.8044  -0.7876  -0.7579  -0.7306  -0.7217  -0.6918  -0.6830
 -0.6724  -0.6599  -0.6127  -0.5949  -0.5906  -0.5797  -0.5627  -0.5567
 -0.5332  -0.5282  -0.5163  -0.4977  -0.4722  -0.4714  -0.4703  -0.4596
 -0.3847  -0.3455  -0.2806

          Ground-State Mulliken Net Atomic Charges

     Atom                 Charge (a.u.)
  ----------------------------------------
      1 C                     0.046064
      2 S                     0.074057
      3 C                    -0.225631
      4 C                    -0.023434
      5 C                    -0.095842
      6 S                    -0.016179
      7 C                    -0.157265
      8 C                     0.391046
      9 F                    -0.209445
     10 C                     0.445256
     11 O                    -0.462008
     12 O                    -0.300598
     13 C                    -0.058731
     14 H                     0.121078
     15 H                     0.094672
     16 H                     0.094710
     17 C                    -0.389201
     18 H                     0.143193
     19 H                     0.169654
     20 H                     0.145138
     21 H                     0.213467
  ----------------------------------------
  Sum of atomic charges =     0.000000

                    Cartesian Multipole Moments
 -----------------------------------------------------------------
    Charge (ESU x 10^10)
                -0.0000
    Dipole Moment (Debye)
         X      -0.7006      Y      -0.0119      Z       3.5704
       Tot       3.6385
    Quadrupole Moments (Debye-Ang)
        XX     -96.9357     XY       1.8450     YY     -80.3263
        XZ      -0.3874     YZ     -11.3038     ZZ     -96.0402

 Total job time:  54.18s(wall), 1928.49s(cpu)
        *  Thank you very much for using Q-Chem.  Have a nice day.  *
