 Q-Chem 5.4, Q-Chem, Inc., Pleasanton, CA (2021)
 Q-Chem 5.4.0 for Intel X86 EM64T Linux

User input:
--------------------------------------------------------------
$molecule
0 1
C	-0.441793	-0.893839	0.976554
S	-0.058993	-0.074039	2.484054
C	0.604907	1.351461	1.695454
C	-0.058893	-0.074439	-0.091346
C	0.526507	1.186461	0.290154
S	-0.159193	-0.296439	-1.828946
C	0.576007	1.293461	-2.077946
C	0.873207	1.936461	-0.886046
F	1.433707	3.149961	-0.842546
C	0.767107	1.698761	-3.479546
O	0.449007	0.997661	-4.429946
O	1.331107	2.925861	-3.592646
C	1.545107	3.372361	-4.939646
H	2.004007	4.373161	-4.856546
H	0.586307	3.429561	-5.493646
H	2.219307	2.679661	-5.482746
C	-0.441793	-2.329039	0.976554
H	0.620407	-2.337039	0.781654
H	-0.295493	-3.006939	1.804454
H	-0.611593	-2.860139	0.051654
H	0.994207	2.189761	2.283054
$end

$rem
JOBTYPE		SP
EXCHANGE	HF
CORRELATION	pRIMP2
BASIS		cc-pvtz
METHOD		rimp2
AUX_BASIS	rimp2-cc-pvtz
SOLVENT_METHOD	PCM
PURECART	11111
SYMMETRY	false
MEM_TOTAL	110000
SCF_CONVERGENCE = 6
THRESH=10
GUI = 2
$end

$solvent
dielectric 4.90
$end
--------------------------------------------------------------

             Standard Nuclear Orientation (Angstroms)
    I     Atom           X                Y                Z
 ----------------------------------------------------------------
    1      C      -0.4417930000    -0.8938390000     0.9765540000
    2      S      -0.0589930000    -0.0740390000     2.4840540000
    3      C       0.6049070000     1.3514610000     1.6954540000
    4      C      -0.0588930000    -0.0744390000    -0.0913460000
    5      C       0.5265070000     1.1864610000     0.2901540000
    6      S      -0.1591930000    -0.2964390000    -1.8289460000
    7      C       0.5760070000     1.2934610000    -2.0779460000
    8      C       0.8732070000     1.9364610000    -0.8860460000
    9      F       1.4337070000     3.1499610000    -0.8425460000
   10      C       0.7671070000     1.6987610000    -3.4795460000
   11      O       0.4490070000     0.9976610000    -4.4299460000
   12      O       1.3311070000     2.9258610000    -3.5926460000
   13      C       1.5451070000     3.3723610000    -4.9396460000
   14      H       2.0040070000     4.3731610000    -4.8565460000
   15      H       0.5863070000     3.4295610000    -5.4936460000
   16      H       2.2193070000     2.6796610000    -5.4827460000
   17      C      -0.4417930000    -2.3290390000     0.9765540000
   18      H       0.6204070000    -2.3370390000     0.7816540000
   19      H      -0.2954930000    -3.0069390000     1.8044540000
   20      H      -0.6115930000    -2.8601390000     0.0516540000
   21      H       0.9942070000     2.1897610000     2.2830540000
 ----------------------------------------------------------------

   11   -1389.2626830619      5.22e-07  Convergence criterion met
 Total energy in the final basis set =    -1389.2626830619
        RIMP2         total energy =     -1391.7694059835 a.u.

                    Orbital Energies (a.u.)
 --------------------------------------------------------------

 Alpha MOs
 -- Occupied --
-92.0055 -91.9919 -26.3402 -20.6136 -20.5597 -11.4076 -11.3781 -11.3008
-11.2947 -11.2936 -11.2881 -11.2812 -11.2791 -11.2309  -9.0044  -8.9920
 -6.6853  -6.6847  -6.6842  -6.6731  -6.6723  -6.6712  -1.6575  -1.4659
 -1.3685  -1.2130  -1.1379  -1.0677  -1.0184  -0.9943  -0.9581  -0.9115
 -0.8632  -0.8046  -0.7884  -0.7587  -0.7307  -0.7224  -0.6928  -0.6833
 -0.6727  -0.6601  -0.6119  -0.5956  -0.5937  -0.5812  -0.5617  -0.5604
 -0.5309  -0.5251  -0.5144  -0.5009  -0.4723  -0.4716  -0.4702  -0.4603
 -0.3832  -0.3451  -0.2808

          Ground-State Mulliken Net Atomic Charges

     Atom                 Charge (a.u.)
  ----------------------------------------
      1 C                     0.039856
      2 S                     0.082037
      3 C                    -0.230035
      4 C                    -0.047013
      5 C                    -0.079583
      6 S                    -0.010387
      7 C                    -0.153836
      8 C                     0.387972
      9 F                    -0.208584
     10 C                     0.447112
     11 O                    -0.461837
     12 O                    -0.300849
     13 C                    -0.058512
     14 H                     0.121140
     15 H                     0.094851
     16 H                     0.094630
     17 C                    -0.386643
     18 H                     0.148899
     19 H                     0.165063
     20 H                     0.143799
     21 H                     0.211919
  ----------------------------------------
  Sum of atomic charges =     0.000000

                    Cartesian Multipole Moments
 -----------------------------------------------------------------
    Charge (ESU x 10^10)
                -0.0000
    Dipole Moment (Debye)
         X       1.4988      Y      -0.0502      Z       3.1069
       Tot       3.4499
    Quadrupole Moments (Debye-Ang)
        XX     -95.7941     XY       2.8642     YY     -82.7874
        XZ      -2.8828     YZ      -9.6486     ZZ     -96.5605

 Total job time:  62.38s(wall), 2084.82s(cpu)
        *  Thank you very much for using Q-Chem.  Have a nice day.  *
