 Q-Chem 5.4, Q-Chem, Inc., Pleasanton, CA (2021)
 Q-Chem 5.4.0 for Intel X86 EM64T Linux

User input:
--------------------------------------------------------------
$molecule
0 1
C	-0.088705	-0.987267	0.974225
S	-0.009405	-0.085967	2.481725
C	0.126895	1.480633	1.693125
C	-0.009105	-0.086367	-0.093675
C	0.109695	1.298733	0.287825
S	-0.027505	-0.329267	-1.831275
C	0.119595	1.416233	-2.080275
C	0.178895	2.122133	-0.888375
F	0.290595	3.454033	-0.844875
C	0.160595	1.862433	-3.481875
O	0.101395	1.094833	-4.432275
O	0.270795	3.208433	-3.594975
C	0.319195	3.701233	-4.941975
H	0.408195	4.798633	-4.858875
H	-0.601305	3.427033	-5.495975
H	1.189695	3.280833	-5.485075
C	-0.088705	-2.422467	0.974225
H	-0.911205	-2.430467	1.674125
H	-0.629305	-3.100367	0.330325
H	0.520895	-2.953567	1.690325
H	0.206095	2.401533	2.280725
$end

$rem
JOBTYPE		SP
EXCHANGE	HF
CORRELATION	pRIMP2
BASIS		cc-pvtz
METHOD		rimp2
AUX_BASIS	rimp2-cc-pvtz
SOLVENT_METHOD	PCM
PURECART	11111
SYMMETRY	false
MEM_TOTAL	110000
SCF_CONVERGENCE = 6
THRESH=10
GUI = 2
$end

$solvent
dielectric 4.90
$end
--------------------------------------------------------------

             Standard Nuclear Orientation (Angstroms)
    I     Atom           X                Y                Z
 ----------------------------------------------------------------
    1      C      -0.0887050000    -0.9872670000     0.9742250000
    2      S      -0.0094050000    -0.0859670000     2.4817250000
    3      C       0.1268950000     1.4806330000     1.6931250000
    4      C      -0.0091050000    -0.0863670000    -0.0936750000
    5      C       0.1096950000     1.2987330000     0.2878250000
    6      S      -0.0275050000    -0.3292670000    -1.8312750000
    7      C       0.1195950000     1.4162330000    -2.0802750000
    8      C       0.1788950000     2.1221330000    -0.8883750000
    9      F       0.2905950000     3.4540330000    -0.8448750000
   10      C       0.1605950000     1.8624330000    -3.4818750000
   11      O       0.1013950000     1.0948330000    -4.4322750000
   12      O       0.2707950000     3.2084330000    -3.5949750000
   13      C       0.3191950000     3.7012330000    -4.9419750000
   14      H       0.4081950000     4.7986330000    -4.8588750000
   15      H      -0.6013050000     3.4270330000    -5.4959750000
   16      H       1.1896950000     3.2808330000    -5.4850750000
   17      C      -0.0887050000    -2.4224670000     0.9742250000
   18      H      -0.9112050000    -2.4304670000     1.6741250000
   19      H      -0.6293050000    -3.1003670000     0.3303250000
   20      H       0.5208950000    -2.9535670000     1.6903250000
   21      H       0.2060950000     2.4015330000     2.2807250000
 ----------------------------------------------------------------

   11   -1389.2709042405      5.12e-07  Convergence criterion met
 Total energy in the final basis set =    -1389.2709042405
        RIMP2         total energy =     -1391.7748271231 a.u.

                    Orbital Energies (a.u.)
 --------------------------------------------------------------

 Alpha MOs
 -- Occupied --
-92.0068 -91.9901 -26.3398 -20.6133 -20.5594 -11.4071 -11.3775 -11.2983
-11.2959 -11.2941 -11.2879 -11.2815 -11.2781 -11.2282  -9.0057  -8.9903
 -6.6866  -6.6860  -6.6855  -6.6714  -6.6707  -6.6695  -1.6571  -1.4656
 -1.3682  -1.2113  -1.1365  -1.0654  -1.0187  -0.9955  -0.9580  -0.9129
 -0.8630  -0.8052  -0.7878  -0.7578  -0.7308  -0.7220  -0.6914  -0.6830
 -0.6724  -0.6601  -0.6115  -0.5967  -0.5909  -0.5790  -0.5641  -0.5561
 -0.5358  -0.5294  -0.5108  -0.4918  -0.4725  -0.4706  -0.4705  -0.4595
 -0.3866  -0.3455  -0.2841

          Ground-State Mulliken Net Atomic Charges

     Atom                 Charge (a.u.)
  ----------------------------------------
      1 C                     0.026908
      2 S                     0.072338
      3 C                    -0.212547
      4 C                    -0.002253
      5 C                    -0.100452
      6 S                    -0.011970
      7 C                    -0.157693
      8 C                     0.390452
      9 F                    -0.209241
     10 C                     0.445356
     11 O                    -0.462101
     12 O                    -0.300674
     13 C                    -0.058734
     14 H                     0.121049
     15 H                     0.094720
     16 H                     0.094682
     17 C                    -0.382420
     18 H                     0.129700
     19 H                     0.166848
     20 H                     0.141995
     21 H                     0.214037
  ----------------------------------------
  Sum of atomic charges =     0.000000

                    Cartesian Multipole Moments
 -----------------------------------------------------------------
    Charge (ESU x 10^10)
                -0.0000
    Dipole Moment (Debye)
         X      -0.3696      Y       0.2715      Z       3.7217
       Tot       3.7499
    Quadrupole Moments (Debye-Ang)
        XX     -96.5150     XY       2.5271     YY     -80.8065
        XZ      -0.9093     YZ     -11.3785     ZZ     -95.7225

 Total job time:  54.23s(wall), 1949.32s(cpu)
        *  Thank you very much for using Q-Chem.  Have a nice day.  *
