 Q-Chem 5.4, Q-Chem, Inc., Pleasanton, CA (2021)
 Q-Chem 5.4.0 for Intel X86 EM64T Linux

User input:
--------------------------------------------------------------
$molecule
0 1
C	-0.899166	-0.471137	0.977246
S	-0.115366	-0.019137	2.484746
C	1.246134	0.767763	1.696146
C	-0.115466	-0.019537	-0.090654
C	1.087234	0.677463	0.290846
S	-0.325066	-0.143837	-1.828254
C	1.189234	0.736763	-2.077254
C	1.801334	1.093063	-0.885354
F	2.956534	1.765563	-0.841854
C	1.578134	0.959163	-3.478854
O	0.915434	0.567363	-4.429254
O	2.744034	1.640863	-3.591954
C	3.175334	1.883963	-4.938954
H	4.125434	2.440463	-4.855854
H	2.422834	2.480763	-5.492954
H	3.330334	0.929763	-5.482054
C	-0.899166	-1.906337	0.977246
H	-1.731266	-1.914337	0.288746
H	-0.358966	-2.584237	0.333046
H	-1.498466	-2.437437	1.701846
H	2.045834	1.231163	2.283746
$end

$rem
JOBTYPE		SP
EXCHANGE	HF
CORRELATION	pRIMP2
BASIS		cc-pvtz
METHOD		rimp2
AUX_BASIS	rimp2-cc-pvtz
SOLVENT_METHOD	PCM
PURECART	11111
SYMMETRY	false
MEM_TOTAL	110000
SCF_CONVERGENCE = 6
THRESH=10
GUI = 2
$end

$solvent
dielectric 4.90
$end
--------------------------------------------------------------

             Standard Nuclear Orientation (Angstroms)
    I     Atom           X                Y                Z
 ----------------------------------------------------------------
    1      C      -0.8991660000    -0.4711370000     0.9772460000
    2      S      -0.1153660000    -0.0191370000     2.4847460000
    3      C       1.2461340000     0.7677630000     1.6961460000
    4      C      -0.1154660000    -0.0195370000    -0.0906540000
    5      C       1.0872340000     0.6774630000     0.2908460000
    6      S      -0.3250660000    -0.1438370000    -1.8282540000
    7      C       1.1892340000     0.7367630000    -2.0772540000
    8      C       1.8013340000     1.0930630000    -0.8853540000
    9      F       2.9565340000     1.7655630000    -0.8418540000
   10      C       1.5781340000     0.9591630000    -3.4788540000
   11      O       0.9154340000     0.5673630000    -4.4292540000
   12      O       2.7440340000     1.6408630000    -3.5919540000
   13      C       3.1753340000     1.8839630000    -4.9389540000
   14      H       4.1254340000     2.4404630000    -4.8558540000
   15      H       2.4228340000     2.4807630000    -5.4929540000
   16      H       3.3303340000     0.9297630000    -5.4820540000
   17      C      -0.8991660000    -1.9063370000     0.9772460000
   18      H      -1.7312660000    -1.9143370000     0.2887460000
   19      H      -0.3589660000    -2.5842370000     0.3330460000
   20      H      -1.4984660000    -2.4374370000     1.7018460000
   21      H       2.0458340000     1.2311630000     2.2837460000
 ----------------------------------------------------------------

   11   -1389.1991890928      6.07e-07  Convergence criterion met
 Total energy in the final basis set =    -1389.1991890928
        RIMP2         total energy =     -1391.7158816458 a.u.

                    Orbital Energies (a.u.)
 --------------------------------------------------------------

 Alpha MOs
 -- Occupied --
-92.0051 -91.9982 -26.3442 -20.6145 -20.5604 -11.4089 -11.3841 -11.3248
-11.3097 -11.2951 -11.2889 -11.2820 -11.2549 -11.2135  -9.0048  -8.9984
 -6.6857  -6.6850  -6.6840  -6.6791  -6.6779  -6.6779  -1.6613  -1.4669
 -1.3696  -1.2227  -1.1418  -1.0701  -1.0221  -0.9912  -0.9604  -0.9081
 -0.8665  -0.8099  -0.7918  -0.7611  -0.7326  -0.7259  -0.6982  -0.6844
 -0.6738  -0.6623  -0.6131  -0.5998  -0.5934  -0.5744  -0.5621  -0.5582
 -0.5317  -0.5253  -0.5069  -0.4967  -0.4779  -0.4729  -0.4711  -0.4344
 -0.3753  -0.3446  -0.2939

          Ground-State Mulliken Net Atomic Charges

     Atom                 Charge (a.u.)
  ----------------------------------------
      1 C                    -0.137056
      2 S                     0.093919
      3 C                    -0.134067
      4 C                     0.078474
      5 C                    -0.121683
      6 S                     0.044300
      7 C                    -0.158461
      8 C                     0.394222
      9 F                    -0.205760
     10 C                     0.448465
     11 O                    -0.464266
     12 O                    -0.301540
     13 C                    -0.058250
     14 H                     0.121265
     15 H                     0.095031
     16 H                     0.094771
     17 C                    -0.398754
     18 H                     0.119868
     19 H                     0.141245
     20 H                     0.133944
     21 H                     0.214333
  ----------------------------------------
  Sum of atomic charges =     0.000000

                    Cartesian Multipole Moments
 -----------------------------------------------------------------
    Charge (ESU x 10^10)
                -0.0000
    Dipole Moment (Debye)
         X       2.7911      Y       0.5960      Z       2.3215
       Tot       3.6790
    Quadrupole Moments (Debye-Ang)
        XX     -89.0639     XY       6.0817     YY     -91.5938
        XZ      -5.7714     YZ      -3.7855     ZZ     -96.1925

 Total job time:  53.18s(wall), 1928.29s(cpu)
        *  Thank you very much for using Q-Chem.  Have a nice day.  *
