 Q-Chem 5.4, Q-Chem, Inc., Pleasanton, CA (2021)
 Q-Chem 5.4.0 for Intel X86 EM64T Linux

User input:
--------------------------------------------------------------
$molecule
0 1
C	-0.437165	-0.893839	0.976092
S	-0.054365	-0.074039	2.483592
C	0.609535	1.351461	1.694992
C	-0.054265	-0.074439	-0.091808
C	0.531135	1.186461	0.289692
S	-0.154565	-0.296439	-1.829408
C	0.580635	1.293461	-2.078408
C	0.877835	1.936461	-0.886508
F	1.438335	3.149961	-0.843008
C	0.771735	1.698761	-3.480008
O	0.453635	0.997661	-4.430408
O	1.335735	2.925861	-3.593108
C	1.549735	3.372361	-4.940108
H	2.008635	4.373161	-4.857008
H	0.590935	3.429561	-5.494108
H	2.223935	2.679661	-5.483208
C	-0.437165	-2.329039	0.976092
H	-1.501965	-2.337039	0.795892
H	-0.291465	-3.006939	0.148092
H	-0.593865	-2.860139	1.903292
H	0.998835	2.189761	2.282592
$end

$rem
JOBTYPE		SP
EXCHANGE	HF
CORRELATION	pRIMP2
BASIS		cc-pvtz
METHOD		rimp2
AUX_BASIS	rimp2-cc-pvtz
SOLVENT_METHOD	PCM
PURECART	11111
SYMMETRY	false
MEM_TOTAL	110000
SCF_CONVERGENCE = 6
THRESH=10
GUI = 2
$end

$solvent
dielectric 4.90
$end
--------------------------------------------------------------

             Standard Nuclear Orientation (Angstroms)
    I     Atom           X                Y                Z
 ----------------------------------------------------------------
    1      C      -0.4371650000    -0.8938390000     0.9760920000
    2      S      -0.0543650000    -0.0740390000     2.4835920000
    3      C       0.6095350000     1.3514610000     1.6949920000
    4      C      -0.0542650000    -0.0744390000    -0.0918080000
    5      C       0.5311350000     1.1864610000     0.2896920000
    6      S      -0.1545650000    -0.2964390000    -1.8294080000
    7      C       0.5806350000     1.2934610000    -2.0784080000
    8      C       0.8778350000     1.9364610000    -0.8865080000
    9      F       1.4383350000     3.1499610000    -0.8430080000
   10      C       0.7717350000     1.6987610000    -3.4800080000
   11      O       0.4536350000     0.9976610000    -4.4304080000
   12      O       1.3357350000     2.9258610000    -3.5931080000
   13      C       1.5497350000     3.3723610000    -4.9401080000
   14      H       2.0086350000     4.3731610000    -4.8570080000
   15      H       0.5909350000     3.4295610000    -5.4941080000
   16      H       2.2239350000     2.6796610000    -5.4832080000
   17      C      -0.4371650000    -2.3290390000     0.9760920000
   18      H      -1.5019650000    -2.3370390000     0.7958920000
   19      H      -0.2914650000    -3.0069390000     0.1480920000
   20      H      -0.5938650000    -2.8601390000     1.9032920000
   21      H       0.9988350000     2.1897610000     2.2825920000
 ----------------------------------------------------------------

   11   -1389.2565545799      4.92e-07  Convergence criterion met
 Total energy in the final basis set =    -1389.2565545799
        RIMP2         total energy =     -1391.7645101232 a.u.

                    Orbital Energies (a.u.)
 --------------------------------------------------------------

 Alpha MOs
 -- Occupied --
-92.0048 -91.9923 -26.3402 -20.6134 -20.5594 -11.4074 -11.3782 -11.2962
-11.2950 -11.2942 -11.2880 -11.2838 -11.2785 -11.2262  -9.0038  -8.9924
 -6.6846  -6.6839  -6.6834  -6.6734  -6.6727  -6.6716  -1.6575  -1.4658
 -1.3684  -1.2121  -1.1363  -1.0660  -1.0184  -0.9948  -0.9579  -0.9129
 -0.8631  -0.8049  -0.7882  -0.7584  -0.7299  -0.7223  -0.6927  -0.6831
 -0.6726  -0.6599  -0.6124  -0.5944  -0.5885  -0.5802  -0.5612  -0.5596
 -0.5334  -0.5277  -0.5097  -0.5002  -0.4733  -0.4713  -0.4707  -0.4564
 -0.3816  -0.3446  -0.2813

          Ground-State Mulliken Net Atomic Charges

     Atom                 Charge (a.u.)
  ----------------------------------------
      1 C                     0.019675
      2 S                     0.086375
      3 C                    -0.221537
      4 C                    -0.035717
      5 C                    -0.084099
      6 S                    -0.006038
      7 C                    -0.157227
      8 C                     0.392017
      9 F                    -0.208507
     10 C                     0.446439
     11 O                    -0.462445
     12 O                    -0.300909
     13 C                    -0.058515
     14 H                     0.121097
     15 H                     0.094717
     16 H                     0.094681
     17 C                    -0.384628
     18 H                     0.142139
     19 H                     0.165859
     20 H                     0.144670
     21 H                     0.211953
  ----------------------------------------
  Sum of atomic charges =     0.000000

                    Cartesian Multipole Moments
 -----------------------------------------------------------------
    Charge (ESU x 10^10)
                -0.0000
    Dipole Moment (Debye)
         X       0.1697      Y       0.1554      Z       3.1194
       Tot       3.1279
    Quadrupole Moments (Debye-Ang)
        XX     -94.5739     XY       6.2348     YY     -83.0871
        XZ      -4.3696     YZ      -9.1864     ZZ     -96.4950

 Total job time:  58.02s(wall), 2018.17s(cpu)
        *  Thank you very much for using Q-Chem.  Have a nice day.  *
