 Q-Chem 5.4, Q-Chem, Inc., Pleasanton, CA (2021)
 Q-Chem 5.4.0 for Intel X86 EM64T Linux

User input:
--------------------------------------------------------------
$molecule
0 1
C	-0.000295	-0.991205	0.973641
S	0.000205	-0.086405	2.481141
C	-0.000595	1.486095	1.692541
C	0.000505	-0.086805	-0.094259
C	-0.001895	1.303395	0.287241
S	0.003305	-0.330305	-1.831859
C	-0.002195	1.421295	-2.080859
C	-0.004695	2.129695	-0.888959
F	-0.009495	3.466295	-0.845459
C	-0.000295	1.869395	-3.482459
O	0.007605	1.099495	-4.432859
O	-0.007795	3.219895	-3.595559
C	-0.002595	3.714995	-4.942559
H	-0.009595	4.815995	-4.859459
H	-0.895695	3.361695	-5.496559
H	0.901205	3.372095	-5.485659
C	-0.000295	-2.426405	0.973641
H	0.194605	-2.434405	2.035841
H	-0.828195	-3.104305	1.119941
H	0.924605	-2.957505	0.803841
H	-0.001995	2.410395	2.280141
$end

$rem
JOBTYPE		SP
EXCHANGE	HF
CORRELATION	pRIMP2
BASIS		cc-pvtz
METHOD		rimp2
AUX_BASIS	rimp2-cc-pvtz
SOLVENT_METHOD	PCM
PURECART	11111
SYMMETRY	false
MEM_TOTAL	110000
SCF_CONVERGENCE = 6
THRESH=10
GUI = 2
$end

$solvent
dielectric 4.90
$end
--------------------------------------------------------------

             Standard Nuclear Orientation (Angstroms)
    I     Atom           X                Y                Z
 ----------------------------------------------------------------
    1      C      -0.0002950000    -0.9912050000     0.9736410000
    2      S       0.0002050000    -0.0864050000     2.4811410000
    3      C      -0.0005950000     1.4860950000     1.6925410000
    4      C       0.0005050000    -0.0868050000    -0.0942590000
    5      C      -0.0018950000     1.3033950000     0.2872410000
    6      S       0.0033050000    -0.3303050000    -1.8318590000
    7      C      -0.0021950000     1.4212950000    -2.0808590000
    8      C      -0.0046950000     2.1296950000    -0.8889590000
    9      F      -0.0094950000     3.4662950000    -0.8454590000
   10      C      -0.0002950000     1.8693950000    -3.4824590000
   11      O       0.0076050000     1.0994950000    -4.4328590000
   12      O      -0.0077950000     3.2198950000    -3.5955590000
   13      C      -0.0025950000     3.7149950000    -4.9425590000
   14      H      -0.0095950000     4.8159950000    -4.8594590000
   15      H      -0.8956950000     3.3616950000    -5.4965590000
   16      H       0.9012050000     3.3720950000    -5.4856590000
   17      C      -0.0002950000    -2.4264050000     0.9736410000
   18      H       0.1946050000    -2.4344050000     2.0358410000
   19      H      -0.8281950000    -3.1043050000     1.1199410000
   20      H       0.9246050000    -2.9575050000     0.8038410000
   21      H      -0.0019950000     2.4103950000     2.2801410000
 ----------------------------------------------------------------

   11   -1389.2702927300      4.80e-07  Convergence criterion met
 Total energy in the final basis set =    -1389.2702927300
        RIMP2         total energy =     -1391.7754152750 a.u.

                    Orbital Energies (a.u.)
 --------------------------------------------------------------

 Alpha MOs
 -- Occupied --
-92.0084 -91.9919 -26.3403 -20.6134 -20.5594 -11.4073 -11.3783 -11.2999
-11.2941 -11.2923 -11.2880 -11.2852 -11.2786 -11.2255  -9.0072  -8.9921
 -6.6880  -6.6874  -6.6869  -6.6731  -6.6724  -6.6713  -1.6576  -1.4657
 -1.3683  -1.2121  -1.1368  -1.0647  -1.0198  -0.9952  -0.9587  -0.9125
 -0.8638  -0.8066  -0.7883  -0.7579  -0.7313  -0.7225  -0.6912  -0.6831
 -0.6725  -0.6606  -0.6064  -0.6031  -0.5919  -0.5774  -0.5660  -0.5568
 -0.5396  -0.5298  -0.5075  -0.4799  -0.4733  -0.4711  -0.4659  -0.4605
 -0.3918  -0.3451  -0.2913

          Ground-State Mulliken Net Atomic Charges

     Atom                 Charge (a.u.)
  ----------------------------------------
      1 C                     0.033750
      2 S                     0.076256
      3 C                    -0.210315
      4 C                    -0.000776
      5 C                    -0.095693
      6 S                    -0.004826
      7 C                    -0.158320
      8 C                     0.392050
      9 F                    -0.208826
     10 C                     0.445022
     11 O                    -0.462453
     12 O                    -0.300781
     13 C                    -0.058689
     14 H                     0.121044
     15 H                     0.094771
     16 H                     0.094689
     17 C                    -0.371199
     18 H                     0.111642
     19 H                     0.147593
     20 H                     0.140370
     21 H                     0.214690
  ----------------------------------------
  Sum of atomic charges =     0.000000

                    Cartesian Multipole Moments
 -----------------------------------------------------------------
    Charge (ESU x 10^10)
                -0.0000
    Dipole Moment (Debye)
         X       0.1239      Y       0.6788      Z       3.8307
       Tot       3.8924
    Quadrupole Moments (Debye-Ang)
        XX     -96.2490     XY      -0.2303     YY     -81.3247
        XZ       0.0600     YZ     -11.4550     ZZ     -95.4772

 Total job time:  55.19s(wall), 1947.27s(cpu)
        *  Thank you very much for using Q-Chem.  Have a nice day.  *
