 Q-Chem 5.4, Q-Chem, Inc., Pleasanton, CA (2021)
 Q-Chem 5.4.0 for Intel X86 EM64T Linux

User input:
--------------------------------------------------------------
$molecule
0 1
C	-0.798349	-0.619704	0.977865
S	-0.104949	-0.038504	2.485365
C	1.099151	0.972896	1.696765
C	-0.105049	-0.038904	-0.090035
C	0.958451	0.856396	0.291465
S	-0.289749	-0.197704	-1.827635
C	1.048551	0.932496	-2.076635
C	1.589551	1.389696	-0.884735
F	2.610351	2.252596	-0.841235
C	1.392951	1.219096	-3.478235
O	0.808351	0.718096	-4.428635
O	2.422751	2.092896	-3.591335
C	2.805351	2.407096	-4.938335
H	3.644251	3.120196	-4.855235
H	1.960651	2.864196	-5.492335
H	3.123651	1.494396	-5.481435
C	-0.798349	-2.054904	0.977865
H	-0.109849	-2.062904	0.145765
H	-0.154149	-2.732804	1.518065
H	-1.522949	-2.586004	0.378565
H	1.806351	1.568096	2.284365
$end

$rem
JOBTYPE		SP
EXCHANGE	HF
CORRELATION	pRIMP2
BASIS		cc-pvtz
METHOD		rimp2
AUX_BASIS	rimp2-cc-pvtz
SOLVENT_METHOD	PCM
PURECART	11111
SYMMETRY	false
MEM_TOTAL	110000
SCF_CONVERGENCE = 6
THRESH=10
GUI = 2
$end

$solvent
dielectric 4.90
$end
--------------------------------------------------------------

             Standard Nuclear Orientation (Angstroms)
    I     Atom           X                Y                Z
 ----------------------------------------------------------------
    1      C      -0.7983490000    -0.6197040000     0.9778650000
    2      S      -0.1049490000    -0.0385040000     2.4853650000
    3      C       1.0991510000     0.9728960000     1.6967650000
    4      C      -0.1050490000    -0.0389040000    -0.0900350000
    5      C       0.9584510000     0.8563960000     0.2914650000
    6      S      -0.2897490000    -0.1977040000    -1.8276350000
    7      C       1.0485510000     0.9324960000    -2.0766350000
    8      C       1.5895510000     1.3896960000    -0.8847350000
    9      F       2.6103510000     2.2525960000    -0.8412350000
   10      C       1.3929510000     1.2190960000    -3.4782350000
   11      O       0.8083510000     0.7180960000    -4.4286350000
   12      O       2.4227510000     2.0928960000    -3.5913350000
   13      C       2.8053510000     2.4070960000    -4.9383350000
   14      H       3.6442510000     3.1201960000    -4.8552350000
   15      H       1.9606510000     2.8641960000    -5.4923350000
   16      H       3.1236510000     1.4943960000    -5.4814350000
   17      C      -0.7983490000    -2.0549040000     0.9778650000
   18      H      -0.1098490000    -2.0629040000     0.1457650000
   19      H      -0.1541490000    -2.7328040000     1.5180650000
   20      H      -1.5229490000    -2.5860040000     0.3785650000
   21      H       1.8063510000     1.5680960000     2.2843650000
 ----------------------------------------------------------------

   11   -1389.2142030111      5.29e-07  Convergence criterion met
 Total energy in the final basis set =    -1389.2142030111
        RIMP2         total energy =     -1391.7318600764 a.u.

                    Orbital Energies (a.u.)
 --------------------------------------------------------------

 Alpha MOs
 -- Occupied --
-92.0058 -92.0017 -26.3432 -20.6142 -20.5601 -11.4086 -11.3827 -11.3129
-11.2968 -11.2949 -11.2887 -11.2808 -11.2735 -11.2163  -9.0049  -9.0015
 -6.6855  -6.6847  -6.6845  -6.6824  -6.6817  -6.6807  -1.6603  -1.4666
 -1.3693  -1.2205  -1.1414  -1.0709  -1.0211  -0.9912  -0.9599  -0.9072
 -0.8656  -0.8081  -0.7910  -0.7606  -0.7313  -0.7250  -0.6973  -0.6841
 -0.6735  -0.6615  -0.6093  -0.6004  -0.5936  -0.5834  -0.5649  -0.5620
 -0.5308  -0.5200  -0.5112  -0.4892  -0.4744  -0.4725  -0.4687  -0.4518
 -0.3811  -0.3400  -0.2931

          Ground-State Mulliken Net Atomic Charges

     Atom                 Charge (a.u.)
  ----------------------------------------
      1 C                    -0.082241
      2 S                     0.097923
      3 C                    -0.175881
      4 C                     0.038875
      5 C                    -0.104835
      6 S                     0.027594
      7 C                    -0.156499
      8 C                     0.390315
      9 F                    -0.206395
     10 C                     0.448689
     11 O                    -0.463909
     12 O                    -0.301388
     13 C                    -0.058306
     14 H                     0.121183
     15 H                     0.094946
     16 H                     0.094748
     17 C                    -0.375862
     18 H                     0.119700
     19 H                     0.154027
     20 H                     0.123388
     21 H                     0.213929
  ----------------------------------------
  Sum of atomic charges =     0.000000

                    Cartesian Multipole Moments
 -----------------------------------------------------------------
    Charge (ESU x 10^10)
                -0.0000
    Dipole Moment (Debye)
         X       2.7679      Y       0.6038      Z       2.5050
       Tot       3.7816
    Quadrupole Moments (Debye-Ang)
        XX     -91.7148     XY       4.5884     YY     -89.4862
        XZ      -4.3678     YZ      -5.2038     ZZ     -96.4019

 Total job time:  58.27s(wall), 2028.89s(cpu)
        *  Thank you very much for using Q-Chem.  Have a nice day.  *
