 Q-Chem 5.4, Q-Chem, Inc., Pleasanton, CA (2021)
 Q-Chem 5.4.0 for Intel X86 EM64T Linux

User input:
--------------------------------------------------------------
$molecule
0 1
C	-0.669670	-0.747937	0.978067
S	-0.087770	-0.055137	2.485567
C	0.922530	1.149963	1.696967
C	-0.087770	-0.055537	-0.089833
C	0.804030	1.010863	0.291667
S	-0.242070	-0.244037	-1.827433
C	0.879630	1.101463	-2.076433
C	1.333030	1.645563	-0.884533
F	2.188530	2.672563	-0.841033
C	1.169030	1.443363	-3.478033
O	0.680330	0.848563	-4.428433
O	2.031430	2.482763	-3.591133
C	2.353630	2.858663	-4.938133
H	3.056030	3.706563	-4.855033
H	1.442430	3.162063	-5.492133
H	2.825630	2.015063	-5.481233
C	-0.669670	-2.183137	0.978067
H	-0.136170	-2.191137	0.039067
H	0.058530	-2.861037	1.398167
H	-1.487370	-2.714237	0.513667
H	1.515530	1.858863	2.284567
$end

$rem
JOBTYPE		SP
EXCHANGE	HF
CORRELATION	pRIMP2
BASIS		cc-pvtz
METHOD		rimp2
AUX_BASIS	rimp2-cc-pvtz
SOLVENT_METHOD	PCM
PURECART	11111
SYMMETRY	false
MEM_TOTAL	110000
SCF_CONVERGENCE = 6
THRESH=10
GUI = 2
$end

$solvent
dielectric 4.90
$end
--------------------------------------------------------------

             Standard Nuclear Orientation (Angstroms)
    I     Atom           X                Y                Z
 ----------------------------------------------------------------
    1      C      -0.6696700000    -0.7479370000     0.9780670000
    2      S      -0.0877700000    -0.0551370000     2.4855670000
    3      C       0.9225300000     1.1499630000     1.6969670000
    4      C      -0.0877700000    -0.0555370000    -0.0898330000
    5      C       0.8040300000     1.0108630000     0.2916670000
    6      S      -0.2420700000    -0.2440370000    -1.8274330000
    7      C       0.8796300000     1.1014630000    -2.0764330000
    8      C       1.3330300000     1.6455630000    -0.8845330000
    9      F       2.1885300000     2.6725630000    -0.8410330000
   10      C       1.1690300000     1.4433630000    -3.4780330000
   11      O       0.6803300000     0.8485630000    -4.4284330000
   12      O       2.0314300000     2.4827630000    -3.5911330000
   13      C       2.3536300000     2.8586630000    -4.9381330000
   14      H       3.0560300000     3.7065630000    -4.8550330000
   15      H       1.4424300000     3.1620630000    -5.4921330000
   16      H       2.8256300000     2.0150630000    -5.4812330000
   17      C      -0.6696700000    -2.1831370000     0.9780670000
   18      H      -0.1361700000    -2.1911370000     0.0390670000
   19      H       0.0585300000    -2.8610370000     1.3981670000
   20      H      -1.4873700000    -2.7142370000     0.5136670000
   21      H       1.5155300000     1.8588630000     2.2845670000
 ----------------------------------------------------------------

   11   -1389.2364467671      4.84e-07  Convergence criterion met
 Total energy in the final basis set =    -1389.2364467671
        RIMP2         total energy =     -1391.7499736590 a.u.

                    Orbital Energies (a.u.)
 --------------------------------------------------------------

 Alpha MOs
 -- Occupied --
-92.0045 -91.9988 -26.3425 -20.6140 -20.5600 -11.4083 -11.3817 -11.3078
-11.2948 -11.2937 -11.2885 -11.2813 -11.2799 -11.2192  -9.0036  -8.9988
 -6.6843  -6.6836  -6.6833  -6.6798  -6.6791  -6.6780  -1.6596  -1.4664
 -1.3691  -1.2175  -1.1388  -1.0694  -1.0201  -0.9921  -0.9592  -0.9099
 -0.8647  -0.8069  -0.7903  -0.7601  -0.7304  -0.7243  -0.6960  -0.6839
 -0.6733  -0.6612  -0.6076  -0.6013  -0.5921  -0.5860  -0.5643  -0.5606
 -0.5306  -0.5249  -0.5097  -0.4880  -0.4739  -0.4723  -0.4669  -0.4519
 -0.3846  -0.3422  -0.2937

          Ground-State Mulliken Net Atomic Charges

     Atom                 Charge (a.u.)
  ----------------------------------------
      1 C                    -0.040421
      2 S                     0.088039
      3 C                    -0.187061
      4 C                     0.006597
      5 C                    -0.090169
      6 S                     0.014548
      7 C                    -0.157035
      8 C                     0.387897
      9 F                    -0.206621
     10 C                     0.447827
     11 O                    -0.463376
     12 O                    -0.301340
     13 C                    -0.058384
     14 H                     0.121157
     15 H                     0.094944
     16 H                     0.094667
     17 C                    -0.372048
     18 H                     0.120509
     19 H                     0.159306
     20 H                     0.128149
     21 H                     0.212816
  ----------------------------------------
  Sum of atomic charges =     0.000000

                    Cartesian Multipole Moments
 -----------------------------------------------------------------
    Charge (ESU x 10^10)
                -0.0000
    Dipole Moment (Debye)
         X       2.1067      Y       0.6700      Z       2.5105
       Tot       3.3451
    Quadrupole Moments (Debye-Ang)
        XX     -92.8640     XY       4.6396     YY     -87.0383
        XZ      -3.9062     YZ      -6.2251     ZZ     -97.1122

 Total job time:  57.20s(wall), 1954.53s(cpu)
        *  Thank you very much for using Q-Chem.  Have a nice day.  *
