 Q-Chem 5.4, Q-Chem, Inc., Pleasanton, CA (2021)
 Q-Chem 5.4.0 for Intel X86 EM64T Linux

User input:
--------------------------------------------------------------
$molecule
0 1
C	-0.666348	-0.747937	0.975680
S	-0.084448	-0.055137	2.483180
C	0.925852	1.149963	1.694580
C	-0.084448	-0.055537	-0.092220
C	0.807352	1.010863	0.289280
S	-0.238748	-0.244037	-1.829820
C	0.882952	1.101463	-2.078820
C	1.336352	1.645563	-0.886920
F	2.191852	2.672563	-0.843420
C	1.172352	1.443363	-3.480420
O	0.683652	0.848563	-4.430820
O	2.034752	2.482763	-3.593520
C	2.356952	2.858663	-4.940520
H	3.059352	3.706563	-4.857420
H	1.445752	3.162063	-5.494520
H	2.828952	2.015063	-5.483620
C	-0.666348	-2.183137	0.975680
H	-1.746248	-2.191137	0.983080
H	-0.666648	-2.861037	0.134980
H	-0.659648	-2.714237	1.916080
H	1.518852	1.858863	2.282180
$end

$rem
JOBTYPE		SP
EXCHANGE	HF
CORRELATION	pRIMP2
BASIS		cc-pvtz
METHOD		rimp2
AUX_BASIS	rimp2-cc-pvtz
SOLVENT_METHOD	PCM
PURECART	11111
SYMMETRY	false
MEM_TOTAL	110000
SCF_CONVERGENCE = 6
THRESH=10
GUI = 2
$end

$solvent
dielectric 4.90
$end
--------------------------------------------------------------

             Standard Nuclear Orientation (Angstroms)
    I     Atom           X                Y                Z
 ----------------------------------------------------------------
    1      C      -0.6663480000    -0.7479370000     0.9756800000
    2      S      -0.0844480000    -0.0551370000     2.4831800000
    3      C       0.9258520000     1.1499630000     1.6945800000
    4      C      -0.0844480000    -0.0555370000    -0.0922200000
    5      C       0.8073520000     1.0108630000     0.2892800000
    6      S      -0.2387480000    -0.2440370000    -1.8298200000
    7      C       0.8829520000     1.1014630000    -2.0788200000
    8      C       1.3363520000     1.6455630000    -0.8869200000
    9      F       2.1918520000     2.6725630000    -0.8434200000
   10      C       1.1723520000     1.4433630000    -3.4804200000
   11      O       0.6836520000     0.8485630000    -4.4308200000
   12      O       2.0347520000     2.4827630000    -3.5935200000
   13      C       2.3569520000     2.8586630000    -4.9405200000
   14      H       3.0593520000     3.7065630000    -4.8574200000
   15      H       1.4457520000     3.1620630000    -5.4945200000
   16      H       2.8289520000     2.0150630000    -5.4836200000
   17      C      -0.6663480000    -2.1831370000     0.9756800000
   18      H      -1.7462480000    -2.1911370000     0.9830800000
   19      H      -0.6666480000    -2.8610370000     0.1349800000
   20      H      -0.6596480000    -2.7142370000     1.9160800000
   21      H       1.5188520000     1.8588630000     2.2821800000
 ----------------------------------------------------------------

   11   -1389.2328494400      4.66e-07  Convergence criterion met
 Total energy in the final basis set =    -1389.2328494400
        RIMP2         total energy =     -1391.7455019714 a.u.

                    Orbital Energies (a.u.)
 --------------------------------------------------------------

 Alpha MOs
 -- Occupied --
-92.0033 -91.9952 -26.3411 -20.6135 -20.5595 -11.4076 -11.3796 -11.3047
-11.2940 -11.2901 -11.2882 -11.2826 -11.2790 -11.2198  -9.0026  -8.9952
 -6.6834  -6.6826  -6.6822  -6.6762  -6.6755  -6.6744  -1.6583  -1.4659
 -1.3685  -1.2145  -1.1376  -1.0656  -1.0195  -0.9930  -0.9586  -0.9114
 -0.8639  -0.8065  -0.7889  -0.7588  -0.7302  -0.7231  -0.6933  -0.6833
 -0.6728  -0.6599  -0.6122  -0.5948  -0.5895  -0.5761  -0.5626  -0.5597
 -0.5321  -0.5260  -0.5062  -0.5006  -0.4741  -0.4716  -0.4711  -0.4524
 -0.3783  -0.3443  -0.2821

          Ground-State Mulliken Net Atomic Charges

     Atom                 Charge (a.u.)
  ----------------------------------------
      1 C                    -0.032836
      2 S                     0.087069
      3 C                    -0.198099
      4 C                    -0.001552
      5 C                    -0.089057
      6 S                     0.008425
      7 C                    -0.157976
      8 C                     0.392843
      9 F                    -0.207876
     10 C                     0.447391
     11 O                    -0.463084
     12 O                    -0.301175
     13 C                    -0.058465
     14 H                     0.121056
     15 H                     0.094811
     16 H                     0.094637
     17 C                    -0.389879
     18 H                     0.137517
     19 H                     0.160285
     20 H                     0.142840
     21 H                     0.213123
  ----------------------------------------
  Sum of atomic charges =     0.000000

                    Cartesian Multipole Moments
 -----------------------------------------------------------------
    Charge (ESU x 10^10)
                -0.0000
    Dipole Moment (Debye)
         X       0.9831      Y       0.3686      Z       3.1058
       Tot       3.2784
    Quadrupole Moments (Debye-Ang)
        XX     -92.1107     XY       7.2451     YY     -86.5985
        XZ      -5.6347     YZ      -7.5558     ZZ     -95.9655

 Total job time:  58.35s(wall), 2031.05s(cpu)
        *  Thank you very much for using Q-Chem.  Have a nice day.  *
