 Q-Chem 5.4, Q-Chem, Inc., Pleasanton, CA (2021)
 Q-Chem 5.4.0 for Intel X86 EM64T Linux

User input:
--------------------------------------------------------------
$molecule
0 1
C	-0.439285	-0.893839	0.978264
S	-0.056485	-0.074039	2.485764
C	0.607415	1.351461	1.697164
C	-0.056385	-0.074439	-0.089636
C	0.529015	1.186461	0.291864
S	-0.156685	-0.296439	-1.827236
C	0.578515	1.293461	-2.076236
C	0.875715	1.936461	-0.884336
F	1.436215	3.149961	-0.840836
C	0.769615	1.698761	-3.477836
O	0.451515	0.997661	-4.428236
O	1.333615	2.925861	-3.590936
C	1.547615	3.372361	-4.937936
H	2.006515	4.373161	-4.854836
H	0.588815	3.429561	-5.491936
H	2.221815	2.679661	-5.481036
C	-0.439285	-2.329039	0.978264
H	-0.446685	-2.337039	-0.101636
H	0.401415	-3.006939	0.977964
H	-1.379685	-2.860139	0.984964
H	0.996715	2.189761	2.284764
$end

$rem
JOBTYPE		SP
EXCHANGE	HF
CORRELATION	pRIMP2
BASIS		cc-pvtz
METHOD		rimp2
AUX_BASIS	rimp2-cc-pvtz
SOLVENT_METHOD	PCM
PURECART	11111
SYMMETRY	false
MEM_TOTAL	110000
SCF_CONVERGENCE = 6
THRESH=10
GUI = 2
$end

$solvent
dielectric 4.90
$end
--------------------------------------------------------------

             Standard Nuclear Orientation (Angstroms)
    I     Atom           X                Y                Z
 ----------------------------------------------------------------
    1      C      -0.4392850000    -0.8938390000     0.9782640000
    2      S      -0.0564850000    -0.0740390000     2.4857640000
    3      C       0.6074150000     1.3514610000     1.6971640000
    4      C      -0.0563850000    -0.0744390000    -0.0896360000
    5      C       0.5290150000     1.1864610000     0.2918640000
    6      S      -0.1566850000    -0.2964390000    -1.8272360000
    7      C       0.5785150000     1.2934610000    -2.0762360000
    8      C       0.8757150000     1.9364610000    -0.8843360000
    9      F       1.4362150000     3.1499610000    -0.8408360000
   10      C       0.7696150000     1.6987610000    -3.4778360000
   11      O       0.4515150000     0.9976610000    -4.4282360000
   12      O       1.3336150000     2.9258610000    -3.5909360000
   13      C       1.5476150000     3.3723610000    -4.9379360000
   14      H       2.0065150000     4.3731610000    -4.8548360000
   15      H       0.5888150000     3.4295610000    -5.4919360000
   16      H       2.2218150000     2.6796610000    -5.4810360000
   17      C      -0.4392850000    -2.3290390000     0.9782640000
   18      H      -0.4466850000    -2.3370390000    -0.1016360000
   19      H       0.4014150000    -3.0069390000     0.9779640000
   20      H      -1.3796850000    -2.8601390000     0.9849640000
   21      H       0.9967150000     2.1897610000     2.2847640000
 ----------------------------------------------------------------

   11   -1389.2603825689      4.59e-07  Convergence criterion met
 Total energy in the final basis set =    -1389.2603825689
        RIMP2         total energy =     -1391.7689427962 a.u.

                    Orbital Energies (a.u.)
 --------------------------------------------------------------

 Alpha MOs
 -- Occupied --
-92.0021 -91.9958 -26.3419 -20.6138 -20.5599 -11.4080 -11.3807 -11.3049
-11.2947 -11.2937 -11.2884 -11.2873 -11.2793 -11.2235  -9.0014  -8.9959
 -6.6821  -6.6814  -6.6811  -6.6770  -6.6763  -6.6751  -1.6590  -1.4662
 -1.3688  -1.2152  -1.1362  -1.0684  -1.0193  -0.9938  -0.9586  -0.9133
 -0.8640  -0.8061  -0.7896  -0.7597  -0.7302  -0.7238  -0.6952  -0.6836
 -0.6731  -0.6614  -0.6069  -0.6041  -0.5919  -0.5838  -0.5651  -0.5571
 -0.5350  -0.5303  -0.5079  -0.4873  -0.4738  -0.4721  -0.4658  -0.4464
 -0.3928  -0.3447  -0.2942

          Ground-State Mulliken Net Atomic Charges

     Atom                 Charge (a.u.)
  ----------------------------------------
      1 C                    -0.000209
      2 S                     0.078464
      3 C                    -0.194048
      4 C                    -0.019457
      5 C                    -0.087737
      6 S                    -0.000821
      7 C                    -0.157271
      8 C                     0.390708
      9 F                    -0.207071
     10 C                     0.445890
     11 O                    -0.463048
     12 O                    -0.301263
     13 C                    -0.058492
     14 H                     0.121176
     15 H                     0.094839
     16 H                     0.094730
     17 C                    -0.347474
     18 H                     0.110110
     19 H                     0.154952
     20 H                     0.133092
     21 H                     0.212929
  ----------------------------------------
  Sum of atomic charges =     0.000000

                    Cartesian Multipole Moments
 -----------------------------------------------------------------
    Charge (ESU x 10^10)
                -0.0000
    Dipole Moment (Debye)
         X       1.0715      Y       0.7536      Z       2.4939
       Tot       2.8170
    Quadrupole Moments (Debye-Ang)
        XX     -94.4186     XY       4.2619     YY     -83.6399
        XZ      -3.0698     YZ      -7.2606     ZZ     -97.9419

 Total job time:  60.06s(wall), 2040.16s(cpu)
        *  Thank you very much for using Q-Chem.  Have a nice day.  *
