 Q-Chem 5.4, Q-Chem, Inc., Pleasanton, CA (2021)
 Q-Chem 5.4.0 for Intel X86 EM64T Linux

User input:
--------------------------------------------------------------
$molecule
0 1
C	-0.679610	-0.749097	0.976149
S	-0.097710	-0.056297	2.483649
C	0.912590	1.148803	1.695049
C	-0.097710	-0.056697	-0.091751
C	0.794090	1.009703	0.289749
S	-0.252010	-0.245197	-1.829351
C	0.869690	1.100303	-2.078351
C	1.323090	1.644403	-0.886451
F	2.178590	2.671403	-0.842951
C	1.159090	1.442203	-3.479951
O	0.670390	0.847403	-4.430351
O	2.021490	2.481603	-3.593051
C	2.343690	2.857503	-4.940051
H	3.046090	3.705403	-4.856951
H	1.432490	3.160903	-5.494051
H	2.815690	2.013903	-5.483151
C	-0.430410	-2.162497	0.976149
H	0.634490	-1.982797	0.968749
H	-0.312410	-2.830097	1.816849
H	-0.344710	-2.686697	0.035749
H	1.505590	1.857703	2.282649
$end

$rem
JOBTYPE		SP
EXCHANGE	HF
CORRELATION	pRIMP2
BASIS		cc-pvtz
METHOD		rimp2
AUX_BASIS	rimp2-cc-pvtz
SOLVENT_METHOD	PCM
PURECART	11111
SYMMETRY	false
MEM_TOTAL	110000
SCF_CONVERGENCE = 6
THRESH=10
GUI = 2
$end

$solvent
dielectric 4.90
$end
--------------------------------------------------------------

             Standard Nuclear Orientation (Angstroms)
    I     Atom           X                Y                Z
 ----------------------------------------------------------------
    1      C      -0.6796100000    -0.7490970000     0.9761490000
    2      S      -0.0977100000    -0.0562970000     2.4836490000
    3      C       0.9125900000     1.1488030000     1.6950490000
    4      C      -0.0977100000    -0.0566970000    -0.0917510000
    5      C       0.7940900000     1.0097030000     0.2897490000
    6      S      -0.2520100000    -0.2451970000    -1.8293510000
    7      C       0.8696900000     1.1003030000    -2.0783510000
    8      C       1.3230900000     1.6444030000    -0.8864510000
    9      F       2.1785900000     2.6714030000    -0.8429510000
   10      C       1.1590900000     1.4422030000    -3.4799510000
   11      O       0.6703900000     0.8474030000    -4.4303510000
   12      O       2.0214900000     2.4816030000    -3.5930510000
   13      C       2.3436900000     2.8575030000    -4.9400510000
   14      H       3.0460900000     3.7054030000    -4.8569510000
   15      H       1.4324900000     3.1609030000    -5.4940510000
   16      H       2.8156900000     2.0139030000    -5.4831510000
   17      C      -0.4304100000    -2.1624970000     0.9761490000
   18      H       0.6344900000    -1.9827970000     0.9687490000
   19      H      -0.3124100000    -2.8300970000     1.8168490000
   20      H      -0.3447100000    -2.6866970000     0.0357490000
   21      H       1.5055900000     1.8577030000     2.2826490000
 ----------------------------------------------------------------

   11   -1389.2240643415      5.12e-07  Convergence criterion met
 Total energy in the final basis set =    -1389.2240643415
        RIMP2         total energy =     -1391.7390155808 a.u.

                    Orbital Energies (a.u.)
 --------------------------------------------------------------

 Alpha MOs
 -- Occupied --
-92.0030 -91.9979 -26.3423 -20.6142 -20.5604 -11.4085 -11.3810 -11.3103
-11.2955 -11.2924 -11.2886 -11.2830 -11.2819 -11.2251  -9.0027  -8.9978
 -6.6834  -6.6827  -6.6823  -6.6788  -6.6781  -6.6770  -1.6595  -1.4666
 -1.3693  -1.2199  -1.1432  -1.0698  -1.0210  -0.9916  -0.9598  -0.9070
 -0.8655  -0.8082  -0.7904  -0.7600  -0.7329  -0.7243  -0.6958  -0.6841
 -0.6734  -0.6613  -0.6137  -0.6003  -0.5955  -0.5717  -0.5643  -0.5591
 -0.5315  -0.5239  -0.5124  -0.5030  -0.4747  -0.4727  -0.4717  -0.4521
 -0.3812  -0.3460  -0.2834

          Ground-State Mulliken Net Atomic Charges

     Atom                 Charge (a.u.)
  ----------------------------------------
      1 C                    -0.048234
      2 S                     0.088039
      3 C                    -0.187813
      4 C                     0.015202
      5 C                    -0.097492
      6 S                     0.016712
      7 C                    -0.153473
      8 C                     0.390261
      9 F                    -0.207482
     10 C                     0.448173
     11 O                    -0.462332
     12 O                    -0.301105
     13 C                    -0.058380
     14 H                     0.121185
     15 H                     0.095066
     16 H                     0.094717
     17 C                    -0.376678
     18 H                     0.120926
     19 H                     0.154772
     20 H                     0.134033
     21 H                     0.213904
  ----------------------------------------
  Sum of atomic charges =     0.000000

                    Cartesian Multipole Moments
 -----------------------------------------------------------------
    Charge (ESU x 10^10)
                -0.0000
    Dipole Moment (Debye)
         X       2.6319      Y       0.6985      Z       2.9268
       Tot       3.9976
    Quadrupole Moments (Debye-Ang)
        XX     -93.8877     XY       3.9538     YY     -87.1458
        XZ      -3.9913     YZ      -7.3223     ZZ     -95.6777

 Total job time:  63.76s(wall), 2096.84s(cpu)
        *  Thank you very much for using Q-Chem.  Have a nice day.  *
