 Q-Chem 5.4, Q-Chem, Inc., Pleasanton, CA (2021)
 Q-Chem 5.4.0 for Intel X86 EM64T Linux

User input:
--------------------------------------------------------------
$molecule
0 1
C	-0.182535	-0.975447	0.974943
S	-0.024935	-0.084547	2.482443
C	0.247365	1.464253	1.693843
C	-0.024735	-0.084847	-0.092957
C	0.214365	1.284553	0.288543
S	-0.064235	-0.325247	-1.830557
C	0.234465	1.400753	-2.079557
C	0.355065	2.098753	-0.887657
F	0.582465	3.415953	-0.844157
C	0.314165	1.841653	-3.481157
O	0.188365	1.082153	-4.431557
O	0.541365	3.172953	-3.594257
C	0.632465	3.659653	-4.941257
H	0.816765	4.745153	-4.858157
H	-0.308435	3.466753	-5.495257
H	1.462965	3.165053	-5.484357
C	-0.182535	-2.410647	0.974943
H	0.756465	-2.418647	1.508443
H	-0.602635	-3.088547	1.703143
H	0.281865	-2.941747	0.157243
H	0.406465	2.374753	2.281443
$end

$rem
JOBTYPE		SP
EXCHANGE	HF
CORRELATION	pRIMP2
BASIS		cc-pvtz
METHOD		rimp2
AUX_BASIS	rimp2-cc-pvtz
SOLVENT_METHOD	PCM
PURECART	11111
SYMMETRY	false
MEM_TOTAL	110000
SCF_CONVERGENCE = 6
THRESH=10
GUI = 2
$end

$solvent
dielectric 4.90
$end
--------------------------------------------------------------

             Standard Nuclear Orientation (Angstroms)
    I     Atom           X                Y                Z
 ----------------------------------------------------------------
    1      C      -0.1825350000    -0.9754470000     0.9749430000
    2      S      -0.0249350000    -0.0845470000     2.4824430000
    3      C       0.2473650000     1.4642530000     1.6938430000
    4      C      -0.0247350000    -0.0848470000    -0.0929570000
    5      C       0.2143650000     1.2845530000     0.2885430000
    6      S      -0.0642350000    -0.3252470000    -1.8305570000
    7      C       0.2344650000     1.4007530000    -2.0795570000
    8      C       0.3550650000     2.0987530000    -0.8876570000
    9      F       0.5824650000     3.4159530000    -0.8441570000
   10      C       0.3141650000     1.8416530000    -3.4811570000
   11      O       0.1883650000     1.0821530000    -4.4315570000
   12      O       0.5413650000     3.1729530000    -3.5942570000
   13      C       0.6324650000     3.6596530000    -4.9412570000
   14      H       0.8167650000     4.7451530000    -4.8581570000
   15      H      -0.3084350000     3.4667530000    -5.4952570000
   16      H       1.4629650000     3.1650530000    -5.4843570000
   17      C      -0.1825350000    -2.4106470000     0.9749430000
   18      H       0.7564650000    -2.4186470000     1.5084430000
   19      H      -0.6026350000    -3.0885470000     1.7031430000
   20      H       0.2818650000    -2.9417470000     0.1572430000
   21      H       0.4064650000     2.3747530000     2.2814430000
 ----------------------------------------------------------------

   11   -1389.2715391579      5.33e-07  Convergence criterion met
 Total energy in the final basis set =    -1389.2715391579
        RIMP2         total energy =     -1391.7752044871 a.u.

                    Orbital Energies (a.u.)
 --------------------------------------------------------------

 Alpha MOs
 -- Occupied --
-92.0048 -91.9899 -26.3398 -20.6133 -20.5594 -11.4072 -11.3776 -11.3009
-11.2946 -11.2942 -11.2879 -11.2817 -11.2782 -11.2300  -9.0039  -8.9902
 -6.6847  -6.6842  -6.6836  -6.6712  -6.6705  -6.6694  -1.6571  -1.4656
 -1.3683  -1.2116  -1.1368  -1.0663  -1.0184  -0.9953  -0.9579  -0.9126
 -0.8629  -0.8050  -0.7878  -0.7580  -0.7311  -0.7220  -0.6915  -0.6830
 -0.6724  -0.6599  -0.6113  -0.5982  -0.5922  -0.5782  -0.5635  -0.5560
 -0.5341  -0.5291  -0.5137  -0.4965  -0.4724  -0.4708  -0.4702  -0.4581
 -0.3860  -0.3458  -0.2822

          Ground-State Mulliken Net Atomic Charges

     Atom                 Charge (a.u.)
  ----------------------------------------
      1 C                     0.053592
      2 S                     0.071996
      3 C                    -0.221501
      4 C                    -0.040260
      5 C                    -0.087710
      6 S                    -0.011467
      7 C                    -0.156529
      8 C                     0.389349
      9 F                    -0.209036
     10 C                     0.445536
     11 O                    -0.461952
     12 O                    -0.300780
     13 C                    -0.058656
     14 H                     0.121050
     15 H                     0.094783
     16 H                     0.094629
     17 C                    -0.384629
     18 H                     0.140490
     19 H                     0.160188
     20 H                     0.147809
     21 H                     0.213098
  ----------------------------------------
  Sum of atomic charges =     0.000000

                    Cartesian Multipole Moments
 -----------------------------------------------------------------
    Charge (ESU x 10^10)
                -0.0000
    Dipole Moment (Debye)
         X       0.9667      Y       0.1001      Z       3.6151
       Tot       3.7435
    Quadrupole Moments (Debye-Ang)
        XX     -96.7356     XY       0.4414     YY     -80.8880
        XZ      -1.2118     YZ     -11.4212     ZZ     -95.9517

 Total job time:  56.10s(wall), 1948.16s(cpu)
        *  Thank you very much for using Q-Chem.  Have a nice day.  *
