 Q-Chem 5.4, Q-Chem, Inc., Pleasanton, CA (2021)
 Q-Chem 5.4.0 for Intel X86 EM64T Linux

User input:
--------------------------------------------------------------
$molecule
0 1
C	0.000578	-0.991205	0.978264
S	0.001078	-0.086405	2.485764
C	0.000278	1.486095	1.697164
C	0.001378	-0.086805	-0.089636
C	-0.001022	1.303395	0.291864
S	0.004178	-0.330305	-1.827236
C	-0.001322	1.421295	-2.076236
C	-0.003822	2.129695	-0.884336
F	-0.008622	3.466295	-0.840836
C	0.000578	1.869395	-3.477836
O	0.008478	1.099495	-4.428236
O	-0.006922	3.219895	-3.590936
C	-0.001722	3.714995	-4.937936
H	-0.008722	4.815995	-4.854836
H	-0.894822	3.361695	-5.491936
H	0.902078	3.372095	-5.481036
C	0.000578	-2.426405	0.978264
H	-0.006822	-2.434405	-0.101636
H	0.841278	-3.104305	0.977964
H	-0.939822	-2.957505	0.984964
H	-0.001122	2.410395	2.284764
$end

$rem
JOBTYPE		SP
EXCHANGE	HF
CORRELATION	pRIMP2
BASIS		cc-pvtz
METHOD		rimp2
AUX_BASIS	rimp2-cc-pvtz
SOLVENT_METHOD	PCM
PURECART	11111
SYMMETRY	false
MEM_TOTAL	110000
SCF_CONVERGENCE = 6
THRESH=10
GUI = 2
$end

$solvent
dielectric 4.90
$end
--------------------------------------------------------------

             Standard Nuclear Orientation (Angstroms)
    I     Atom           X                Y                Z
 ----------------------------------------------------------------
    1      C       0.0005780000    -0.9912050000     0.9782640000
    2      S       0.0010780000    -0.0864050000     2.4857640000
    3      C       0.0002780000     1.4860950000     1.6971640000
    4      C       0.0013780000    -0.0868050000    -0.0896360000
    5      C      -0.0010220000     1.3033950000     0.2918640000
    6      S       0.0041780000    -0.3303050000    -1.8272360000
    7      C      -0.0013220000     1.4212950000    -2.0762360000
    8      C      -0.0038220000     2.1296950000    -0.8843360000
    9      F      -0.0086220000     3.4662950000    -0.8408360000
   10      C       0.0005780000     1.8693950000    -3.4778360000
   11      O       0.0084780000     1.0994950000    -4.4282360000
   12      O      -0.0069220000     3.2198950000    -3.5909360000
   13      C      -0.0017220000     3.7149950000    -4.9379360000
   14      H      -0.0087220000     4.8159950000    -4.8548360000
   15      H      -0.8948220000     3.3616950000    -5.4919360000
   16      H       0.9020780000     3.3720950000    -5.4810360000
   17      C       0.0005780000    -2.4264050000     0.9782640000
   18      H      -0.0068220000    -2.4344050000    -0.1016360000
   19      H       0.8412780000    -3.1043050000     0.9779640000
   20      H      -0.9398220000    -2.9575050000     0.9849640000
   21      H      -0.0011220000     2.4103950000     2.2847640000
 ----------------------------------------------------------------

   11   -1389.2733574762      4.57e-07  Convergence criterion met
 Total energy in the final basis set =    -1389.2733574762
        RIMP2         total energy =     -1391.7790974310 a.u.

                    Orbital Energies (a.u.)
 --------------------------------------------------------------

 Alpha MOs
 -- Occupied --
-92.0027 -91.9937 -26.3413 -20.6137 -20.5598 -11.4078 -11.3798 -11.3003
-11.2947 -11.2944 -11.2903 -11.2883 -11.2788 -11.2266  -9.0019  -8.9939
 -6.6826  -6.6820  -6.6816  -6.6750  -6.6743  -6.6732  -1.6585  -1.4661
 -1.3687  -1.2136  -1.1352  -1.0681  -1.0188  -0.9950  -0.9583  -0.9145
 -0.8635  -0.8053  -0.7891  -0.7593  -0.7301  -0.7233  -0.6946  -0.6835
 -0.6729  -0.6612  -0.6079  -0.6042  -0.5917  -0.5820  -0.5668  -0.5554
 -0.5407  -0.5302  -0.5070  -0.4870  -0.4734  -0.4718  -0.4644  -0.4515
 -0.3937  -0.3449  -0.2924

          Ground-State Mulliken Net Atomic Charges

     Atom                 Charge (a.u.)
  ----------------------------------------
      1 C                     0.045146
      2 S                     0.072379
      3 C                    -0.200186
      4 C                    -0.013692
      5 C                    -0.102230
      6 S                    -0.011072
      7 C                    -0.157786
      8 C                     0.391084
      9 F                    -0.207701
     10 C                     0.444322
     11 O                    -0.463100
     12 O                    -0.300979
     13 C                    -0.058699
     14 H                     0.121191
     15 H                     0.094796
     16 H                     0.094742
     17 C                    -0.364343
     18 H                     0.112553
     19 H                     0.152070
     20 H                     0.138501
     21 H                     0.213008
  ----------------------------------------
  Sum of atomic charges =     0.000000

                    Cartesian Multipole Moments
 -----------------------------------------------------------------
    Charge (ESU x 10^10)
                -0.0000
    Dipole Moment (Debye)
         X      -0.0246      Y       0.6286      Z       2.5728
       Tot       2.6486
    Quadrupole Moments (Debye-Ang)
        XX     -96.2022     XY      -0.0523     YY     -81.0254
        XZ       0.0397     YZ      -8.3935     ZZ     -98.1757

 Total job time:  59.30s(wall), 1991.77s(cpu)
        *  Thank you very much for using Q-Chem.  Have a nice day.  *
