 Q-Chem 5.4, Q-Chem, Inc., Pleasanton, CA (2021)
 Q-Chem 5.4.0 for Intel X86 EM64T Linux

User input:
--------------------------------------------------------------
$molecule
0 1
C	-0.666780	-0.747937	0.974537
S	-0.084880	-0.055137	2.482037
C	0.925420	1.149963	1.693437
C	-0.084880	-0.055537	-0.093363
C	0.806920	1.010863	0.288137
S	-0.239180	-0.244037	-1.830963
C	0.882520	1.101463	-2.079963
C	1.335920	1.645563	-0.888063
F	2.191420	2.672563	-0.844563
C	1.171920	1.443363	-3.481563
O	0.683220	0.848563	-4.431963
O	2.034320	2.482763	-3.594663
C	2.356520	2.858663	-4.941663
H	3.058920	3.706563	-4.858563
H	1.445320	3.162063	-5.495663
H	2.828520	2.015063	-5.484763
C	-0.666780	-2.183137	0.974537
H	-1.598280	-2.191137	1.520937
H	-1.087380	-2.861037	0.246637
H	-0.190880	-2.714237	1.785537
H	1.518420	1.858863	2.281037
$end

$rem
JOBTYPE		SP
EXCHANGE	HF
CORRELATION	pRIMP2
BASIS		cc-pvtz
METHOD		rimp2
AUX_BASIS	rimp2-cc-pvtz
SOLVENT_METHOD	PCM
PURECART	11111
SYMMETRY	false
MEM_TOTAL	110000
SCF_CONVERGENCE = 6
THRESH=10
GUI = 2
$end

$solvent
dielectric 4.90
$end
--------------------------------------------------------------

             Standard Nuclear Orientation (Angstroms)
    I     Atom           X                Y                Z
 ----------------------------------------------------------------
    1      C      -0.6667800000    -0.7479370000     0.9745370000
    2      S      -0.0848800000    -0.0551370000     2.4820370000
    3      C       0.9254200000     1.1499630000     1.6934370000
    4      C      -0.0848800000    -0.0555370000    -0.0933630000
    5      C       0.8069200000     1.0108630000     0.2881370000
    6      S      -0.2391800000    -0.2440370000    -1.8309630000
    7      C       0.8825200000     1.1014630000    -2.0799630000
    8      C       1.3359200000     1.6455630000    -0.8880630000
    9      F       2.1914200000     2.6725630000    -0.8445630000
   10      C       1.1719200000     1.4433630000    -3.4815630000
   11      O       0.6832200000     0.8485630000    -4.4319630000
   12      O       2.0343200000     2.4827630000    -3.5946630000
   13      C       2.3565200000     2.8586630000    -4.9416630000
   14      H       3.0589200000     3.7065630000    -4.8585630000
   15      H       1.4453200000     3.1620630000    -5.4956630000
   16      H       2.8285200000     2.0150630000    -5.4847630000
   17      C      -0.6667800000    -2.1831370000     0.9745370000
   18      H      -1.5982800000    -2.1911370000     1.5209370000
   19      H      -1.0873800000    -2.8610370000     0.2466370000
   20      H      -0.1908800000    -2.7142370000     1.7855370000
   21      H       1.5184200000     1.8588630000     2.2810370000
 ----------------------------------------------------------------

   11   -1389.2349899481      4.60e-07  Convergence criterion met
 Total energy in the final basis set =    -1389.2349899481
        RIMP2         total energy =     -1391.7466406083 a.u.

                    Orbital Energies (a.u.)
 --------------------------------------------------------------

 Alpha MOs
 -- Occupied --
-92.0052 -91.9952 -26.3411 -20.6135 -20.5596 -11.4076 -11.3796 -11.3078
-11.2940 -11.2904 -11.2882 -11.2800 -11.2790 -11.2194  -9.0044  -8.9952
 -6.6852  -6.6845  -6.6841  -6.6762  -6.6755  -6.6744  -1.6584  -1.4659
 -1.3685  -1.2148  -1.1384  -1.0650  -1.0202  -0.9929  -0.9590  -0.9108
 -0.8643  -0.8073  -0.7890  -0.7586  -0.7309  -0.7232  -0.6927  -0.6833
 -0.6728  -0.6599  -0.6116  -0.5961  -0.5888  -0.5793  -0.5638  -0.5599
 -0.5309  -0.5248  -0.5087  -0.4910  -0.4727  -0.4715  -0.4710  -0.4562
 -0.3807  -0.3445  -0.2856

          Ground-State Mulliken Net Atomic Charges

     Atom                 Charge (a.u.)
  ----------------------------------------
      1 C                    -0.065822
      2 S                     0.082030
      3 C                    -0.185211
      4 C                     0.035568
      5 C                    -0.096724
      6 S                     0.009620
      7 C                    -0.157589
      8 C                     0.390516
      9 F                    -0.208188
     10 C                     0.447190
     11 O                    -0.462948
     12 O                    -0.301189
     13 C                    -0.058484
     14 H                     0.121033
     15 H                     0.094832
     16 H                     0.094662
     17 C                    -0.385419
     18 H                     0.130816
     19 H                     0.157733
     20 H                     0.142888
     21 H                     0.214687
  ----------------------------------------
  Sum of atomic charges =     0.000000

                    Cartesian Multipole Moments
 -----------------------------------------------------------------
    Charge (ESU x 10^10)
                -0.0000
    Dipole Moment (Debye)
         X       1.2016      Y       0.5407      Z       3.3798
       Tot       3.6276
    Quadrupole Moments (Debye-Ang)
        XX     -92.0831     XY       7.0355     YY     -86.7203
        XZ      -5.2007     YZ      -7.9196     ZZ     -95.4432

 Total job time:  87.17s(wall), 2126.53s(cpu)
        *  Thank you very much for using Q-Chem.  Have a nice day.  *
