 Q-Chem 5.4, Q-Chem, Inc., Pleasanton, CA (2021)
 Q-Chem 5.4.0 for Intel X86 EM64T Linux

User input:
--------------------------------------------------------------
$molecule
0 1
C	-0.521085	-0.851940	0.973787
S	-0.068285	-0.068640	2.481287
C	0.717315	1.293660	1.692687
C	-0.068185	-0.069040	-0.094113
C	0.624815	1.136060	0.287387
S	-0.187485	-0.281440	-1.831713
C	0.683515	1.238360	-2.080713
C	1.035515	1.852960	-0.888813
F	1.699715	3.012960	-0.845313
C	0.909215	1.625360	-3.482313
O	0.531115	0.954660	-4.432713
O	1.577915	2.798760	-3.595413
C	1.830015	3.224860	-4.942413
H	2.374515	4.181860	-4.859313
H	0.879915	3.365460	-5.496413
H	2.441315	2.476060	-5.485513
C	-0.521085	-2.287140	0.973787
H	-0.144685	-2.295140	1.986087
H	-1.310985	-2.965040	1.261587
H	0.360315	-2.818240	0.645887
H	1.178215	2.094760	2.280287
$end

$rem
JOBTYPE		SP
EXCHANGE	HF
CORRELATION	pRIMP2
BASIS		cc-pvtz
METHOD		rimp2
AUX_BASIS	rimp2-cc-pvtz
SOLVENT_METHOD	PCM
PURECART	11111
SYMMETRY	false
MEM_TOTAL	110000
SCF_CONVERGENCE = 6
THRESH=10
GUI = 2
$end

$solvent
dielectric 4.90
$end
--------------------------------------------------------------

             Standard Nuclear Orientation (Angstroms)
    I     Atom           X                Y                Z
 ----------------------------------------------------------------
    1      C      -0.5210850000    -0.8519400000     0.9737870000
    2      S      -0.0682850000    -0.0686400000     2.4812870000
    3      C       0.7173150000     1.2936600000     1.6926870000
    4      C      -0.0681850000    -0.0690400000    -0.0941130000
    5      C       0.6248150000     1.1360600000     0.2873870000
    6      S      -0.1874850000    -0.2814400000    -1.8317130000
    7      C       0.6835150000     1.2383600000    -2.0807130000
    8      C       1.0355150000     1.8529600000    -0.8888130000
    9      F       1.6997150000     3.0129600000    -0.8453130000
   10      C       0.9092150000     1.6253600000    -3.4823130000
   11      O       0.5311150000     0.9546600000    -4.4327130000
   12      O       1.5779150000     2.7987600000    -3.5954130000
   13      C       1.8300150000     3.2248600000    -4.9424130000
   14      H       2.3745150000     4.1818600000    -4.8593130000
   15      H       0.8799150000     3.3654600000    -5.4964130000
   16      H       2.4413150000     2.4760600000    -5.4855130000
   17      C      -0.5210850000    -2.2871400000     0.9737870000
   18      H      -0.1446850000    -2.2951400000     1.9860870000
   19      H      -1.3109850000    -2.9650400000     1.2615870000
   20      H       0.3603150000    -2.8182400000     0.6458870000
   21      H       1.1782150000     2.0947600000     2.2802870000
 ----------------------------------------------------------------

   11   -1389.2517285344      4.91e-07  Convergence criterion met
 Total energy in the final basis set =    -1389.2517285344
        RIMP2         total energy =     -1391.7601303361 a.u.

                    Orbital Energies (a.u.)
 --------------------------------------------------------------

 Alpha MOs
 -- Occupied --
-92.0052 -91.9939 -26.3411 -20.6134 -20.5595 -11.4074 -11.3796 -11.3056
-11.2939 -11.2901 -11.2881 -11.2856 -11.2789 -11.2220  -9.0046  -8.9940
 -6.6854  -6.6846  -6.6842  -6.6751  -6.6744  -6.6733  -1.6583  -1.4658
 -1.3684  -1.2145  -1.1389  -1.0654  -1.0206  -0.9932  -0.9592  -0.9101
 -0.8645  -0.8079  -0.7890  -0.7583  -0.7318  -0.7232  -0.6922  -0.6832
 -0.6727  -0.6606  -0.6074  -0.6035  -0.5924  -0.5744  -0.5649  -0.5574
 -0.5362  -0.5299  -0.5086  -0.4838  -0.4752  -0.4714  -0.4700  -0.4498
 -0.3900  -0.3447  -0.2913

          Ground-State Mulliken Net Atomic Charges

     Atom                 Charge (a.u.)
  ----------------------------------------
      1 C                     0.009311
      2 S                     0.076362
      3 C                    -0.196618
      4 C                    -0.027123
      5 C                    -0.078913
      6 S                     0.005985
      7 C                    -0.156176
      8 C                     0.387924
      9 F                    -0.208002
     10 C                     0.446325
     11 O                    -0.462688
     12 O                    -0.301203
     13 C                    -0.058473
     14 H                     0.121014
     15 H                     0.094801
     16 H                     0.094650
     17 C                    -0.369972
     18 H                     0.120085
     19 H                     0.143546
     20 H                     0.144693
     21 H                     0.214472
  ----------------------------------------
  Sum of atomic charges =     0.000000

                    Cartesian Multipole Moments
 -----------------------------------------------------------------
    Charge (ESU x 10^10)
                -0.0000
    Dipole Moment (Debye)
         X       1.5427      Y       0.6973      Z       3.7312
       Tot       4.0973
    Quadrupole Moments (Debye-Ang)
        XX     -94.1274     XY       4.3556     YY     -84.7935
        XZ      -4.1256     YZ      -9.7905     ZZ     -95.3037

 Total job time:  62.75s(wall), 2222.77s(cpu)
        *  Thank you very much for using Q-Chem.  Have a nice day.  *
