 Q-Chem 5.4, Q-Chem, Inc., Pleasanton, CA (2021)
 Q-Chem 5.4.0 for Intel X86 EM64T Linux

User input:
--------------------------------------------------------------
$molecule
0 1
C	-0.353343	-0.928548	0.975276
S	-0.043443	-0.078548	2.482776
C	0.493657	1.399452	1.694176
C	-0.043343	-0.078948	-0.092624
C	0.429957	1.228152	0.288876
S	-0.123943	-0.308748	-1.830224
C	0.469957	1.339152	-2.079224
C	0.709957	2.005552	-0.887324
F	1.162557	3.263252	-0.843824
C	0.624957	1.759552	-3.480824
O	0.369157	1.033352	-4.431224
O	1.079857	3.031152	-3.593924
C	1.254157	3.494552	-4.940924
H	1.624157	4.531652	-4.857824
H	0.294057	3.468052	-5.494924
H	1.986157	2.863252	-5.484024
C	-0.353343	-2.363748	0.975276
H	-1.415543	-2.371748	1.170176
H	-0.499643	-3.041648	0.147376
H	-0.183543	-2.894848	1.900176
H	0.808457	2.268452	2.281776
$end

$rem
JOBTYPE		SP
EXCHANGE	HF
CORRELATION	pRIMP2
BASIS		cc-pvtz
METHOD		rimp2
AUX_BASIS	rimp2-cc-pvtz
SOLVENT_METHOD	PCM
PURECART	11111
SYMMETRY	false
MEM_TOTAL	110000
SCF_CONVERGENCE = 6
THRESH=10
GUI = 2
$end

$solvent
dielectric 4.90
$end
--------------------------------------------------------------

             Standard Nuclear Orientation (Angstroms)
    I     Atom           X                Y                Z
 ----------------------------------------------------------------
    1      C      -0.3533430000    -0.9285480000     0.9752760000
    2      S      -0.0434430000    -0.0785480000     2.4827760000
    3      C       0.4936570000     1.3994520000     1.6941760000
    4      C      -0.0433430000    -0.0789480000    -0.0926240000
    5      C       0.4299570000     1.2281520000     0.2888760000
    6      S      -0.1239430000    -0.3087480000    -1.8302240000
    7      C       0.4699570000     1.3391520000    -2.0792240000
    8      C       0.7099570000     2.0055520000    -0.8873240000
    9      F       1.1625570000     3.2632520000    -0.8438240000
   10      C       0.6249570000     1.7595520000    -3.4808240000
   11      O       0.3691570000     1.0333520000    -4.4312240000
   12      O       1.0798570000     3.0311520000    -3.5939240000
   13      C       1.2541570000     3.4945520000    -4.9409240000
   14      H       1.6241570000     4.5316520000    -4.8578240000
   15      H       0.2940570000     3.4680520000    -5.4949240000
   16      H       1.9861570000     2.8632520000    -5.4840240000
   17      C      -0.3533430000    -2.3637480000     0.9752760000
   18      H      -1.4155430000    -2.3717480000     1.1701760000
   19      H      -0.4996430000    -3.0416480000     0.1473760000
   20      H      -0.1835430000    -2.8948480000     1.9001760000
   21      H       0.8084570000     2.2684520000     2.2817760000
 ----------------------------------------------------------------

   11   -1389.2614320676      5.03e-07  Convergence criterion met
 Total energy in the final basis set =    -1389.2614320676
        RIMP2         total energy =     -1391.7675953673 a.u.

                    Orbital Energies (a.u.)
 --------------------------------------------------------------

 Alpha MOs
 -- Occupied --
-92.0059 -91.9907 -26.3398 -20.6133 -20.5594 -11.4072 -11.3776 -11.2978
-11.2947 -11.2940 -11.2879 -11.2814 -11.2781 -11.2277  -9.0048  -8.9909
 -6.6857  -6.6851  -6.6845  -6.6720  -6.6713  -6.6701  -1.6570  -1.4656
 -1.3682  -1.2114  -1.1363  -1.0657  -1.0183  -0.9952  -0.9578  -0.9130
 -0.8628  -0.8047  -0.7878  -0.7581  -0.7302  -0.7220  -0.6920  -0.6830
 -0.6724  -0.6597  -0.6124  -0.5943  -0.5872  -0.5827  -0.5617  -0.5588
 -0.5319  -0.5261  -0.5138  -0.4991  -0.4723  -0.4716  -0.4706  -0.4584
 -0.3824  -0.3449  -0.2806

          Ground-State Mulliken Net Atomic Charges

     Atom                 Charge (a.u.)
  ----------------------------------------
      1 C                     0.019079
      2 S                     0.080205
      3 C                    -0.223590
      4 C                    -0.019290
      5 C                    -0.092566
      6 S                    -0.010113
      7 C                    -0.157736
      8 C                     0.392851
      9 F                    -0.209100
     10 C                     0.446404
     11 O                    -0.462129
     12 O                    -0.300793
     13 C                    -0.058485
     14 H                     0.120983
     15 H                     0.094676
     16 H                     0.094687
     17 C                    -0.384727
     18 H                     0.142145
     19 H                     0.167328
     20 H                     0.146928
     21 H                     0.213246
  ----------------------------------------
  Sum of atomic charges =     0.000000

                    Cartesian Multipole Moments
 -----------------------------------------------------------------
    Charge (ESU x 10^10)
                -0.0000
    Dipole Moment (Debye)
         X      -0.0377      Y       0.0877      Z       3.4023
       Tot       3.4036
    Quadrupole Moments (Debye-Ang)
        XX     -95.3076     XY       5.5989     YY     -82.1278
        XZ      -3.5475     YZ     -10.1735     ZZ     -96.0877

 Total job time:  55.10s(wall), 1929.46s(cpu)
        *  Thank you very much for using Q-Chem.  Have a nice day.  *
