 Q-Chem 5.4, Q-Chem, Inc., Pleasanton, CA (2021)
 Q-Chem 5.4.0 for Intel X86 EM64T Linux

User input:
--------------------------------------------------------------
$molecule
0 1
C	-0.180967	-0.975447	0.978203
S	-0.023367	-0.084547	2.485703
C	0.248933	1.464253	1.697103
C	-0.023167	-0.084847	-0.089697
C	0.215933	1.284553	0.291803
S	-0.062667	-0.325247	-1.827297
C	0.236033	1.400753	-2.076297
C	0.356633	2.098753	-0.884397
F	0.584033	3.415953	-0.840897
C	0.315733	1.841653	-3.477897
O	0.189933	1.082153	-4.428297
O	0.542933	3.172953	-3.590997
C	0.634033	3.659653	-4.937997
H	0.818333	4.745153	-4.854897
H	-0.306867	3.466753	-5.491997
H	1.464533	3.165053	-5.481097
C	-0.180967	-2.410647	0.978203
H	0.181433	-2.418647	-0.039197
H	0.609133	-3.088547	1.265503
H	-1.066867	-2.941747	0.662803
H	0.408033	2.374753	2.284703
$end

$rem
JOBTYPE		SP
EXCHANGE	HF
CORRELATION	pRIMP2
BASIS		cc-pvtz
METHOD		rimp2
AUX_BASIS	rimp2-cc-pvtz
SOLVENT_METHOD	PCM
PURECART	11111
SYMMETRY	false
MEM_TOTAL	110000
SCF_CONVERGENCE = 6
THRESH=10
GUI = 2
$end

$solvent
dielectric 4.90
$end
--------------------------------------------------------------

             Standard Nuclear Orientation (Angstroms)
    I     Atom           X                Y                Z
 ----------------------------------------------------------------
    1      C      -0.1809670000    -0.9754470000     0.9782030000
    2      S      -0.0233670000    -0.0845470000     2.4857030000
    3      C       0.2489330000     1.4642530000     1.6971030000
    4      C      -0.0231670000    -0.0848470000    -0.0896970000
    5      C       0.2159330000     1.2845530000     0.2918030000
    6      S      -0.0626670000    -0.3252470000    -1.8272970000
    7      C       0.2360330000     1.4007530000    -2.0762970000
    8      C       0.3566330000     2.0987530000    -0.8843970000
    9      F       0.5840330000     3.4159530000    -0.8408970000
   10      C       0.3157330000     1.8416530000    -3.4778970000
   11      O       0.1899330000     1.0821530000    -4.4282970000
   12      O       0.5429330000     3.1729530000    -3.5909970000
   13      C       0.6340330000     3.6596530000    -4.9379970000
   14      H       0.8183330000     4.7451530000    -4.8548970000
   15      H      -0.3068670000     3.4667530000    -5.4919970000
   16      H       1.4645330000     3.1650530000    -5.4810970000
   17      C      -0.1809670000    -2.4106470000     0.9782030000
   18      H       0.1814330000    -2.4186470000    -0.0391970000
   19      H       0.6091330000    -3.0885470000     1.2655030000
   20      H      -1.0668670000    -2.9417470000     0.6628030000
   21      H       0.4080330000     2.3747530000     2.2847030000
 ----------------------------------------------------------------

   11   -1389.2707540300      4.64e-07  Convergence criterion met
 Total energy in the final basis set =    -1389.2707540300
        RIMP2         total energy =     -1391.7770946951 a.u.

                    Orbital Energies (a.u.)
 --------------------------------------------------------------

 Alpha MOs
 -- Occupied --
-92.0035 -91.9940 -26.3413 -20.6137 -20.5598 -11.4078 -11.3798 -11.2994
-11.2948 -11.2947 -11.2890 -11.2883 -11.2789 -11.2264  -9.0025  -8.9941
 -6.6833  -6.6827  -6.6823  -6.6752  -6.6745  -6.6734  -1.6584  -1.4661
 -1.3687  -1.2136  -1.1355  -1.0681  -1.0187  -0.9949  -0.9583  -0.9140
 -0.8635  -0.8052  -0.7891  -0.7593  -0.7300  -0.7232  -0.6943  -0.6835
 -0.6729  -0.6611  -0.6075  -0.6034  -0.5916  -0.5840  -0.5660  -0.5568
 -0.5377  -0.5301  -0.5072  -0.4876  -0.4734  -0.4718  -0.4643  -0.4550
 -0.3909  -0.3446  -0.2915

          Ground-State Mulliken Net Atomic Charges

     Atom                 Charge (a.u.)
  ----------------------------------------
      1 C                     0.037791
      2 S                     0.074393
      3 C                    -0.203736
      4 C                    -0.013757
      5 C                    -0.098867
      6 S                    -0.008137
      7 C                    -0.158178
      8 C                     0.389644
      9 F                    -0.207673
     10 C                     0.445226
     11 O                    -0.462866
     12 O                    -0.300997
     13 C                    -0.058630
     14 H                     0.121154
     15 H                     0.094800
     16 H                     0.094720
     17 C                    -0.370578
     18 H                     0.116770
     19 H                     0.158187
     20 H                     0.138172
     21 H                     0.212561
  ----------------------------------------
  Sum of atomic charges =     0.000000

                    Cartesian Multipole Moments
 -----------------------------------------------------------------
    Charge (ESU x 10^10)
                -0.0000
    Dipole Moment (Debye)
         X       0.5949      Y       0.5647      Z       2.6045
       Tot       2.7306
    Quadrupole Moments (Debye-Ang)
        XX     -96.0662     XY       1.2622     YY     -81.4463
        XZ      -0.8734     YZ      -8.4786     ZZ     -97.9684

 Total job time:  55.08s(wall), 1951.93s(cpu)
        *  Thank you very much for using Q-Chem.  Have a nice day.  *
