 Q-Chem 5.4, Q-Chem, Inc., Pleasanton, CA (2021)
 Q-Chem 5.4.0 for Intel X86 EM64T Linux

User input:
--------------------------------------------------------------
$molecule
0 1
C	-0.088976	-0.987267	0.977832
S	-0.009676	-0.085967	2.485332
C	0.126624	1.480633	1.696732
C	-0.009376	-0.086367	-0.090068
C	0.109424	1.298733	0.291432
S	-0.027776	-0.329267	-1.827668
C	0.119324	1.416233	-2.076668
C	0.178624	2.122133	-0.884768
F	0.290324	3.454033	-0.841268
C	0.160324	1.862433	-3.478268
O	0.101124	1.094833	-4.428668
O	0.270524	3.208433	-3.591368
C	0.318924	3.701233	-4.938368
H	0.407924	4.798633	-4.855268
H	-0.601576	3.427033	-5.492368
H	1.189424	3.280833	-5.481468
C	-0.088976	-2.422467	0.977832
H	-0.635376	-2.430467	0.046332
H	0.638924	-3.100367	0.557232
H	-0.899976	-2.953567	1.453732
H	0.205824	2.401533	2.284332
$end

$rem
JOBTYPE		SP
EXCHANGE	HF
CORRELATION	pRIMP2
BASIS		cc-pvtz
METHOD		rimp2
AUX_BASIS	rimp2-cc-pvtz
SOLVENT_METHOD	PCM
PURECART	11111
SYMMETRY	false
MEM_TOTAL	110000
SCF_CONVERGENCE = 6
THRESH=10
GUI = 2
$end

$solvent
dielectric 4.90
$end
--------------------------------------------------------------

             Standard Nuclear Orientation (Angstroms)
    I     Atom           X                Y                Z
 ----------------------------------------------------------------
    1      C      -0.0889760000    -0.9872670000     0.9778320000
    2      S      -0.0096760000    -0.0859670000     2.4853320000
    3      C       0.1266240000     1.4806330000     1.6967320000
    4      C      -0.0093760000    -0.0863670000    -0.0900680000
    5      C       0.1094240000     1.2987330000     0.2914320000
    6      S      -0.0277760000    -0.3292670000    -1.8276680000
    7      C       0.1193240000     1.4162330000    -2.0766680000
    8      C       0.1786240000     2.1221330000    -0.8847680000
    9      F       0.2903240000     3.4540330000    -0.8412680000
   10      C       0.1603240000     1.8624330000    -3.4782680000
   11      O       0.1011240000     1.0948330000    -4.4286680000
   12      O       0.2705240000     3.2084330000    -3.5913680000
   13      C       0.3189240000     3.7012330000    -4.9383680000
   14      H       0.4079240000     4.7986330000    -4.8552680000
   15      H      -0.6015760000     3.4270330000    -5.4923680000
   16      H       1.1894240000     3.2808330000    -5.4814680000
   17      C      -0.0889760000    -2.4224670000     0.9778320000
   18      H      -0.6353760000    -2.4304670000     0.0463320000
   19      H       0.6389240000    -3.1003670000     0.5572320000
   20      H      -0.8999760000    -2.9535670000     1.4537320000
   21      H       0.2058240000     2.4015330000     2.2843320000
 ----------------------------------------------------------------

   11   -1389.2729805544      4.67e-07  Convergence criterion met
 Total energy in the final basis set =    -1389.2729805544
        RIMP2         total energy =     -1391.7786691373 a.u.

                    Orbital Energies (a.u.)
 --------------------------------------------------------------

 Alpha MOs
 -- Occupied --
-92.0038 -91.9934 -26.3410 -20.6136 -20.5597 -11.4077 -11.3794 -11.2982
-11.2959 -11.2946 -11.2882 -11.2877 -11.2788 -11.2272  -9.0028  -8.9935
 -6.6836  -6.6830  -6.6825  -6.6746  -6.6739  -6.6727  -1.6582  -1.4660
 -1.3686  -1.2130  -1.1353  -1.0676  -1.0186  -0.9953  -0.9582  -0.9141
 -0.8633  -0.8050  -0.7889  -0.7591  -0.7300  -0.7230  -0.6942  -0.6834
 -0.6728  -0.6610  -0.6107  -0.5992  -0.5911  -0.5818  -0.5658  -0.5563
 -0.5398  -0.5300  -0.5071  -0.4888  -0.4734  -0.4716  -0.4659  -0.4565
 -0.3895  -0.3447  -0.2897

          Ground-State Mulliken Net Atomic Charges

     Atom                 Charge (a.u.)
  ----------------------------------------
      1 C                     0.048342
      2 S                     0.073354
      3 C                    -0.206833
      4 C                    -0.019506
      5 C                    -0.096683
      6 S                    -0.008859
      7 C                    -0.157570
      8 C                     0.387746
      9 F                    -0.207860
     10 C                     0.445333
     11 O                    -0.462786
     12 O                    -0.300853
     13 C                    -0.058671
     14 H                     0.121177
     15 H                     0.094778
     16 H                     0.094701
     17 C                    -0.374065
     18 H                     0.116695
     19 H                     0.150799
     20 H                     0.147992
     21 H                     0.212770
  ----------------------------------------
  Sum of atomic charges =     0.000000

                    Cartesian Multipole Moments
 -----------------------------------------------------------------
    Charge (ESU x 10^10)
                -0.0000
    Dipole Moment (Debye)
         X      -0.1695      Y       0.4964      Z       2.6677
       Tot       2.7188
    Quadrupole Moments (Debye-Ang)
        XX     -96.2656     XY       1.9094     YY     -81.0493
        XZ      -1.3015     YZ      -8.7125     ZZ     -97.8375

 Total job time:  54.06s(wall), 1914.47s(cpu)
        *  Thank you very much for using Q-Chem.  Have a nice day.  *
