 Q-Chem 5.4, Q-Chem, Inc., Pleasanton, CA (2021)
 Q-Chem 5.4.0 for Intel X86 EM64T Linux

User input:
--------------------------------------------------------------
$molecule
0 1
C	-0.001607	-0.991205	0.974584
S	-0.001107	-0.086405	2.482084
C	-0.001907	1.486095	1.693484
C	-0.000807	-0.086805	-0.093316
C	-0.003207	1.303395	0.288184
S	0.001993	-0.330305	-1.830916
C	-0.003507	1.421295	-2.079916
C	-0.006007	2.129695	-0.888016
F	-0.010807	3.466295	-0.844516
C	-0.001607	1.869395	-3.481516
O	0.006293	1.099495	-4.431916
O	-0.009107	3.219895	-3.594616
C	-0.003907	3.714995	-4.941616
H	-0.010907	4.815995	-4.858516
H	-0.897007	3.361695	-5.495616
H	0.899893	3.372095	-5.484716
C	-0.001607	-2.426405	0.974584
H	0.830493	-2.434405	1.663084
H	-0.541807	-3.104305	1.618784
H	0.597693	-2.957505	0.249984
H	-0.003307	2.410395	2.281084
$end

$rem
JOBTYPE		SP
EXCHANGE	HF
CORRELATION	pRIMP2
BASIS		cc-pvtz
METHOD		rimp2
AUX_BASIS	rimp2-cc-pvtz
SOLVENT_METHOD	PCM
PURECART	11111
SYMMETRY	false
MEM_TOTAL	110000
SCF_CONVERGENCE = 6
THRESH=10
GUI = 2
$end

$solvent
dielectric 4.90
$end
--------------------------------------------------------------

             Standard Nuclear Orientation (Angstroms)
    I     Atom           X                Y                Z
 ----------------------------------------------------------------
    1      C      -0.0016070000    -0.9912050000     0.9745840000
    2      S      -0.0011070000    -0.0864050000     2.4820840000
    3      C      -0.0019070000     1.4860950000     1.6934840000
    4      C      -0.0008070000    -0.0868050000    -0.0933160000
    5      C      -0.0032070000     1.3033950000     0.2881840000
    6      S       0.0019930000    -0.3303050000    -1.8309160000
    7      C      -0.0035070000     1.4212950000    -2.0799160000
    8      C      -0.0060070000     2.1296950000    -0.8880160000
    9      F      -0.0108070000     3.4662950000    -0.8445160000
   10      C      -0.0016070000     1.8693950000    -3.4815160000
   11      O       0.0062930000     1.0994950000    -4.4319160000
   12      O      -0.0091070000     3.2198950000    -3.5946160000
   13      C      -0.0039070000     3.7149950000    -4.9416160000
   14      H      -0.0109070000     4.8159950000    -4.8585160000
   15      H      -0.8970070000     3.3616950000    -5.4956160000
   16      H       0.8998930000     3.3720950000    -5.4847160000
   17      C      -0.0016070000    -2.4264050000     0.9745840000
   18      H       0.8304930000    -2.4344050000     1.6630840000
   19      H      -0.5418070000    -3.1043050000     1.6187840000
   20      H       0.5976930000    -2.9575050000     0.2499840000
   21      H      -0.0033070000     2.4103950000     2.2810840000
 ----------------------------------------------------------------

   11   -1389.2720608668      5.11e-07  Convergence criterion met
 Total energy in the final basis set =    -1389.2720608668
        RIMP2         total energy =     -1391.7759198968 a.u.

                    Orbital Energies (a.u.)
 --------------------------------------------------------------

 Alpha MOs
 -- Occupied --
-92.0058 -91.9903 -26.3399 -20.6133 -20.5594 -11.4072 -11.3777 -11.2988
-11.2958 -11.2941 -11.2879 -11.2824 -11.2782 -11.2285  -9.0048  -8.9905
 -6.6857  -6.6851  -6.6846  -6.6715  -6.6708  -6.6697  -1.6572  -1.4656
 -1.3682  -1.2114  -1.1364  -1.0657  -1.0186  -0.9955  -0.9580  -0.9130
 -0.8630  -0.8052  -0.7879  -0.7579  -0.7310  -0.7221  -0.6913  -0.6830
 -0.6724  -0.6600  -0.6103  -0.5986  -0.5917  -0.5797  -0.5639  -0.5564
 -0.5345  -0.5294  -0.5109  -0.4931  -0.4724  -0.4707  -0.4700  -0.4589
 -0.3869  -0.3455  -0.2842

          Ground-State Mulliken Net Atomic Charges

     Atom                 Charge (a.u.)
  ----------------------------------------
      1 C                     0.036943
      2 S                     0.070581
      3 C                    -0.213755
      4 C                    -0.006252
      5 C                    -0.099098
      6 S                    -0.011462
      7 C                    -0.157256
      8 C                     0.389695
      9 F                    -0.209107
     10 C                     0.445344
     11 O                    -0.462211
     12 O                    -0.300682
     13 C                    -0.058725
     14 H                     0.121060
     15 H                     0.094774
     16 H                     0.094636
     17 C                    -0.382889
     18 H                     0.130707
     19 H                     0.156197
     20 H                     0.147844
     21 H                     0.213657
  ----------------------------------------
  Sum of atomic charges =     0.000000

                    Cartesian Multipole Moments
 -----------------------------------------------------------------
    Charge (ESU x 10^10)
                -0.0000
    Dipole Moment (Debye)
         X       0.5483      Y       0.2612      Z       3.6980
       Tot       3.7476
    Quadrupole Moments (Debye-Ang)
        XX     -96.6953     XY      -1.3784     YY     -80.6984
        XZ       0.2505     YZ     -11.5940     ZZ     -95.7915

 Total job time:  56.30s(wall), 2009.89s(cpu)
        *  Thank you very much for using Q-Chem.  Have a nice day.  *
