 Q-Chem 5.4, Q-Chem, Inc., Pleasanton, CA (2021)
 Q-Chem 5.4.0 for Intel X86 EM64T Linux

User input:
--------------------------------------------------------------
$molecule
0 1
C	-0.715594	-1.191700	0.055737
S	0.537406	-2.424300	0.101337
C	1.862706	-1.268700	0.046937
C	-0.106894	0.067100	-0.001063
C	1.334406	0.045200	-0.004663
S	-0.777294	1.687200	-0.069163
C	0.856506	2.365700	-0.100063
C	1.840306	1.389500	-0.061063
F	3.145406	1.681300	-0.074763
C	0.939806	3.833300	-0.164263
O	-0.043294	4.560300	-0.198263
O	2.219106	4.280200	-0.181763
C	2.361606	5.706700	-0.247963
H	3.448506	5.901400	-0.254363
H	1.885306	6.192100	0.627737
H	1.889506	6.108400	-1.167263
C	-2.105194	-1.550000	0.077537
H	-2.119894	-1.590300	-1.001663
H	-2.551294	-2.532600	0.120837
H	-2.854494	-0.772600	0.054937
H	2.904606	-1.606400	0.057637
$end

$rem
JOBTYPE		SP
EXCHANGE	HF
CORRELATION	pRIMP2
BASIS		cc-pvtz
METHOD		rimp2
AUX_BASIS	rimp2-cc-pvtz
SOLVENT_METHOD	PCM
PURECART	11111
SYMMETRY	false
MEM_TOTAL	110000
SCF_CONVERGENCE = 6
THRESH=10
GUI = 2
$end

$solvent
dielectric 4.90
$end
--------------------------------------------------------------

             Standard Nuclear Orientation (Angstroms)
    I     Atom           X                Y                Z
 ----------------------------------------------------------------
    1      C      -0.7155940000    -1.1917000000     0.0557370000
    2      S       0.5374060000    -2.4243000000     0.1013370000
    3      C       1.8627060000    -1.2687000000     0.0469370000
    4      C      -0.1068940000     0.0671000000    -0.0010630000
    5      C       1.3344060000     0.0452000000    -0.0046630000
    6      S      -0.7772940000     1.6872000000    -0.0691630000
    7      C       0.8565060000     2.3657000000    -0.1000630000
    8      C       1.8403060000     1.3895000000    -0.0610630000
    9      F       3.1454060000     1.6813000000    -0.0747630000
   10      C       0.9398060000     3.8333000000    -0.1642630000
   11      O      -0.0432940000     4.5603000000    -0.1982630000
   12      O       2.2191060000     4.2802000000    -0.1817630000
   13      C       2.3616060000     5.7067000000    -0.2479630000
   14      H       3.4485060000     5.9014000000    -0.2543630000
   15      H       1.8853060000     6.1921000000     0.6277370000
   16      H       1.8895060000     6.1084000000    -1.1672630000
   17      C      -2.1051940000    -1.5500000000     0.0775370000
   18      H      -2.1198940000    -1.5903000000    -1.0016630000
   19      H      -2.5512940000    -2.5326000000     0.1208370000
   20      H      -2.8544940000    -0.7726000000     0.0549370000
   21      H       2.9046060000    -1.6064000000     0.0576370000
 ----------------------------------------------------------------

   11   -1389.2733605982      5.25e-07  Convergence criterion met
 Total energy in the final basis set =    -1389.2733605982
        RIMP2         total energy =     -1391.7769287826 a.u.

                    Orbital Energies (a.u.)
 --------------------------------------------------------------

 Alpha MOs
 -- Occupied --
-92.0055 -91.9898 -26.3396 -20.6133 -20.5594 -11.4072 -11.3772 -11.3046
-11.2943 -11.2903 -11.2879 -11.2794 -11.2781 -11.2323  -9.0044  -8.9900
 -6.6852  -6.6846  -6.6841  -6.6710  -6.6703  -6.6692  -1.6568  -1.4657
 -1.3682  -1.2110  -1.1361  -1.0671  -1.0177  -0.9959  -0.9576  -0.9134
 -0.8625  -0.8039  -0.7877  -0.7582  -0.7305  -0.7218  -0.6918  -0.6830
 -0.6724  -0.6597  -0.6121  -0.5951  -0.5902  -0.5848  -0.5610  -0.5593
 -0.5314  -0.5258  -0.5171  -0.5003  -0.4720  -0.4713  -0.4697  -0.4602
 -0.3838  -0.3451  -0.2799

          Ground-State Mulliken Net Atomic Charges

     Atom                 Charge (a.u.)
  ----------------------------------------
      1 C                     0.051981
      2 S                     0.075317
      3 C                    -0.231154
      4 C                    -0.027001
      5 C                    -0.094260
      6 S                    -0.018834
      7 C                    -0.157248
      8 C                     0.389303
      9 F                    -0.209323
     10 C                     0.445535
     11 O                    -0.462012
     12 O                    -0.300595
     13 C                    -0.058733
     14 H                     0.121098
     15 H                     0.094811
     16 H                     0.094618
     17 C                    -0.392986
     18 H                     0.149806
     19 H                     0.167314
     20 H                     0.150068
     21 H                     0.212297
  ----------------------------------------
  Sum of atomic charges =     0.000000

                    Cartesian Multipole Moments
 -----------------------------------------------------------------
    Charge (ESU x 10^10)
                -0.0000
    Dipole Moment (Debye)
         X       0.6828      Y      -3.2756      Z      -0.6031
       Tot       3.3999
    Quadrupole Moments (Debye-Ang)
        XX     -86.5591     XY      13.7448     YY     -90.0249
        XZ       1.0091     YZ       0.8792     ZZ     -97.1356

 Total job time:  64.58s(wall), 1938.80s(cpu)
        *  Thank you very much for using Q-Chem.  Have a nice day.  *
