 Q-Chem 5.4, Q-Chem, Inc., Pleasanton, CA (2021)
 Q-Chem 5.4.0 for Intel X86 EM64T Linux

User input:
--------------------------------------------------------------
$molecule
0 1
C	-0.178110	-0.975447	0.975276
S	-0.020510	-0.084547	2.482776
C	0.251790	1.464253	1.694176
C	-0.020310	-0.084847	-0.092624
C	0.218790	1.284553	0.288876
S	-0.059810	-0.325247	-1.830224
C	0.238890	1.400753	-2.079224
C	0.359490	2.098753	-0.887324
F	0.586890	3.415953	-0.843824
C	0.318590	1.841653	-3.480824
O	0.192790	1.082153	-4.431224
O	0.545790	3.172953	-3.593924
C	0.636890	3.659653	-4.940924
H	0.821190	4.745153	-4.857824
H	-0.304010	3.466753	-5.494924
H	1.467390	3.165053	-5.484024
C	-0.178110	-2.410647	0.975276
H	-1.240310	-2.418647	1.170176
H	-0.324410	-3.088547	0.147376
H	-0.008310	-2.941747	1.900176
H	0.410890	2.374753	2.281776
$end

$rem
JOBTYPE		SP
EXCHANGE	HF
CORRELATION	pRIMP2
BASIS		cc-pvtz
METHOD		rimp2
AUX_BASIS	rimp2-cc-pvtz
SOLVENT_METHOD	PCM
PURECART	11111
SYMMETRY	false
MEM_TOTAL	110000
SCF_CONVERGENCE = 6
THRESH=10
GUI = 2
$end

$solvent
dielectric 4.90
$end
--------------------------------------------------------------

             Standard Nuclear Orientation (Angstroms)
    I     Atom           X                Y                Z
 ----------------------------------------------------------------
    1      C      -0.1781100000    -0.9754470000     0.9752760000
    2      S      -0.0205100000    -0.0845470000     2.4827760000
    3      C       0.2517900000     1.4642530000     1.6941760000
    4      C      -0.0203100000    -0.0848470000    -0.0926240000
    5      C       0.2187900000     1.2845530000     0.2888760000
    6      S      -0.0598100000    -0.3252470000    -1.8302240000
    7      C       0.2388900000     1.4007530000    -2.0792240000
    8      C       0.3594900000     2.0987530000    -0.8873240000
    9      F       0.5868900000     3.4159530000    -0.8438240000
   10      C       0.3185900000     1.8416530000    -3.4808240000
   11      O       0.1927900000     1.0821530000    -4.4312240000
   12      O       0.5457900000     3.1729530000    -3.5939240000
   13      C       0.6368900000     3.6596530000    -4.9409240000
   14      H       0.8211900000     4.7451530000    -4.8578240000
   15      H      -0.3040100000     3.4667530000    -5.4949240000
   16      H       1.4673900000     3.1650530000    -5.4840240000
   17      C      -0.1781100000    -2.4106470000     0.9752760000
   18      H      -1.2403100000    -2.4186470000     1.1701760000
   19      H      -0.3244100000    -3.0885470000     0.1473760000
   20      H      -0.0083100000    -2.9417470000     1.9001760000
   21      H       0.4108900000     2.3747530000     2.2817760000
 ----------------------------------------------------------------

   11   -1389.2693653618      5.21e-07  Convergence criterion met
 Total energy in the final basis set =    -1389.2693653618
        RIMP2         total energy =     -1391.7735210441 a.u.

                    Orbital Energies (a.u.)
 --------------------------------------------------------------

 Alpha MOs
 -- Occupied --
-92.0064 -91.9897 -26.3395 -20.6132 -20.5594 -11.4071 -11.3771 -11.3018
-11.2941 -11.2921 -11.2879 -11.2795 -11.2779 -11.2303  -9.0052  -8.9899
 -6.6861  -6.6855  -6.6849  -6.6710  -6.6703  -6.6691  -1.6568  -1.4656
 -1.3682  -1.2108  -1.1362  -1.0661  -1.0180  -0.9957  -0.9576  -0.9132
 -0.8626  -0.8043  -0.7876  -0.7580  -0.7303  -0.7217  -0.6919  -0.6830
 -0.6724  -0.6598  -0.6128  -0.5943  -0.5882  -0.5823  -0.5617  -0.5582
 -0.5321  -0.5265  -0.5165  -0.4991  -0.4719  -0.4718  -0.4703  -0.4596
 -0.3834  -0.3451  -0.2801

          Ground-State Mulliken Net Atomic Charges

     Atom                 Charge (a.u.)
  ----------------------------------------
      1 C                     0.037569
      2 S                     0.077332
      3 C                    -0.227819
      4 C                    -0.019877
      5 C                    -0.096742
      6 S                    -0.015671
      7 C                    -0.157878
      8 C                     0.392382
      9 F                    -0.209428
     10 C                     0.445894
     11 O                    -0.461965
     12 O                    -0.300666
     13 C                    -0.058682
     14 H                     0.121046
     15 H                     0.094666
     16 H                     0.094701
     17 C                    -0.389041
     18 H                     0.144879
     19 H                     0.169765
     20 H                     0.146328
     21 H                     0.213209
  ----------------------------------------
  Sum of atomic charges =     0.000000

                    Cartesian Multipole Moments
 -----------------------------------------------------------------
    Charge (ESU x 10^10)
                -0.0000
    Dipole Moment (Debye)
         X      -0.4157      Y      -0.0289      Z       3.4490
       Tot       3.4741
    Quadrupole Moments (Debye-Ang)
        XX     -96.4337     XY       3.9206     YY     -80.7668
        XZ      -2.1109     YZ     -10.8622     ZZ     -96.1762

 Total job time:  57.24s(wall), 1960.98s(cpu)
        *  Thank you very much for using Q-Chem.  Have a nice day.  *
