 Q-Chem 5.4, Q-Chem, Inc., Pleasanton, CA (2021)
 Q-Chem 5.4.0 for Intel X86 EM64T Linux

User input:
--------------------------------------------------------------
$molecule
0 1
C	-0.001808	-0.991205	0.974943
S	-0.001308	-0.086405	2.482443
C	-0.002108	1.486095	1.693843
C	-0.001008	-0.086805	-0.092957
C	-0.003408	1.303395	0.288543
S	0.001792	-0.330305	-1.830557
C	-0.003708	1.421295	-2.079557
C	-0.006208	2.129695	-0.887657
F	-0.011008	3.466295	-0.844157
C	-0.001808	1.869395	-3.481157
O	0.006092	1.099495	-4.431557
O	-0.009308	3.219895	-3.594257
C	-0.004108	3.714995	-4.941257
H	-0.011108	4.815995	-4.858157
H	-0.897208	3.361695	-5.495257
H	0.899692	3.372095	-5.484357
C	-0.001808	-2.426405	0.974943
H	0.937192	-2.434405	1.508443
H	-0.421908	-3.104305	1.703143
H	0.462592	-2.957505	0.157243
H	-0.003508	2.410395	2.281443
$end

$rem
JOBTYPE		SP
EXCHANGE	HF
CORRELATION	pRIMP2
BASIS		cc-pvtz
METHOD		rimp2
AUX_BASIS	rimp2-cc-pvtz
SOLVENT_METHOD	PCM
PURECART	11111
SYMMETRY	false
MEM_TOTAL	110000
SCF_CONVERGENCE = 6
THRESH=10
GUI = 2
$end

$solvent
dielectric 4.90
$end
--------------------------------------------------------------

             Standard Nuclear Orientation (Angstroms)
    I     Atom           X                Y                Z
 ----------------------------------------------------------------
    1      C      -0.0018080000    -0.9912050000     0.9749430000
    2      S      -0.0013080000    -0.0864050000     2.4824430000
    3      C      -0.0021080000     1.4860950000     1.6938430000
    4      C      -0.0010080000    -0.0868050000    -0.0929570000
    5      C      -0.0034080000     1.3033950000     0.2885430000
    6      S       0.0017920000    -0.3303050000    -1.8305570000
    7      C      -0.0037080000     1.4212950000    -2.0795570000
    8      C      -0.0062080000     2.1296950000    -0.8876570000
    9      F      -0.0110080000     3.4662950000    -0.8441570000
   10      C      -0.0018080000     1.8693950000    -3.4811570000
   11      O       0.0060920000     1.0994950000    -4.4315570000
   12      O      -0.0093080000     3.2198950000    -3.5942570000
   13      C      -0.0041080000     3.7149950000    -4.9412570000
   14      H      -0.0111080000     4.8159950000    -4.8581570000
   15      H      -0.8972080000     3.3616950000    -5.4952570000
   16      H       0.8996920000     3.3720950000    -5.4843570000
   17      C      -0.0018080000    -2.4264050000     0.9749430000
   18      H       0.9371920000    -2.4344050000     1.5084430000
   19      H      -0.4219080000    -3.1043050000     1.7031430000
   20      H       0.4625920000    -2.9575050000     0.1572430000
   21      H      -0.0035080000     2.4103950000     2.2814430000
 ----------------------------------------------------------------

   11   -1389.2725793662      5.20e-07  Convergence criterion met
 Total energy in the final basis set =    -1389.2725793662
        RIMP2         total energy =     -1391.7761372051 a.u.

                    Orbital Energies (a.u.)
 --------------------------------------------------------------

 Alpha MOs
 -- Occupied --
-92.0054 -91.9898 -26.3397 -20.6133 -20.5594 -11.4071 -11.3775 -11.3009
-11.2941 -11.2940 -11.2879 -11.2813 -11.2781 -11.2298  -9.0045  -8.9900
 -6.6853  -6.6847  -6.6842  -6.6711  -6.6704  -6.6692  -1.6570  -1.4656
 -1.3682  -1.2112  -1.1363  -1.0660  -1.0183  -0.9956  -0.9578  -0.9131
 -0.8628  -0.8048  -0.7877  -0.7580  -0.7309  -0.7219  -0.6913  -0.6830
 -0.6724  -0.6599  -0.6110  -0.5974  -0.5916  -0.5807  -0.5632  -0.5567
 -0.5327  -0.5287  -0.5134  -0.4963  -0.4722  -0.4708  -0.4700  -0.4592
 -0.3857  -0.3455  -0.2823

          Ground-State Mulliken Net Atomic Charges

     Atom                 Charge (a.u.)
  ----------------------------------------
      1 C                     0.040774
      2 S                     0.069201
      3 C                    -0.218114
      4 C                    -0.011234
      5 C                    -0.098862
      6 S                    -0.013784
      7 C                    -0.157071
      8 C                     0.389766
      9 F                    -0.209227
     10 C                     0.445409
     11 O                    -0.462130
     12 O                    -0.300653
     13 C                    -0.058732
     14 H                     0.121072
     15 H                     0.094772
     16 H                     0.094624
     17 C                    -0.385504
     18 H                     0.137910
     19 H                     0.160101
     20 H                     0.148260
     21 H                     0.213419
  ----------------------------------------
  Sum of atomic charges =     0.000000

                    Cartesian Multipole Moments
 -----------------------------------------------------------------
    Charge (ESU x 10^10)
                -0.0000
    Dipole Moment (Debye)
         X       0.6295      Y       0.1137      Z       3.6285
       Tot       3.6845
    Quadrupole Moments (Debye-Ang)
        XX     -96.8281     XY      -1.5867     YY     -80.4884
        XZ       0.3745     YZ     -11.5775     ZZ     -95.9398

 Total job time:  59.08s(wall), 1983.61s(cpu)
        *  Thank you very much for using Q-Chem.  Have a nice day.  *
