 Q-Chem 5.4, Q-Chem, Inc., Pleasanton, CA (2021)
 Q-Chem 5.4.0 for Intel X86 EM64T Linux

User input:
--------------------------------------------------------------
$molecule
0 1
C	-0.898829	-0.471137	0.976498
S	-0.115029	-0.019137	2.483998
C	1.246471	0.767763	1.695398
C	-0.115129	-0.019537	-0.091402
C	1.087571	0.677463	0.290098
S	-0.324729	-0.143837	-1.829002
C	1.189571	0.736763	-2.078002
C	1.801671	1.093063	-0.886102
F	2.956871	1.765563	-0.842602
C	1.578471	0.959163	-3.479602
O	0.915771	0.567363	-4.430002
O	2.744371	1.640863	-3.592702
C	3.175671	1.883963	-4.939702
H	4.125771	2.440463	-4.856602
H	2.423171	2.480763	-5.493702
H	3.330671	0.929763	-5.482802
C	-0.898829	-1.906337	0.976498
H	-1.916229	-1.914337	0.614098
H	-0.611529	-2.584237	0.186398
H	-1.214229	-2.437437	1.862398
H	2.046171	1.231163	2.282998
$end

$rem
JOBTYPE		SP
EXCHANGE	HF
CORRELATION	pRIMP2
BASIS		cc-pvtz
METHOD		rimp2
AUX_BASIS	rimp2-cc-pvtz
SOLVENT_METHOD	PCM
PURECART	11111
SYMMETRY	false
MEM_TOTAL	110000
SCF_CONVERGENCE = 6
THRESH=10
GUI = 2
$end

$solvent
dielectric 4.90
$end
--------------------------------------------------------------

             Standard Nuclear Orientation (Angstroms)
    I     Atom           X                Y                Z
 ----------------------------------------------------------------
    1      C      -0.8988290000    -0.4711370000     0.9764980000
    2      S      -0.1150290000    -0.0191370000     2.4839980000
    3      C       1.2464710000     0.7677630000     1.6953980000
    4      C      -0.1151290000    -0.0195370000    -0.0914020000
    5      C       1.0875710000     0.6774630000     0.2900980000
    6      S      -0.3247290000    -0.1438370000    -1.8290020000
    7      C       1.1895710000     0.7367630000    -2.0780020000
    8      C       1.8016710000     1.0930630000    -0.8861020000
    9      F       2.9568710000     1.7655630000    -0.8426020000
   10      C       1.5784710000     0.9591630000    -3.4796020000
   11      O       0.9157710000     0.5673630000    -4.4300020000
   12      O       2.7443710000     1.6408630000    -3.5927020000
   13      C       3.1756710000     1.8839630000    -4.9397020000
   14      H       4.1257710000     2.4404630000    -4.8566020000
   15      H       2.4231710000     2.4807630000    -5.4937020000
   16      H       3.3306710000     0.9297630000    -5.4828020000
   17      C      -0.8988290000    -1.9063370000     0.9764980000
   18      H      -1.9162290000    -1.9143370000     0.6140980000
   19      H      -0.6115290000    -2.5842370000     0.1863980000
   20      H      -1.2142290000    -2.4374370000     1.8623980000
   21      H       2.0461710000     1.2311630000     2.2829980000
 ----------------------------------------------------------------

   11   -1389.1919821104      6.21e-07  Convergence criterion met
 Total energy in the final basis set =    -1389.1919821104
        RIMP2         total energy =     -1391.7097012525 a.u.

                    Orbital Energies (a.u.)
 --------------------------------------------------------------

 Alpha MOs
 -- Occupied --
-92.0041 -91.9989 -26.3438 -20.6142 -20.5601 -11.4086 -11.3836 -11.3233
-11.3078 -11.2946 -11.2887 -11.2812 -11.2552 -11.2115  -9.0038  -8.9990
 -6.6847  -6.6840  -6.6830  -6.6797  -6.6785  -6.6785  -1.6609  -1.4666
 -1.3693  -1.2217  -1.1416  -1.0688  -1.0220  -0.9910  -0.9603  -0.9078
 -0.8663  -0.8100  -0.7913  -0.7606  -0.7324  -0.7255  -0.6973  -0.6841
 -0.6736  -0.6616  -0.6137  -0.5971  -0.5931  -0.5714  -0.5624  -0.5579
 -0.5327  -0.5269  -0.5031  -0.5005  -0.4776  -0.4727  -0.4713  -0.4388
 -0.3715  -0.3436  -0.2884

          Ground-State Mulliken Net Atomic Charges

     Atom                 Charge (a.u.)
  ----------------------------------------
      1 C                    -0.133073
      2 S                     0.095440
      3 C                    -0.138264
      4 C                     0.072547
      5 C                    -0.117017
      6 S                     0.041457
      7 C                    -0.159456
      8 C                     0.393027
      9 F                    -0.205961
     10 C                     0.448753
     11 O                    -0.464503
     12 O                    -0.301564
     13 C                    -0.058264
     14 H                     0.121203
     15 H                     0.094972
     16 H                     0.094719
     17 C                    -0.408291
     18 H                     0.132095
     19 H                     0.144882
     20 H                     0.133285
     21 H                     0.214013
  ----------------------------------------
  Sum of atomic charges =     0.000000

                    Cartesian Multipole Moments
 -----------------------------------------------------------------
    Charge (ESU x 10^10)
                -0.0000
    Dipole Moment (Debye)
         X       2.6226      Y       0.5034      Z       2.5545
       Tot       3.6955
    Quadrupole Moments (Debye-Ang)
        XX     -89.1399     XY       6.2519     YY     -91.6024
        XZ      -5.9632     YZ      -4.2089     ZZ     -95.6590

 Total job time:  54.05s(wall), 1907.51s(cpu)
        *  Thank you very much for using Q-Chem.  Have a nice day.  *
