 Q-Chem 5.4, Q-Chem, Inc., Pleasanton, CA (2021)
 Q-Chem 5.4.0 for Intel X86 EM64T Linux

User input:
--------------------------------------------------------------
$molecule
0 1
C	-0.799170	-0.619704	0.974943
S	-0.105770	-0.038504	2.482443
C	1.098330	0.972896	1.693843
C	-0.105870	-0.038904	-0.092957
C	0.957630	0.856396	0.288543
S	-0.290570	-0.197704	-1.830557
C	1.047730	0.932496	-2.079557
C	1.588730	1.389696	-0.887657
F	2.609530	2.252596	-0.844157
C	1.392130	1.219096	-3.481157
O	0.807530	0.718096	-4.431557
O	2.421930	2.092896	-3.594257
C	2.804530	2.407096	-4.941257
H	3.643430	3.120196	-4.858157
H	1.959830	2.864196	-5.495257
H	3.122830	1.494396	-5.484357
C	-0.799170	-2.054904	0.974943
H	0.139830	-2.062904	1.508443
H	-1.219270	-2.732804	1.703143
H	-0.334770	-2.586004	0.157243
H	1.805530	1.568096	2.281443
$end

$rem
JOBTYPE		SP
EXCHANGE	HF
CORRELATION	pRIMP2
BASIS		cc-pvtz
METHOD		rimp2
AUX_BASIS	rimp2-cc-pvtz
SOLVENT_METHOD	PCM
PURECART	11111
SYMMETRY	false
MEM_TOTAL	110000
SCF_CONVERGENCE = 6
THRESH=10
GUI = 2
$end

$solvent
dielectric 4.90
$end
--------------------------------------------------------------

             Standard Nuclear Orientation (Angstroms)
    I     Atom           X                Y                Z
 ----------------------------------------------------------------
    1      C      -0.7991700000    -0.6197040000     0.9749430000
    2      S      -0.1057700000    -0.0385040000     2.4824430000
    3      C       1.0983300000     0.9728960000     1.6938430000
    4      C      -0.1058700000    -0.0389040000    -0.0929570000
    5      C       0.9576300000     0.8563960000     0.2885430000
    6      S      -0.2905700000    -0.1977040000    -1.8305570000
    7      C       1.0477300000     0.9324960000    -2.0795570000
    8      C       1.5887300000     1.3896960000    -0.8876570000
    9      F       2.6095300000     2.2525960000    -0.8441570000
   10      C       1.3921300000     1.2190960000    -3.4811570000
   11      O       0.8075300000     0.7180960000    -4.4315570000
   12      O       2.4219300000     2.0928960000    -3.5942570000
   13      C       2.8045300000     2.4070960000    -4.9412570000
   14      H       3.6434300000     3.1201960000    -4.8581570000
   15      H       1.9598300000     2.8641960000    -5.4952570000
   16      H       3.1228300000     1.4943960000    -5.4843570000
   17      C      -0.7991700000    -2.0549040000     0.9749430000
   18      H       0.1398300000    -2.0629040000     1.5084430000
   19      H      -1.2192700000    -2.7328040000     1.7031430000
   20      H      -0.3347700000    -2.5860040000     0.1572430000
   21      H       1.8055300000     1.5680960000     2.2814430000
 ----------------------------------------------------------------

   11   -1389.2201784259      5.69e-07  Convergence criterion met
 Total energy in the final basis set =    -1389.2201784259
        RIMP2         total energy =     -1391.7337233278 a.u.

                    Orbital Energies (a.u.)
 --------------------------------------------------------------

 Alpha MOs
 -- Occupied --
-91.9990 -91.9973 -26.3426 -20.6140 -20.5602 -11.4083 -11.3817 -11.3147
-11.2965 -11.2950 -11.2885 -11.2811 -11.2794 -11.2209  -8.9995  -8.9973
 -6.6803  -6.6794  -6.6791  -6.6783  -6.6776  -6.6765  -1.6598  -1.4665
 -1.3691  -1.2201  -1.1436  -1.0689  -1.0218  -0.9911  -0.9602  -0.9064
 -0.8658  -0.8096  -0.7904  -0.7597  -0.7336  -0.7245  -0.6954  -0.6839
 -0.6733  -0.6612  -0.6130  -0.6027  -0.5947  -0.5700  -0.5637  -0.5535
 -0.5338  -0.5286  -0.5154  -0.4994  -0.4755  -0.4724  -0.4714  -0.4435
 -0.3824  -0.3473  -0.2851

          Ground-State Mulliken Net Atomic Charges

     Atom                 Charge (a.u.)
  ----------------------------------------
      1 C                    -0.031555
      2 S                     0.075278
      3 C                    -0.169354
      4 C                    -0.002357
      5 C                    -0.098174
      6 S                     0.019727
      7 C                    -0.154030
      8 C                     0.389171
      9 F                    -0.207022
     10 C                     0.447086
     11 O                    -0.462659
     12 O                    -0.301249
     13 C                    -0.058390
     14 H                     0.121119
     15 H                     0.094979
     16 H                     0.094733
     17 C                    -0.378494
     18 H                     0.124004
     19 H                     0.144328
     20 H                     0.138238
     21 H                     0.214621
  ----------------------------------------
  Sum of atomic charges =     0.000000

                    Cartesian Multipole Moments
 -----------------------------------------------------------------
    Charge (ESU x 10^10)
                -0.0000
    Dipole Moment (Debye)
         X       2.8542      Y       0.3796      Z       3.1939
       Tot       4.3002
    Quadrupole Moments (Debye-Ang)
        XX     -92.0298     XY       4.7894     YY     -88.9763
        XZ      -5.4030     YZ      -6.9992     ZZ     -95.4509

 Total job time:  83.51s(wall), 2005.69s(cpu)
        *  Thank you very much for using Q-Chem.  Have a nice day.  *
