 Q-Chem 5.4, Q-Chem, Inc., Pleasanton, CA (2021)
 Q-Chem 5.4.0 for Intel X86 EM64T Linux

User input:
--------------------------------------------------------------
$molecule
0 1
C	-0.521710	-0.851940	0.977605
S	-0.068910	-0.068640	2.485105
C	0.716690	1.293660	1.696505
C	-0.068810	-0.069040	-0.090295
C	0.624190	1.136060	0.291205
S	-0.188110	-0.281440	-1.827895
C	0.682890	1.238360	-2.076895
C	1.034890	1.852960	-0.884995
F	1.699090	3.012960	-0.841495
C	0.908590	1.625360	-3.478495
O	0.530490	0.954660	-4.428895
O	1.577290	2.798760	-3.591595
C	1.829390	3.224860	-4.938595
H	2.373890	4.181860	-4.855495
H	0.879290	3.365460	-5.492595
H	2.440690	2.476060	-5.481695
C	-0.521710	-2.287140	0.977605
H	0.300790	-2.295140	0.277705
H	0.018890	-2.965040	1.621505
H	-1.131310	-2.818240	0.261505
H	1.177590	2.094760	2.284105
$end

$rem
JOBTYPE		SP
EXCHANGE	HF
CORRELATION	pRIMP2
BASIS		cc-pvtz
METHOD		rimp2
AUX_BASIS	rimp2-cc-pvtz
SOLVENT_METHOD	PCM
PURECART	11111
SYMMETRY	false
MEM_TOTAL	110000
SCF_CONVERGENCE = 6
THRESH=10
GUI = 2
$end

$solvent
dielectric 4.90
$end
--------------------------------------------------------------

             Standard Nuclear Orientation (Angstroms)
    I     Atom           X                Y                Z
 ----------------------------------------------------------------
    1      C      -0.5217100000    -0.8519400000     0.9776050000
    2      S      -0.0689100000    -0.0686400000     2.4851050000
    3      C       0.7166900000     1.2936600000     1.6965050000
    4      C      -0.0688100000    -0.0690400000    -0.0902950000
    5      C       0.6241900000     1.1360600000     0.2912050000
    6      S      -0.1881100000    -0.2814400000    -1.8278950000
    7      C       0.6828900000     1.2383600000    -2.0768950000
    8      C       1.0348900000     1.8529600000    -0.8849950000
    9      F       1.6990900000     3.0129600000    -0.8414950000
   10      C       0.9085900000     1.6253600000    -3.4784950000
   11      O       0.5304900000     0.9546600000    -4.4288950000
   12      O       1.5772900000     2.7987600000    -3.5915950000
   13      C       1.8293900000     3.2248600000    -4.9385950000
   14      H       2.3738900000     4.1818600000    -4.8554950000
   15      H       0.8792900000     3.3654600000    -5.4925950000
   16      H       2.4406900000     2.4760600000    -5.4816950000
   17      C      -0.5217100000    -2.2871400000     0.9776050000
   18      H       0.3007900000    -2.2951400000     0.2777050000
   19      H       0.0188900000    -2.9650400000     1.6215050000
   20      H      -1.1313100000    -2.8182400000     0.2615050000
   21      H       1.1775900000     2.0947600000     2.2841050000
 ----------------------------------------------------------------

   11   -1389.2532958288      4.90e-07  Convergence criterion met
 Total energy in the final basis set =    -1389.2532958288
        RIMP2         total energy =     -1391.7632745508 a.u.

                    Orbital Energies (a.u.)
 --------------------------------------------------------------

 Alpha MOs
 -- Occupied --
-92.0061 -91.9951 -26.3412 -20.6138 -20.5598 -11.4079 -11.3797 -11.2985
-11.2947 -11.2935 -11.2883 -11.2857 -11.2795 -11.2253  -9.0049  -8.9951
 -6.6857  -6.6850  -6.6846  -6.6762  -6.6755  -6.6744  -1.6584  -1.4662
 -1.3688  -1.2146  -1.1378  -1.0682  -1.0190  -0.9935  -0.9585  -0.9111
 -0.8638  -0.8053  -0.7892  -0.7593  -0.7301  -0.7232  -0.6941  -0.6836
 -0.6730  -0.6606  -0.6095  -0.5974  -0.5923  -0.5861  -0.5636  -0.5605
 -0.5306  -0.5273  -0.5085  -0.4925  -0.4730  -0.4718  -0.4669  -0.4620
 -0.3835  -0.3435  -0.2868

          Ground-State Mulliken Net Atomic Charges

     Atom                 Charge (a.u.)
  ----------------------------------------
      1 C                     0.007159
      2 S                     0.085738
      3 C                    -0.213383
      4 C                    -0.018640
      5 C                    -0.085757
      6 S                     0.000092
      7 C                    -0.154760
      8 C                     0.387494
      9 F                    -0.207734
     10 C                     0.447428
     11 O                    -0.462609
     12 O                    -0.301022
     13 C                    -0.058440
     14 H                     0.121170
     15 H                     0.094849
     16 H                     0.094655
     17 C                    -0.388194
     18 H                     0.133749
     19 H                     0.165839
     20 H                     0.140402
     21 H                     0.211965
  ----------------------------------------
  Sum of atomic charges =     0.000000

                    Cartesian Multipole Moments
 -----------------------------------------------------------------
    Charge (ESU x 10^10)
                -0.0000
    Dipole Moment (Debye)
         X       1.6209      Y       0.3200      Z       2.7613
       Tot       3.2179
    Quadrupole Moments (Debye-Ang)
        XX     -94.7280     XY       3.6693     YY     -84.3796
        XZ      -3.1414     YZ      -8.0758     ZZ     -96.9998

 Total job time:  60.00s(wall), 2048.11s(cpu)
        *  Thank you very much for using Q-Chem.  Have a nice day.  *
