 Q-Chem 5.4, Q-Chem, Inc., Pleasanton, CA (2021)
 Q-Chem 5.4.0 for Intel X86 EM64T Linux

User input:
--------------------------------------------------------------
$molecule
0 1
C	-0.091685	-0.987267	0.977865
S	-0.012385	-0.085967	2.485365
C	0.123915	1.480633	1.696765
C	-0.012085	-0.086367	-0.090035
C	0.106715	1.298733	0.291465
S	-0.030485	-0.329267	-1.827635
C	0.116615	1.416233	-2.076635
C	0.175915	2.122133	-0.884735
F	0.287615	3.454033	-0.841235
C	0.157615	1.862433	-3.478235
O	0.098415	1.094833	-4.428635
O	0.267815	3.208433	-3.591335
C	0.316215	3.701233	-4.938335
H	0.405215	4.798633	-4.855235
H	-0.604285	3.427033	-5.492335
H	1.186715	3.280833	-5.481435
C	-0.091685	-2.422467	0.977865
H	0.596815	-2.430467	0.145765
H	0.552515	-3.100367	1.518065
H	-0.816285	-2.953567	0.378565
H	0.203115	2.401533	2.284365
$end

$rem
JOBTYPE		SP
EXCHANGE	HF
CORRELATION	pRIMP2
BASIS		cc-pvtz
METHOD		rimp2
AUX_BASIS	rimp2-cc-pvtz
SOLVENT_METHOD	PCM
PURECART	11111
SYMMETRY	false
MEM_TOTAL	110000
SCF_CONVERGENCE = 6
THRESH=10
GUI = 2
$end

$solvent
dielectric 4.90
$end
--------------------------------------------------------------

             Standard Nuclear Orientation (Angstroms)
    I     Atom           X                Y                Z
 ----------------------------------------------------------------
    1      C      -0.0916850000    -0.9872670000     0.9778650000
    2      S      -0.0123850000    -0.0859670000     2.4853650000
    3      C       0.1239150000     1.4806330000     1.6967650000
    4      C      -0.0120850000    -0.0863670000    -0.0900350000
    5      C       0.1067150000     1.2987330000     0.2914650000
    6      S      -0.0304850000    -0.3292670000    -1.8276350000
    7      C       0.1166150000     1.4162330000    -2.0766350000
    8      C       0.1759150000     2.1221330000    -0.8847350000
    9      F       0.2876150000     3.4540330000    -0.8412350000
   10      C       0.1576150000     1.8624330000    -3.4782350000
   11      O       0.0984150000     1.0948330000    -4.4286350000
   12      O       0.2678150000     3.2084330000    -3.5913350000
   13      C       0.3162150000     3.7012330000    -4.9383350000
   14      H       0.4052150000     4.7986330000    -4.8552350000
   15      H      -0.6042850000     3.4270330000    -5.4923350000
   16      H       1.1867150000     3.2808330000    -5.4814350000
   17      C      -0.0916850000    -2.4224670000     0.9778650000
   18      H       0.5968150000    -2.4304670000     0.1457650000
   19      H       0.5525150000    -3.1003670000     1.5180650000
   20      H      -0.8162850000    -2.9535670000     0.3785650000
   21      H       0.2031150000     2.4015330000     2.2843650000
 ----------------------------------------------------------------

   11   -1389.2725941937      4.81e-07  Convergence criterion met
 Total energy in the final basis set =    -1389.2725941937
        RIMP2         total energy =     -1391.7782508269 a.u.

                    Orbital Energies (a.u.)
 --------------------------------------------------------------

 Alpha MOs
 -- Occupied --
-92.0047 -91.9930 -26.3408 -20.6136 -20.5597 -11.4076 -11.3790 -11.2988
-11.2954 -11.2946 -11.2882 -11.2852 -11.2788 -11.2282  -9.0035  -8.9931
 -6.6843  -6.6837  -6.6833  -6.6742  -6.6734  -6.6723  -1.6580  -1.4660
 -1.3686  -1.2126  -1.1356  -1.0678  -1.0183  -0.9954  -0.9580  -0.9138
 -0.8631  -0.8046  -0.7887  -0.7590  -0.7300  -0.7228  -0.6935  -0.6834
 -0.6728  -0.6607  -0.6097  -0.5995  -0.5910  -0.5850  -0.5651  -0.5578
 -0.5366  -0.5299  -0.5072  -0.4907  -0.4731  -0.4715  -0.4653  -0.4606
 -0.3872  -0.3444  -0.2877

          Ground-State Mulliken Net Atomic Charges

     Atom                 Charge (a.u.)
  ----------------------------------------
      1 C                     0.050905
      2 S                     0.073979
      3 C                    -0.214128
      4 C                    -0.016624
      5 C                    -0.096462
      6 S                    -0.011480
      7 C                    -0.156748
      8 C                     0.386869
      9 F                    -0.208047
     10 C                     0.445829
     11 O                    -0.462653
     12 O                    -0.300794
     13 C                    -0.058670
     14 H                     0.121176
     15 H                     0.094813
     16 H                     0.094650
     17 C                    -0.385743
     18 H                     0.123934
     19 H                     0.164064
     20 H                     0.143013
     21 H                     0.212116
  ----------------------------------------
  Sum of atomic charges =     0.000000

                    Cartesian Multipole Moments
 -----------------------------------------------------------------
    Charge (ESU x 10^10)
                -0.0000
    Dipole Moment (Debye)
         X       0.5997      Y       0.3193      Z       2.7385
       Tot       2.8215
    Quadrupole Moments (Debye-Ang)
        XX     -96.5469     XY      -0.2482     YY     -80.8978
        XZ       0.1157     YZ      -9.2365     ZZ     -97.6513

 Total job time:  73.14s(wall), 3024.67s(cpu)
        *  Thank you very much for using Q-Chem.  Have a nice day.  *
