 Q-Chem 5.4, Q-Chem, Inc., Pleasanton, CA (2021)
 Q-Chem 5.4.0 for Intel X86 EM64T Linux

User input:
--------------------------------------------------------------
$molecule
0 1
C	-0.091732	-0.987267	0.973997
S	-0.012432	-0.085967	2.481497
C	0.123868	1.480633	1.692897
C	-0.012132	-0.086367	-0.093903
C	0.106668	1.298733	0.287597
S	-0.030532	-0.329267	-1.831503
C	0.116568	1.416233	-2.080503
C	0.175868	2.122133	-0.888603
F	0.287568	3.454033	-0.845103
C	0.157568	1.862433	-3.482103
O	0.098368	1.094833	-4.432503
O	0.267768	3.208433	-3.595203
C	0.316168	3.701233	-4.942203
H	0.405168	4.798633	-4.859103
H	-0.604332	3.427033	-5.496203
H	1.186668	3.280833	-5.485303
C	-0.091732	-2.422467	0.973997
H	0.454668	-2.430467	1.905497
H	-0.819632	-3.100367	1.394597
H	0.719268	-2.953567	0.498097
H	0.203068	2.401533	2.280497
$end

$rem
JOBTYPE		SP
EXCHANGE	HF
CORRELATION	pRIMP2
BASIS		cc-pvtz
METHOD		rimp2
AUX_BASIS	rimp2-cc-pvtz
SOLVENT_METHOD	PCM
PURECART	11111
SYMMETRY	false
MEM_TOTAL	110000
SCF_CONVERGENCE = 6
THRESH=10
GUI = 2
$end

$solvent
dielectric 4.90
$end
--------------------------------------------------------------

             Standard Nuclear Orientation (Angstroms)
    I     Atom           X                Y                Z
 ----------------------------------------------------------------
    1      C      -0.0917320000    -0.9872670000     0.9739970000
    2      S      -0.0124320000    -0.0859670000     2.4814970000
    3      C       0.1238680000     1.4806330000     1.6928970000
    4      C      -0.0121320000    -0.0863670000    -0.0939030000
    5      C       0.1066680000     1.2987330000     0.2875970000
    6      S      -0.0305320000    -0.3292670000    -1.8315030000
    7      C       0.1165680000     1.4162330000    -2.0805030000
    8      C       0.1758680000     2.1221330000    -0.8886030000
    9      F       0.2875680000     3.4540330000    -0.8451030000
   10      C       0.1575680000     1.8624330000    -3.4821030000
   11      O       0.0983680000     1.0948330000    -4.4325030000
   12      O       0.2677680000     3.2084330000    -3.5952030000
   13      C       0.3161680000     3.7012330000    -4.9422030000
   14      H       0.4051680000     4.7986330000    -4.8591030000
   15      H      -0.6043320000     3.4270330000    -5.4962030000
   16      H       1.1866680000     3.2808330000    -5.4853030000
   17      C      -0.0917320000    -2.4224670000     0.9739970000
   18      H       0.4546680000    -2.4304670000     1.9054970000
   19      H      -0.8196320000    -3.1003670000     1.3945970000
   20      H       0.7192680000    -2.9535670000     0.4980970000
   21      H       0.2030680000     2.4015330000     2.2804970000
 ----------------------------------------------------------------

   11   -1389.2705831351      4.96e-07  Convergence criterion met
 Total energy in the final basis set =    -1389.2705831351
        RIMP2         total energy =     -1391.7751866717 a.u.

                    Orbital Energies (a.u.)
 --------------------------------------------------------------

 Alpha MOs
 -- Occupied --
-92.0069 -91.9913 -26.3402 -20.6133 -20.5594 -11.4072 -11.3782 -11.2986
-11.2949 -11.2941 -11.2880 -11.2844 -11.2784 -11.2264  -9.0058  -8.9915
 -6.6866  -6.6860  -6.6855  -6.6725  -6.6718  -6.6707  -1.6575  -1.4657
 -1.3683  -1.2120  -1.1368  -1.0651  -1.0194  -0.9952  -0.9584  -0.9126
 -0.8635  -0.8062  -0.7882  -0.7579  -0.7313  -0.7224  -0.6913  -0.6830
 -0.6725  -0.6604  -0.6084  -0.6013  -0.5920  -0.5773  -0.5654  -0.5562
 -0.5386  -0.5298  -0.5083  -0.4855  -0.4731  -0.4709  -0.4692  -0.4579
 -0.3897  -0.3454  -0.2883

          Ground-State Mulliken Net Atomic Charges

     Atom                 Charge (a.u.)
  ----------------------------------------
      1 C                     0.037736
      2 S                     0.075276
      3 C                    -0.210698
      4 C                    -0.009377
      5 C                    -0.093917
      6 S                    -0.006237
      7 C                    -0.157817
      8 C                     0.389815
      9 F                    -0.208764
     10 C                     0.445428
     11 O                    -0.462283
     12 O                    -0.300787
     13 C                    -0.058693
     14 H                     0.121049
     15 H                     0.094801
     16 H                     0.094634
     17 C                    -0.378787
     18 H                     0.119319
     19 H                     0.150138
     20 H                     0.145015
     21 H                     0.214151
  ----------------------------------------
  Sum of atomic charges =     0.000000

                    Cartesian Multipole Moments
 -----------------------------------------------------------------
    Charge (ESU x 10^10)
                -0.0000
    Dipole Moment (Debye)
         X       0.5411      Y       0.5235      Z       3.7919
       Tot       3.8659
    Quadrupole Moments (Debye-Ang)
        XX     -96.4075     XY       0.1411     YY     -81.2028
        XZ      -0.6875     YZ     -11.5092     ZZ     -95.5726

 Total job time:  54.05s(wall), 1966.15s(cpu)
        *  Thank you very much for using Q-Chem.  Have a nice day.  *
