 Q-Chem 5.4, Q-Chem, Inc., Pleasanton, CA (2021)
 Q-Chem 5.4.0 for Intel X86 EM64T Linux

User input:
--------------------------------------------------------------
$molecule
0 1
C	-0.795994	-0.619704	0.978043
S	-0.102594	-0.038504	2.485543
C	1.101506	0.972896	1.696943
C	-0.102694	-0.038904	-0.089857
C	0.960806	0.856396	0.291643
S	-0.287394	-0.197704	-1.827457
C	1.050906	0.932496	-2.076457
C	1.591906	1.389696	-0.884557
F	2.612706	2.252596	-0.841057
C	1.395306	1.219096	-3.478057
O	0.810706	0.718096	-4.428457
O	2.425106	2.092896	-3.591157
C	2.807706	2.407096	-4.938157
H	3.646606	3.120196	-4.855057
H	1.963006	2.864196	-5.492157
H	3.126006	1.494396	-5.481257
C	-0.795994	-2.054904	0.978043
H	-1.172394	-2.062904	-0.034257
H	-0.006094	-2.732804	0.690243
H	-1.677394	-2.586004	1.305943
H	1.808706	1.568096	2.284543
$end

$rem
JOBTYPE		SP
EXCHANGE	HF
CORRELATION	pRIMP2
BASIS		cc-pvtz
METHOD		rimp2
AUX_BASIS	rimp2-cc-pvtz
SOLVENT_METHOD	PCM
PURECART	11111
SYMMETRY	false
MEM_TOTAL	110000
SCF_CONVERGENCE = 6
THRESH=10
GUI = 2
$end

$solvent
dielectric 4.90
$end
--------------------------------------------------------------

             Standard Nuclear Orientation (Angstroms)
    I     Atom           X                Y                Z
 ----------------------------------------------------------------
    1      C      -0.7959940000    -0.6197040000     0.9780430000
    2      S      -0.1025940000    -0.0385040000     2.4855430000
    3      C       1.1015060000     0.9728960000     1.6969430000
    4      C      -0.1026940000    -0.0389040000    -0.0898570000
    5      C       0.9608060000     0.8563960000     0.2916430000
    6      S      -0.2873940000    -0.1977040000    -1.8274570000
    7      C       1.0509060000     0.9324960000    -2.0764570000
    8      C       1.5919060000     1.3896960000    -0.8845570000
    9      F       2.6127060000     2.2525960000    -0.8410570000
   10      C       1.3953060000     1.2190960000    -3.4780570000
   11      O       0.8107060000     0.7180960000    -4.4284570000
   12      O       2.4251060000     2.0928960000    -3.5911570000
   13      C       2.8077060000     2.4070960000    -4.9381570000
   14      H       3.6466060000     3.1201960000    -4.8550570000
   15      H       1.9630060000     2.8641960000    -5.4921570000
   16      H       3.1260060000     1.4943960000    -5.4812570000
   17      C      -0.7959940000    -2.0549040000     0.9780430000
   18      H      -1.1723940000    -2.0629040000    -0.0342570000
   19      H      -0.0060940000    -2.7328040000     0.6902430000
   20      H      -1.6773940000    -2.5860040000     1.3059430000
   21      H       1.8087060000     1.5680960000     2.2845430000
 ----------------------------------------------------------------

   11   -1389.2250715560      5.20e-07  Convergence criterion met
 Total energy in the final basis set =    -1389.2250715560
        RIMP2         total energy =     -1391.7392206839 a.u.

                    Orbital Energies (a.u.)
 --------------------------------------------------------------

 Alpha MOs
 -- Occupied --
-92.0018 -91.9993 -26.3435 -20.6143 -20.5603 -11.4087 -11.3831 -11.3188
-11.3043 -11.2952 -11.2888 -11.2812 -11.2666 -11.2173  -9.0017  -8.9993
 -6.6827  -6.6819  -6.6809  -6.6800  -6.6790  -6.6789  -1.6606  -1.4668
 -1.3694  -1.2202  -1.1397  -1.0701  -1.0211  -0.9916  -0.9598  -0.9101
 -0.8656  -0.8084  -0.7912  -0.7608  -0.7315  -0.7253  -0.6975  -0.6842
 -0.6736  -0.6621  -0.6101  -0.6022  -0.5928  -0.5808  -0.5628  -0.5593
 -0.5309  -0.5248  -0.5101  -0.4902  -0.4758  -0.4727  -0.4691  -0.4331
 -0.3881  -0.3448  -0.2979

          Ground-State Mulliken Net Atomic Charges

     Atom                 Charge (a.u.)
  ----------------------------------------
      1 C                    -0.090726
      2 S                     0.086700
      3 C                    -0.156564
      4 C                     0.040180
      5 C                    -0.108085
      6 S                     0.027390
      7 C                    -0.157723
      8 C                     0.394157
      9 F                    -0.206138
     10 C                     0.447798
     11 O                    -0.463751
     12 O                    -0.301442
     13 C                    -0.058338
     14 H                     0.121221
     15 H                     0.094955
     16 H                     0.094811
     17 C                    -0.355919
     18 H                     0.103573
     19 H                     0.146017
     20 H                     0.127538
     21 H                     0.214345
  ----------------------------------------
  Sum of atomic charges =     0.000000

                    Cartesian Multipole Moments
 -----------------------------------------------------------------
    Charge (ESU x 10^10)
                -0.0000
    Dipole Moment (Debye)
         X       2.3762      Y       0.8164      Z       2.2717
       Tot       3.3872
    Quadrupole Moments (Debye-Ang)
        XX     -90.5064     XY       6.0446     YY     -89.3256
        XZ      -5.1059     YZ      -4.5345     ZZ     -97.2047

 Total job time:  59.80s(wall), 2065.66s(cpu)
        *  Thank you very much for using Q-Chem.  Have a nice day.  *
