 Q-Chem 5.4, Q-Chem, Inc., Pleasanton, CA (2021)
 Q-Chem 5.4.0 for Intel X86 EM64T Linux

User input:
--------------------------------------------------------------
$molecule
0 1
C	-0.798708	-0.619704	0.974266
S	-0.105308	-0.038504	2.481766
C	1.098792	0.972896	1.693166
C	-0.105408	-0.038904	-0.093634
C	0.958092	0.856396	0.287866
S	-0.290108	-0.197704	-1.831234
C	1.048192	0.932496	-2.080234
C	1.589192	1.389696	-0.888334
F	2.609992	2.252596	-0.844834
C	1.392592	1.219096	-3.481834
O	0.807992	0.718096	-4.432234
O	2.422392	2.092896	-3.594934
C	2.804992	2.407096	-4.941934
H	3.643892	3.120196	-4.858834
H	1.960292	2.864196	-5.495934
H	3.123292	1.494396	-5.485034
C	-0.798708	-2.054904	0.974266
H	-0.098808	-2.062904	1.796766
H	-1.442608	-2.732804	1.514866
H	-0.082608	-2.586004	0.364666
H	1.805992	1.568096	2.280766
$end

$rem
JOBTYPE		SP
EXCHANGE	HF
CORRELATION	pRIMP2
BASIS		cc-pvtz
METHOD		rimp2
AUX_BASIS	rimp2-cc-pvtz
SOLVENT_METHOD	PCM
PURECART	11111
SYMMETRY	false
MEM_TOTAL	110000
SCF_CONVERGENCE = 6
THRESH=10
GUI = 2
$end

$solvent
dielectric 4.90
$end
--------------------------------------------------------------

             Standard Nuclear Orientation (Angstroms)
    I     Atom           X                Y                Z
 ----------------------------------------------------------------
    1      C      -0.7987080000    -0.6197040000     0.9742660000
    2      S      -0.1053080000    -0.0385040000     2.4817660000
    3      C       1.0987920000     0.9728960000     1.6931660000
    4      C      -0.1054080000    -0.0389040000    -0.0936340000
    5      C       0.9580920000     0.8563960000     0.2878660000
    6      S      -0.2901080000    -0.1977040000    -1.8312340000
    7      C       1.0481920000     0.9324960000    -2.0802340000
    8      C       1.5891920000     1.3896960000    -0.8883340000
    9      F       2.6099920000     2.2525960000    -0.8448340000
   10      C       1.3925920000     1.2190960000    -3.4818340000
   11      O       0.8079920000     0.7180960000    -4.4322340000
   12      O       2.4223920000     2.0928960000    -3.5949340000
   13      C       2.8049920000     2.4070960000    -4.9419340000
   14      H       3.6438920000     3.1201960000    -4.8588340000
   15      H       1.9602920000     2.8641960000    -5.4959340000
   16      H       3.1232920000     1.4943960000    -5.4850340000
   17      C      -0.7987080000    -2.0549040000     0.9742660000
   18      H      -0.0988080000    -2.0629040000     1.7967660000
   19      H      -1.4426080000    -2.7328040000     1.5148660000
   20      H      -0.0826080000    -2.5860040000     0.3646660000
   21      H       1.8059920000     1.5680960000     2.2807660000
 ----------------------------------------------------------------

   11   -1389.2150923774      5.53e-07  Convergence criterion met
 Total energy in the final basis set =    -1389.2150923774
        RIMP2         total energy =     -1391.7288403610 a.u.

                    Orbital Energies (a.u.)
 --------------------------------------------------------------

 Alpha MOs
 -- Occupied --
-91.9996 -91.9979 -26.3428 -20.6138 -20.5598 -11.4080 -11.3821 -11.3173
-11.2994 -11.2942 -11.2884 -11.2803 -11.2741 -11.2163  -9.0002  -8.9979
 -6.6809  -6.6799  -6.6797  -6.6789  -6.6781  -6.6771  -1.6600  -1.4662
 -1.3689  -1.2201  -1.1435  -1.0681  -1.0225  -0.9907  -0.9606  -0.9057
 -0.8662  -0.8106  -0.7905  -0.7594  -0.7337  -0.7246  -0.6950  -0.6837
 -0.6731  -0.6612  -0.6108  -0.6039  -0.5939  -0.5709  -0.5636  -0.5566
 -0.5316  -0.5283  -0.5133  -0.4950  -0.4766  -0.4722  -0.4712  -0.4392
 -0.3843  -0.3450  -0.2889

          Ground-State Mulliken Net Atomic Charges

     Atom                 Charge (a.u.)
  ----------------------------------------
      1 C                    -0.053611
      2 S                     0.078061
      3 C                    -0.160071
      4 C                     0.017691
      5 C                    -0.103089
      6 S                     0.023946
      7 C                    -0.155693
      8 C                     0.390032
      9 F                    -0.206838
     10 C                     0.447056
     11 O                    -0.463428
     12 O                    -0.301447
     13 C                    -0.058418
     14 H                     0.121038
     15 H                     0.094916
     16 H                     0.094696
     17 C                    -0.382058
     18 H                     0.126767
     19 H                     0.136821
     20 H                     0.138520
     21 H                     0.215110
  ----------------------------------------
  Sum of atomic charges =     0.000000

                    Cartesian Multipole Moments
 -----------------------------------------------------------------
    Charge (ESU x 10^10)
                -0.0000
    Dipole Moment (Debye)
         X       2.8801      Y       0.5780      Z       3.4258
       Tot       4.5128
    Quadrupole Moments (Debye-Ang)
        XX     -91.6838     XY       4.7742     YY     -89.3976
        XZ      -5.4355     YZ      -7.1541     ZZ     -95.0714

 Total job time:  58.98s(wall), 2038.26s(cpu)
        *  Thank you very much for using Q-Chem.  Have a nice day.  *
