 Q-Chem 5.4, Q-Chem, Inc., Pleasanton, CA (2021)
 Q-Chem 5.4.0 for Intel X86 EM64T Linux

User input:
--------------------------------------------------------------
$molecule
0 1
C	-0.899739	-0.471137	0.977832
S	-0.115939	-0.019137	2.485332
C	1.245561	0.767763	1.696732
C	-0.116039	-0.019537	-0.090068
C	1.086661	0.677463	0.291432
S	-0.325639	-0.143837	-1.827668
C	1.188661	0.736763	-2.076668
C	1.800761	1.093063	-0.884768
F	2.955961	1.765563	-0.841268
C	1.577561	0.959163	-3.478268
O	0.914861	0.567363	-4.428668
O	2.743461	1.640863	-3.591368
C	3.174761	1.883963	-4.938368
H	4.124861	2.440463	-4.855268
H	2.422261	2.480763	-5.492368
H	3.329761	0.929763	-5.481468
C	-0.899739	-1.906337	0.977832
H	-1.446139	-1.914337	0.046332
H	-0.171839	-2.584237	0.557232
H	-1.710739	-2.437437	1.453732
H	2.045261	1.231163	2.284332
$end

$rem
JOBTYPE		SP
EXCHANGE	HF
CORRELATION	pRIMP2
BASIS		cc-pvtz
METHOD		rimp2
AUX_BASIS	rimp2-cc-pvtz
SOLVENT_METHOD	PCM
PURECART	11111
SYMMETRY	false
MEM_TOTAL	110000
SCF_CONVERGENCE = 6
THRESH=10
GUI = 2
$end

$solvent
dielectric 4.90
$end
--------------------------------------------------------------

             Standard Nuclear Orientation (Angstroms)
    I     Atom           X                Y                Z
 ----------------------------------------------------------------
    1      C      -0.8997390000    -0.4711370000     0.9778320000
    2      S      -0.1159390000    -0.0191370000     2.4853320000
    3      C       1.2455610000     0.7677630000     1.6967320000
    4      C      -0.1160390000    -0.0195370000    -0.0900680000
    5      C       1.0866610000     0.6774630000     0.2914320000
    6      S      -0.3256390000    -0.1438370000    -1.8276680000
    7      C       1.1886610000     0.7367630000    -2.0766680000
    8      C       1.8007610000     1.0930630000    -0.8847680000
    9      F       2.9559610000     1.7655630000    -0.8412680000
   10      C       1.5775610000     0.9591630000    -3.4782680000
   11      O       0.9148610000     0.5673630000    -4.4286680000
   12      O       2.7434610000     1.6408630000    -3.5913680000
   13      C       3.1747610000     1.8839630000    -4.9383680000
   14      H       4.1248610000     2.4404630000    -4.8552680000
   15      H       2.4222610000     2.4807630000    -5.4923680000
   16      H       3.3297610000     0.9297630000    -5.4814680000
   17      C      -0.8997390000    -1.9063370000     0.9778320000
   18      H      -1.4461390000    -1.9143370000     0.0463320000
   19      H      -0.1718390000    -2.5842370000     0.5572320000
   20      H      -1.7107390000    -2.4374370000     1.4537320000
   21      H       2.0452610000     1.2311630000     2.2843320000
 ----------------------------------------------------------------

   11   -1389.2037560085      5.92e-07  Convergence criterion met
 Total energy in the final basis set =    -1389.2037560085
        RIMP2         total energy =     -1391.7198142492 a.u.

                    Orbital Energies (a.u.)
 --------------------------------------------------------------

 Alpha MOs
 -- Occupied --
-92.0054 -91.9985 -26.3444 -20.6146 -20.5606 -11.4091 -11.3845 -11.3263
-11.3106 -11.2955 -11.2890 -11.2824 -11.2549 -11.2149  -9.0051  -8.9987
 -6.6861  -6.6853  -6.6843  -6.6794  -6.6783  -6.6782  -1.6615  -1.4671
 -1.3698  -1.2236  -1.1423  -1.0717  -1.0223  -0.9912  -0.9605  -0.9080
 -0.8667  -0.8099  -0.7921  -0.7615  -0.7328  -0.7262  -0.6991  -0.6846
 -0.6739  -0.6627  -0.6121  -0.6027  -0.5934  -0.5780  -0.5622  -0.5600
 -0.5312  -0.5218  -0.5098  -0.4929  -0.4774  -0.4730  -0.4705  -0.4287
 -0.3819  -0.3448  -0.2995

          Ground-State Mulliken Net Atomic Charges

     Atom                 Charge (a.u.)
  ----------------------------------------
      1 C                    -0.140029
      2 S                     0.092298
      3 C                    -0.133506
      4 C                     0.080695
      5 C                    -0.124738
      6 S                     0.044143
      7 C                    -0.158050
      8 C                     0.396277
      9 F                    -0.205670
     10 C                     0.448095
     11 O                    -0.464106
     12 O                    -0.301541
     13 C                    -0.058237
     14 H                     0.121295
     15 H                     0.095071
     16 H                     0.094806
     17 C                    -0.373219
     18 H                     0.103452
     19 H                     0.138767
     20 H                     0.128850
     21 H                     0.215347
  ----------------------------------------
  Sum of atomic charges =     0.000000

                    Cartesian Multipole Moments
 -----------------------------------------------------------------
    Charge (ESU x 10^10)
                -0.0000
    Dipole Moment (Debye)
         X       3.0226      Y       0.6695      Z       2.1767
       Tot       3.7845
    Quadrupole Moments (Debye-Ang)
        XX     -89.1260     XY       5.7131     YY     -91.5867
        XZ      -5.3698     YZ      -3.4151     ZZ     -96.5956

 Total job time:  83.89s(wall), 2042.70s(cpu)
        *  Thank you very much for using Q-Chem.  Have a nice day.  *
