 Q-Chem 5.4, Q-Chem, Inc., Pleasanton, CA (2021)
 Q-Chem 5.4.0 for Intel X86 EM64T Linux

User input:
--------------------------------------------------------------
$molecule
0 1
C	-0.355382	-0.928548	0.978264
S	-0.045482	-0.078548	2.485764
C	0.491618	1.399452	1.697164
C	-0.045382	-0.078948	-0.089636
C	0.427918	1.228152	0.291864
S	-0.125982	-0.308748	-1.827236
C	0.467918	1.339152	-2.076236
C	0.707918	2.005552	-0.884336
F	1.160518	3.263252	-0.840836
C	0.622918	1.759552	-3.477836
O	0.367118	1.033352	-4.428236
O	1.077818	3.031152	-3.590936
C	1.252118	3.494552	-4.937936
H	1.622118	4.531652	-4.854836
H	0.292018	3.468052	-5.491936
H	1.984118	2.863252	-5.481036
C	-0.355382	-2.363748	0.978264
H	-0.362782	-2.371748	-0.101636
H	0.485318	-3.041648	0.977964
H	-1.295782	-2.894848	0.984964
H	0.806418	2.268452	2.284764
$end

$rem
JOBTYPE		SP
EXCHANGE	HF
CORRELATION	pRIMP2
BASIS		cc-pvtz
METHOD		rimp2
AUX_BASIS	rimp2-cc-pvtz
SOLVENT_METHOD	PCM
PURECART	11111
SYMMETRY	false
MEM_TOTAL	110000
SCF_CONVERGENCE = 6
THRESH=10
GUI = 2
$end

$solvent
dielectric 4.90
$end
--------------------------------------------------------------

             Standard Nuclear Orientation (Angstroms)
    I     Atom           X                Y                Z
 ----------------------------------------------------------------
    1      C      -0.3553820000    -0.9285480000     0.9782640000
    2      S      -0.0454820000    -0.0785480000     2.4857640000
    3      C       0.4916180000     1.3994520000     1.6971640000
    4      C      -0.0453820000    -0.0789480000    -0.0896360000
    5      C       0.4279180000     1.2281520000     0.2918640000
    6      S      -0.1259820000    -0.3087480000    -1.8272360000
    7      C       0.4679180000     1.3391520000    -2.0762360000
    8      C       0.7079180000     2.0055520000    -0.8843360000
    9      F       1.1605180000     3.2632520000    -0.8408360000
   10      C       0.6229180000     1.7595520000    -3.4778360000
   11      O       0.3671180000     1.0333520000    -4.4282360000
   12      O       1.0778180000     3.0311520000    -3.5909360000
   13      C       1.2521180000     3.4945520000    -4.9379360000
   14      H       1.6221180000     4.5316520000    -4.8548360000
   15      H       0.2920180000     3.4680520000    -5.4919360000
   16      H       1.9841180000     2.8632520000    -5.4810360000
   17      C      -0.3553820000    -2.3637480000     0.9782640000
   18      H      -0.3627820000    -2.3717480000    -0.1016360000
   19      H       0.4853180000    -3.0416480000     0.9779640000
   20      H      -1.2957820000    -2.8948480000     0.9849640000
   21      H       0.8064180000     2.2684520000     2.2847640000
 ----------------------------------------------------------------

   11   -1389.2649345479      4.58e-07  Convergence criterion met
 Total energy in the final basis set =    -1389.2649345479
        RIMP2         total energy =     -1391.7725387746 a.u.

                    Orbital Energies (a.u.)
 --------------------------------------------------------------

 Alpha MOs
 -- Occupied --
-92.0023 -91.9950 -26.3417 -20.6138 -20.5598 -11.4079 -11.3804 -11.3033
-11.2947 -11.2926 -11.2897 -11.2883 -11.2791 -11.2246  -9.0015  -8.9952
 -6.6823  -6.6816  -6.6813  -6.6763  -6.6756  -6.6744  -1.6588  -1.4662
 -1.3688  -1.2146  -1.1358  -1.0682  -1.0192  -0.9942  -0.9585  -0.9138
 -0.8638  -0.8058  -0.7894  -0.7595  -0.7301  -0.7236  -0.6950  -0.6836
 -0.6730  -0.6613  -0.6071  -0.6042  -0.5919  -0.5835  -0.5655  -0.5566
 -0.5368  -0.5302  -0.5075  -0.4872  -0.4736  -0.4720  -0.4654  -0.4482
 -0.3931  -0.3448  -0.2936

          Ground-State Mulliken Net Atomic Charges

     Atom                 Charge (a.u.)
  ----------------------------------------
      1 C                     0.013693
      2 S                     0.076968
      3 C                    -0.197322
      4 C                    -0.021243
      5 C                    -0.090348
      6 S                    -0.004205
      7 C                    -0.157366
      8 C                     0.390860
      9 F                    -0.207256
     10 C                     0.445344
     11 O                    -0.462986
     12 O                    -0.301179
     13 C                    -0.058447
     14 H                     0.121101
     15 H                     0.094814
     16 H                     0.094739
     17 C                    -0.350291
     18 H                     0.110890
     19 H                     0.153555
     20 H                     0.135792
     21 H                     0.212887
  ----------------------------------------
  Sum of atomic charges =     0.000000

                    Cartesian Multipole Moments
 -----------------------------------------------------------------
    Charge (ESU x 10^10)
                -0.0000
    Dipole Moment (Debye)
         X       0.8280      Y       0.7172      Z       2.5206
       Tot       2.7483
    Quadrupole Moments (Debye-Ang)
        XX     -95.0181     XY       3.5835     YY     -82.7530
        XZ      -2.5296     YZ      -7.6554     ZZ     -98.0165

 Total job time:  55.48s(wall), 1908.83s(cpu)
        *  Thank you very much for using Q-Chem.  Have a nice day.  *
