 Q-Chem 5.4, Q-Chem, Inc., Pleasanton, CA (2021)
 Q-Chem 5.4.0 for Intel X86 EM64T Linux

User input:
--------------------------------------------------------------
$molecule
0 1
C	-0.269661	-0.955820	0.973641
S	-0.035061	-0.082020	2.481141
C	0.371239	1.437180	1.692541
C	-0.034861	-0.082420	-0.094259
C	0.322739	1.260980	0.287241
S	-0.095161	-0.318420	-1.831859
C	0.352939	1.374980	-2.080859
C	0.533839	2.059780	-0.888959
F	0.875139	3.352180	-0.845459
C	0.470639	1.807280	-3.482459
O	0.279139	1.061580	-4.432859
O	0.813039	3.113680	-3.595559
C	0.946139	3.590580	-4.942559
H	1.224439	4.655880	-4.859459
H	-0.007961	3.480480	-5.496559
H	1.730439	3.025480	-5.485659
C	-0.269661	-2.391020	0.973641
H	-0.074761	-2.399020	2.035841
H	-1.097561	-3.068920	1.119941
H	0.655239	-2.922120	0.803841
H	0.609039	2.330280	2.280141
$end

$rem
JOBTYPE		SP
EXCHANGE	HF
CORRELATION	pRIMP2
BASIS		cc-pvtz
METHOD		rimp2
AUX_BASIS	rimp2-cc-pvtz
SOLVENT_METHOD	PCM
PURECART	11111
SYMMETRY	false
MEM_TOTAL	110000
SCF_CONVERGENCE = 6
THRESH=10
GUI = 2
$end

$solvent
dielectric 4.90
$end
--------------------------------------------------------------

             Standard Nuclear Orientation (Angstroms)
    I     Atom           X                Y                Z
 ----------------------------------------------------------------
    1      C      -0.2696610000    -0.9558200000     0.9736410000
    2      S      -0.0350610000    -0.0820200000     2.4811410000
    3      C       0.3712390000     1.4371800000     1.6925410000
    4      C      -0.0348610000    -0.0824200000    -0.0942590000
    5      C       0.3227390000     1.2609800000     0.2872410000
    6      S      -0.0951610000    -0.3184200000    -1.8318590000
    7      C       0.3529390000     1.3749800000    -2.0808590000
    8      C       0.5338390000     2.0597800000    -0.8889590000
    9      F       0.8751390000     3.3521800000    -0.8454590000
   10      C       0.4706390000     1.8072800000    -3.4824590000
   11      O       0.2791390000     1.0615800000    -4.4328590000
   12      O       0.8130390000     3.1136800000    -3.5955590000
   13      C       0.9461390000     3.5905800000    -4.9425590000
   14      H       1.2244390000     4.6558800000    -4.8594590000
   15      H      -0.0079610000     3.4804800000    -5.4965590000
   16      H       1.7304390000     3.0254800000    -5.4856590000
   17      C      -0.2696610000    -2.3910200000     0.9736410000
   18      H      -0.0747610000    -2.3990200000     2.0358410000
   19      H      -1.0975610000    -3.0689200000     1.1199410000
   20      H       0.6552390000    -2.9221200000     0.8038410000
   21      H       0.6090390000     2.3302800000     2.2801410000
 ----------------------------------------------------------------

   11   -1389.2659706413      4.82e-07  Convergence criterion met
 Total energy in the final basis set =    -1389.2659706413
        RIMP2         total energy =     -1391.7719207597 a.u.

                    Orbital Energies (a.u.)
 --------------------------------------------------------------

 Alpha MOs
 -- Occupied --
-92.0077 -91.9925 -26.3405 -20.6134 -20.5594 -11.4073 -11.3786 -11.3013
-11.2941 -11.2907 -11.2880 -11.2862 -11.2787 -11.2247  -9.0067  -8.9926
 -6.6874  -6.6868  -6.6863  -6.6736  -6.6729  -6.6718  -1.6578  -1.4657
 -1.3683  -1.2127  -1.1373  -1.0648  -1.0200  -0.9946  -0.9588  -0.9119
 -0.8640  -0.8069  -0.7885  -0.7580  -0.7314  -0.7227  -0.6914  -0.6831
 -0.6726  -0.6606  -0.6067  -0.6034  -0.5920  -0.5760  -0.5660  -0.5568
 -0.5394  -0.5299  -0.5077  -0.4802  -0.4739  -0.4712  -0.4679  -0.4569
 -0.3917  -0.3450  -0.2915

          Ground-State Mulliken Net Atomic Charges

     Atom                 Charge (a.u.)
  ----------------------------------------
      1 C                     0.030056
      2 S                     0.076357
      3 C                    -0.208805
      4 C                    -0.019547
      5 C                    -0.085435
      6 S                    -0.001228
      7 C                    -0.156741
      8 C                     0.389453
      9 F                    -0.208560
     10 C                     0.445549
     11 O                    -0.462363
     12 O                    -0.300944
     13 C                    -0.058487
     14 H                     0.120986
     15 H                     0.094766
     16 H                     0.094650
     17 C                    -0.367129
     18 H                     0.112829
     19 H                     0.149888
     20 H                     0.140002
     21 H                     0.214704
  ----------------------------------------
  Sum of atomic charges =     0.000000

                    Cartesian Multipole Moments
 -----------------------------------------------------------------
    Charge (ESU x 10^10)
                -0.0000
    Dipole Moment (Debye)
         X       0.7400      Y       0.6903      Z       3.8115
       Tot       3.9436
    Quadrupole Moments (Debye-Ang)
        XX     -95.6487     XY       2.5919     YY     -82.2744
        XZ      -2.2236     YZ     -11.0349     ZZ     -95.4191

 Total job time:  58.53s(wall), 1998.41s(cpu)
        *  Thank you very much for using Q-Chem.  Have a nice day.  *
