 Q-Chem 5.4, Q-Chem, Inc., Pleasanton, CA (2021)
 Q-Chem 5.4.0 for Intel X86 EM64T Linux

User input:
--------------------------------------------------------------
$molecule
0 1
C	-0.088202	-0.987267	0.976887
S	-0.008902	-0.085967	2.484387
C	0.127398	1.480633	1.695787
C	-0.008602	-0.086367	-0.091013
C	0.110198	1.298733	0.290487
S	-0.027002	-0.329267	-1.828613
C	0.120098	1.416233	-2.077613
C	0.179398	2.122133	-0.885713
F	0.291098	3.454033	-0.842213
C	0.161098	1.862433	-3.479213
O	0.101898	1.094833	-4.429613
O	0.271298	3.208433	-3.592313
C	0.319698	3.701233	-4.939313
H	0.408698	4.798633	-4.856213
H	-0.600802	3.427033	-5.493313
H	1.190198	3.280833	-5.482413
C	-0.088202	-2.422467	0.976887
H	-1.027202	-2.430467	0.443387
H	0.331898	-3.100367	0.248687
H	-0.552602	-2.953567	1.794587
H	0.206598	2.401533	2.283387
$end

$rem
JOBTYPE		SP
EXCHANGE	HF
CORRELATION	pRIMP2
BASIS		cc-pvtz
METHOD		rimp2
AUX_BASIS	rimp2-cc-pvtz
SOLVENT_METHOD	PCM
PURECART	11111
SYMMETRY	false
MEM_TOTAL	110000
SCF_CONVERGENCE = 6
THRESH=10
GUI = 2
$end

$solvent
dielectric 4.90
$end
--------------------------------------------------------------

             Standard Nuclear Orientation (Angstroms)
    I     Atom           X                Y                Z
 ----------------------------------------------------------------
    1      C      -0.0882020000    -0.9872670000     0.9768870000
    2      S      -0.0089020000    -0.0859670000     2.4843870000
    3      C       0.1273980000     1.4806330000     1.6957870000
    4      C      -0.0086020000    -0.0863670000    -0.0910130000
    5      C       0.1101980000     1.2987330000     0.2904870000
    6      S      -0.0270020000    -0.3292670000    -1.8286130000
    7      C       0.1200980000     1.4162330000    -2.0776130000
    8      C       0.1793980000     2.1221330000    -0.8857130000
    9      F       0.2910980000     3.4540330000    -0.8422130000
   10      C       0.1610980000     1.8624330000    -3.4792130000
   11      O       0.1018980000     1.0948330000    -4.4296130000
   12      O       0.2712980000     3.2084330000    -3.5923130000
   13      C       0.3196980000     3.7012330000    -4.9393130000
   14      H       0.4086980000     4.7986330000    -4.8562130000
   15      H      -0.6008020000     3.4270330000    -5.4933130000
   16      H       1.1901980000     3.2808330000    -5.4824130000
   17      C      -0.0882020000    -2.4224670000     0.9768870000
   18      H      -1.0272020000    -2.4304670000     0.4433870000
   19      H       0.3318980000    -3.1003670000     0.2486870000
   20      H      -0.5526020000    -2.9535670000     1.7945870000
   21      H       0.2065980000     2.4015330000     2.2833870000
 ----------------------------------------------------------------

   11   -1389.2725099312      5.01e-07  Convergence criterion met
 Total energy in the final basis set =    -1389.2725099312
        RIMP2         total energy =     -1391.7773655781 a.u.

                    Orbital Energies (a.u.)
 --------------------------------------------------------------

 Alpha MOs
 -- Occupied --
-92.0059 -91.9916 -26.3402 -20.6135 -20.5596 -11.4074 -11.3780 -11.3009
-11.2944 -11.2927 -11.2881 -11.2817 -11.2785 -11.2297  -9.0046  -8.9917
 -6.6854  -6.6848  -6.6843  -6.6727  -6.6720  -6.6709  -1.6574  -1.4658
 -1.3684  -1.2115  -1.1357  -1.0670  -1.0180  -0.9957  -0.9578  -0.9136
 -0.8629  -0.8042  -0.7882  -0.7586  -0.7300  -0.7223  -0.6931  -0.6832
 -0.6726  -0.6603  -0.6125  -0.5951  -0.5888  -0.5827  -0.5631  -0.5585
 -0.5364  -0.5294  -0.5085  -0.4966  -0.4730  -0.4711  -0.4696  -0.4601
 -0.3846  -0.3446  -0.2834

          Ground-State Mulliken Net Atomic Charges

     Atom                 Charge (a.u.)
  ----------------------------------------
      1 C                     0.055240
      2 S                     0.078492
      3 C                    -0.223267
      4 C                    -0.034314
      5 C                    -0.088255
      6 S                    -0.014709
      7 C                    -0.155694
      8 C                     0.385031
      9 F                    -0.208659
     10 C                     0.445298
     11 O                    -0.462395
     12 O                    -0.300678
     13 C                    -0.058683
     14 H                     0.121155
     15 H                     0.094727
     16 H                     0.094696
     17 C                    -0.385840
     18 H                     0.136381
     19 H                     0.162594
     20 H                     0.146906
     21 H                     0.211974
  ----------------------------------------
  Sum of atomic charges =     0.000000

                    Cartesian Multipole Moments
 -----------------------------------------------------------------
    Charge (ESU x 10^10)
                -0.0000
    Dipole Moment (Debye)
         X      -0.4719      Y       0.1107      Z       2.9540
       Tot       2.9935
    Quadrupole Moments (Debye-Ang)
        XX     -96.6362     XY       2.6518     YY     -80.6796
        XZ      -1.6270     YZ      -9.7542     ZZ     -97.1419

 Total job time:  58.84s(wall), 2234.70s(cpu)
        *  Thank you very much for using Q-Chem.  Have a nice day.  *
