 Q-Chem 5.4, Q-Chem, Inc., Pleasanton, CA (2021)
 Q-Chem 5.4.0 for Intel X86 EM64T Linux

User input:
--------------------------------------------------------------
$molecule
0 1
C	-0.522349	-0.851940	0.975331
S	-0.069549	-0.068640	2.482831
C	0.716051	1.293660	1.694231
C	-0.069449	-0.069040	-0.092569
C	0.623551	1.136060	0.288931
S	-0.188749	-0.281440	-1.830169
C	0.682251	1.238360	-2.079169
C	1.034251	1.852960	-0.887269
F	1.698451	3.012960	-0.843769
C	0.907951	1.625360	-3.480769
O	0.529851	0.954660	-4.431169
O	1.576651	2.798760	-3.593869
C	1.828751	3.224860	-4.940869
H	2.373251	4.181860	-4.857769
H	0.878651	3.365460	-5.494869
H	2.440051	2.476060	-5.483969
C	-0.522349	-2.287140	0.975331
H	0.495051	-2.295140	1.337731
H	-0.809649	-2.965040	1.765431
H	-0.206949	-2.818240	0.089431
H	1.176951	2.094760	2.281831
$end

$rem
JOBTYPE		SP
EXCHANGE	HF
CORRELATION	pRIMP2
BASIS		cc-pvtz
METHOD		rimp2
AUX_BASIS	rimp2-cc-pvtz
SOLVENT_METHOD	PCM
PURECART	11111
SYMMETRY	false
MEM_TOTAL	110000
SCF_CONVERGENCE = 6
THRESH=10
GUI = 2
$end

$solvent
dielectric 4.90
$end
--------------------------------------------------------------

             Standard Nuclear Orientation (Angstroms)
    I     Atom           X                Y                Z
 ----------------------------------------------------------------
    1      C      -0.5223490000    -0.8519400000     0.9753310000
    2      S      -0.0695490000    -0.0686400000     2.4828310000
    3      C       0.7160510000     1.2936600000     1.6942310000
    4      C      -0.0694490000    -0.0690400000    -0.0925690000
    5      C       0.6235510000     1.1360600000     0.2889310000
    6      S      -0.1887490000    -0.2814400000    -1.8301690000
    7      C       0.6822510000     1.2383600000    -2.0791690000
    8      C       1.0342510000     1.8529600000    -0.8872690000
    9      F       1.6984510000     3.0129600000    -0.8437690000
   10      C       0.9079510000     1.6253600000    -3.4807690000
   11      O       0.5298510000     0.9546600000    -4.4311690000
   12      O       1.5766510000     2.7987600000    -3.5938690000
   13      C       1.8287510000     3.2248600000    -4.9408690000
   14      H       2.3732510000     4.1818600000    -4.8577690000
   15      H       0.8786510000     3.3654600000    -5.4948690000
   16      H       2.4400510000     2.4760600000    -5.4839690000
   17      C      -0.5223490000    -2.2871400000     0.9753310000
   18      H       0.4950510000    -2.2951400000     1.3377310000
   19      H      -0.8096490000    -2.9650400000     1.7654310000
   20      H      -0.2069490000    -2.8182400000     0.0894310000
   21      H       1.1769510000     2.0947600000     2.2818310000
 ----------------------------------------------------------------

   11   -1389.2571795138      5.51e-07  Convergence criterion met
 Total energy in the final basis set =    -1389.2571795138
        RIMP2         total energy =     -1391.7641242183 a.u.

                    Orbital Energies (a.u.)
 --------------------------------------------------------------

 Alpha MOs
 -- Occupied --
-92.0027 -91.9918 -26.3405 -20.6136 -20.5597 -11.4076 -11.3786 -11.2988
-11.2968 -11.2945 -11.2881 -11.2846 -11.2791 -11.2289  -9.0022  -8.9920
 -6.6830  -6.6824  -6.6819  -6.6731  -6.6723  -6.6712  -1.6578  -1.4659
 -1.3685  -1.2140  -1.1389  -1.0672  -1.0191  -0.9936  -0.9584  -0.9106
 -0.8636  -0.8059  -0.7885  -0.7586  -0.7315  -0.7227  -0.6927  -0.6833
 -0.6727  -0.6601  -0.6122  -0.5992  -0.5935  -0.5741  -0.5636  -0.5558
 -0.5332  -0.5283  -0.5163  -0.4991  -0.4730  -0.4713  -0.4708  -0.4549
 -0.3845  -0.3465  -0.2814

          Ground-State Mulliken Net Atomic Charges

     Atom                 Charge (a.u.)
  ----------------------------------------
      1 C                     0.048739
      2 S                     0.073343
      3 C                    -0.215297
      4 C                    -0.068715
      5 C                    -0.074769
      6 S                    -0.004177
      7 C                    -0.153690
      8 C                     0.388436
      9 F                    -0.208360
     10 C                     0.446076
     11 O                    -0.461831
     12 O                    -0.300961
     13 C                    -0.058481
     14 H                     0.121107
     15 H                     0.094854
     16 H                     0.094629
     17 C                    -0.379491
     18 H                     0.143863
     19 H                     0.157366
     20 H                     0.144786
     21 H                     0.212574
  ----------------------------------------
  Sum of atomic charges =     0.000000

                    Cartesian Multipole Moments
 -----------------------------------------------------------------
    Charge (ESU x 10^10)
                -0.0000
    Dipole Moment (Debye)
         X       1.7371      Y       0.1027      Z       3.3850
       Tot       3.8061
    Quadrupole Moments (Debye-Ang)
        XX     -95.0734     XY       3.6131     YY     -83.8570
        XZ      -3.8715     YZ      -9.7411     ZZ     -96.0332

 Total job time:  66.93s(wall), 1997.78s(cpu)
        *  Thank you very much for using Q-Chem.  Have a nice day.  *
