 Q-Chem 5.4, Q-Chem, Inc., Pleasanton, CA (2021)
 Q-Chem 5.4.0 for Intel X86 EM64T Linux

User input:
--------------------------------------------------------------
$molecule
0 1
C	-0.438142	-0.893839	0.977832
S	-0.055342	-0.074039	2.485332
C	0.608558	1.351461	1.696732
C	-0.055242	-0.074439	-0.090068
C	0.530158	1.186461	0.291432
S	-0.155542	-0.296439	-1.827668
C	0.579658	1.293461	-2.076668
C	0.876858	1.936461	-0.884768
F	1.437358	3.149961	-0.841268
C	0.770758	1.698761	-3.478268
O	0.452658	0.997661	-4.428668
O	1.334758	2.925861	-3.591368
C	1.548758	3.372361	-4.938368
H	2.007658	4.373161	-4.855268
H	0.589958	3.429561	-5.492368
H	2.222958	2.679661	-5.481468
C	-0.438142	-2.329039	0.977832
H	-0.984542	-2.337039	0.046332
H	0.289758	-3.006939	0.557232
H	-1.249142	-2.860139	1.453732
H	0.997858	2.189761	2.284332
$end

$rem
JOBTYPE		SP
EXCHANGE	HF
CORRELATION	pRIMP2
BASIS		cc-pvtz
METHOD		rimp2
AUX_BASIS	rimp2-cc-pvtz
SOLVENT_METHOD	PCM
PURECART	11111
SYMMETRY	false
MEM_TOTAL	110000
SCF_CONVERGENCE = 6
THRESH=10
GUI = 2
$end

$solvent
dielectric 4.90
$end
--------------------------------------------------------------

             Standard Nuclear Orientation (Angstroms)
    I     Atom           X                Y                Z
 ----------------------------------------------------------------
    1      C      -0.4381420000    -0.8938390000     0.9778320000
    2      S      -0.0553420000    -0.0740390000     2.4853320000
    3      C       0.6085580000     1.3514610000     1.6967320000
    4      C      -0.0552420000    -0.0744390000    -0.0900680000
    5      C       0.5301580000     1.1864610000     0.2914320000
    6      S      -0.1555420000    -0.2964390000    -1.8276680000
    7      C       0.5796580000     1.2934610000    -2.0766680000
    8      C       0.8768580000     1.9364610000    -0.8847680000
    9      F       1.4373580000     3.1499610000    -0.8412680000
   10      C       0.7707580000     1.6987610000    -3.4782680000
   11      O       0.4526580000     0.9976610000    -4.4286680000
   12      O       1.3347580000     2.9258610000    -3.5913680000
   13      C       1.5487580000     3.3723610000    -4.9383680000
   14      H       2.0076580000     4.3731610000    -4.8552680000
   15      H       0.5899580000     3.4295610000    -5.4923680000
   16      H       2.2229580000     2.6796610000    -5.4814680000
   17      C      -0.4381420000    -2.3290390000     0.9778320000
   18      H      -0.9845420000    -2.3370390000     0.0463320000
   19      H       0.2897580000    -3.0069390000     0.5572320000
   20      H      -1.2491420000    -2.8601390000     1.4537320000
   21      H       0.9978580000     2.1897610000     2.2843320000
 ----------------------------------------------------------------

   11   -1389.2611292721      4.60e-07  Convergence criterion met
 Total energy in the final basis set =    -1389.2611292721
        RIMP2         total energy =     -1391.7694858511 a.u.

                    Orbital Energies (a.u.)
 --------------------------------------------------------------

 Alpha MOs
 -- Occupied --
-92.0020 -91.9953 -26.3416 -20.6138 -20.5598 -11.4079 -11.3802 -11.3033
-11.2946 -11.2923 -11.2883 -11.2883 -11.2794 -11.2242  -9.0013  -8.9954
 -6.6821  -6.6813  -6.6810  -6.6764  -6.6757  -6.6746  -1.6587  -1.4661
 -1.3688  -1.2144  -1.1359  -1.0675  -1.0191  -0.9943  -0.9585  -0.9135
 -0.8638  -0.8057  -0.7893  -0.7594  -0.7300  -0.7235  -0.6947  -0.6836
 -0.6730  -0.6612  -0.6103  -0.5994  -0.5917  -0.5810  -0.5643  -0.5565
 -0.5372  -0.5300  -0.5075  -0.4895  -0.4741  -0.4719  -0.4677  -0.4495
 -0.3891  -0.3449  -0.2910

          Ground-State Mulliken Net Atomic Charges

     Atom                 Charge (a.u.)
  ----------------------------------------
      1 C                     0.010659
      2 S                     0.078963
      3 C                    -0.197203
      4 C                    -0.026925
      5 C                    -0.090108
      6 S                     0.001904
      7 C                    -0.157720
      8 C                     0.389375
      9 F                    -0.207373
     10 C                     0.446451
     11 O                    -0.462835
     12 O                    -0.301121
     13 C                    -0.058477
     14 H                     0.121169
     15 H                     0.094807
     16 H                     0.094717
     17 C                    -0.362414
     18 H                     0.115477
     19 H                     0.155492
     20 H                     0.142504
     21 H                     0.212659
  ----------------------------------------
  Sum of atomic charges =     0.000000

                    Cartesian Multipole Moments
 -----------------------------------------------------------------
    Charge (ESU x 10^10)
                -0.0000
    Dipole Moment (Debye)
         X       0.6958      Y       0.6402      Z       2.5675
       Tot       2.7361
    Quadrupole Moments (Debye-Ang)
        XX     -94.3108     XY       5.2348     YY     -83.5075
        XZ      -3.7884     YZ      -7.5551     ZZ     -97.7222

 Total job time:  59.39s(wall), 2054.96s(cpu)
        *  Thank you very much for using Q-Chem.  Have a nice day.  *
