 Q-Chem 5.4, Q-Chem, Inc., Pleasanton, CA (2021)
 Q-Chem 5.4.0 for Intel X86 EM64T Linux

User input:
--------------------------------------------------------------
$molecule
0 1
C	-0.267998	-0.955820	0.978043
S	-0.033398	-0.082020	2.485543
C	0.372902	1.437180	1.696943
C	-0.033198	-0.082420	-0.089857
C	0.324402	1.260980	0.291643
S	-0.093498	-0.318420	-1.827457
C	0.354602	1.374980	-2.076457
C	0.535502	2.059780	-0.884557
F	0.876802	3.352180	-0.841057
C	0.472302	1.807280	-3.478057
O	0.280802	1.061580	-4.428457
O	0.814702	3.113680	-3.591157
C	0.947802	3.590580	-4.938157
H	1.226102	4.655880	-4.855057
H	-0.006298	3.480480	-5.492157
H	1.732102	3.025480	-5.481257
C	-0.267998	-2.391020	0.978043
H	-0.644398	-2.399020	-0.034257
H	0.521902	-3.068920	0.690243
H	-1.149398	-2.922120	1.305943
H	0.610702	2.330280	2.284543
$end

$rem
JOBTYPE		SP
EXCHANGE	HF
CORRELATION	pRIMP2
BASIS		cc-pvtz
METHOD		rimp2
AUX_BASIS	rimp2-cc-pvtz
SOLVENT_METHOD	PCM
PURECART	11111
SYMMETRY	false
MEM_TOTAL	110000
SCF_CONVERGENCE = 6
THRESH=10
GUI = 2
$end

$solvent
dielectric 4.90
$end
--------------------------------------------------------------

             Standard Nuclear Orientation (Angstroms)
    I     Atom           X                Y                Z
 ----------------------------------------------------------------
    1      C      -0.2679980000    -0.9558200000     0.9780430000
    2      S      -0.0333980000    -0.0820200000     2.4855430000
    3      C       0.3729020000     1.4371800000     1.6969430000
    4      C      -0.0331980000    -0.0824200000    -0.0898570000
    5      C       0.3244020000     1.2609800000     0.2916430000
    6      S      -0.0934980000    -0.3184200000    -1.8274570000
    7      C       0.3546020000     1.3749800000    -2.0764570000
    8      C       0.5355020000     2.0597800000    -0.8845570000
    9      F       0.8768020000     3.3521800000    -0.8410570000
   10      C       0.4723020000     1.8072800000    -3.4780570000
   11      O       0.2808020000     1.0615800000    -4.4284570000
   12      O       0.8147020000     3.1136800000    -3.5911570000
   13      C       0.9478020000     3.5905800000    -4.9381570000
   14      H       1.2261020000     4.6558800000    -4.8550570000
   15      H      -0.0062980000     3.4804800000    -5.4921570000
   16      H       1.7321020000     3.0254800000    -5.4812570000
   17      C      -0.2679980000    -2.3910200000     0.9780430000
   18      H      -0.6443980000    -2.3990200000    -0.0342570000
   19      H       0.5219020000    -3.0689200000     0.6902430000
   20      H      -1.1493980000    -2.9221200000     1.3059430000
   21      H       0.6107020000     2.3302800000     2.2845430000
 ----------------------------------------------------------------

   11   -1389.2690267649      4.59e-07  Convergence criterion met
 Total energy in the final basis set =    -1389.2690267649
        RIMP2         total energy =     -1391.7757260286 a.u.

                    Orbital Energies (a.u.)
 --------------------------------------------------------------

 Alpha MOs
 -- Occupied --
-92.0026 -91.9943 -26.3414 -20.6137 -20.5598 -11.4078 -11.3799 -11.3013
-11.2947 -11.2924 -11.2906 -11.2883 -11.2791 -11.2258  -9.0018  -8.9944
 -6.6826  -6.6819  -6.6815  -6.6755  -6.6748  -6.6737  -1.6585  -1.4661
 -1.3687  -1.2138  -1.1354  -1.0678  -1.0189  -0.9948  -0.9584  -0.9141
 -0.8636  -0.8054  -0.7891  -0.7593  -0.7301  -0.7233  -0.6946  -0.6835
 -0.6729  -0.6612  -0.6096  -0.6010  -0.5916  -0.5819  -0.5655  -0.5559
 -0.5393  -0.5301  -0.5072  -0.4880  -0.4737  -0.4718  -0.4660  -0.4512
 -0.3916  -0.3449  -0.2917

          Ground-State Mulliken Net Atomic Charges

     Atom                 Charge (a.u.)
  ----------------------------------------
      1 C                     0.030310
      2 S                     0.075600
      3 C                    -0.201469
      4 C                    -0.024154
      5 C                    -0.092842
      6 S                    -0.005413
      7 C                    -0.157667
      8 C                     0.389800
      9 F                    -0.207580
     10 C                     0.445455
     11 O                    -0.462826
     12 O                    -0.301014
     13 C                    -0.058483
     14 H                     0.121131
     15 H                     0.094776
     16 H                     0.094699
     17 C                    -0.359806
     18 H                     0.112155
     19 H                     0.150160
     20 H                     0.144264
     21 H                     0.212904
  ----------------------------------------
  Sum of atomic charges =     0.000000

                    Cartesian Multipole Moments
 -----------------------------------------------------------------
    Charge (ESU x 10^10)
                -0.0000
    Dipole Moment (Debye)
         X       0.3612      Y       0.6329      Z       2.5781
       Tot       2.6792
    Quadrupole Moments (Debye-Ang)
        XX     -95.4844     XY       3.4484     YY     -81.9702
        XZ      -2.4083     YZ      -8.0976     ZZ     -97.9646

 Total job time:  55.68s(wall), 1953.19s(cpu)
        *  Thank you very much for using Q-Chem.  Have a nice day.  *
