 Q-Chem 5.4, Q-Chem, Inc., Pleasanton, CA (2021)
 Q-Chem 5.4.0 for Intel X86 EM64T Linux

User input:
--------------------------------------------------------------
$molecule
0 1
C	-0.440897	-0.893839	0.973997
S	-0.058097	-0.074039	2.481497
C	0.605803	1.351461	1.692897
C	-0.057997	-0.074439	-0.093903
C	0.527403	1.186461	0.287597
S	-0.158297	-0.296439	-1.831503
C	0.576903	1.293461	-2.080503
C	0.874103	1.936461	-0.888603
F	1.434603	3.149961	-0.845103
C	0.768003	1.698761	-3.482103
O	0.449903	0.997661	-4.432503
O	1.332003	2.925861	-3.595203
C	1.546003	3.372361	-4.942203
H	2.004903	4.373161	-4.859103
H	0.587203	3.429561	-5.496203
H	2.220203	2.679661	-5.485303
C	-0.440897	-2.329039	0.973997
H	0.105503	-2.337039	1.905497
H	-1.168797	-3.006939	1.394597
H	0.370103	-2.860139	0.498097
H	0.995103	2.189761	2.280497
$end

$rem
JOBTYPE		SP
EXCHANGE	HF
CORRELATION	pRIMP2
BASIS		cc-pvtz
METHOD		rimp2
AUX_BASIS	rimp2-cc-pvtz
SOLVENT_METHOD	PCM
PURECART	11111
SYMMETRY	false
MEM_TOTAL	110000
SCF_CONVERGENCE = 6
THRESH=10
GUI = 2
$end

$solvent
dielectric 4.90
$end
--------------------------------------------------------------

             Standard Nuclear Orientation (Angstroms)
    I     Atom           X                Y                Z
 ----------------------------------------------------------------
    1      C      -0.4408970000    -0.8938390000     0.9739970000
    2      S      -0.0580970000    -0.0740390000     2.4814970000
    3      C       0.6058030000     1.3514610000     1.6928970000
    4      C      -0.0579970000    -0.0744390000    -0.0939030000
    5      C       0.5274030000     1.1864610000     0.2875970000
    6      S      -0.1582970000    -0.2964390000    -1.8315030000
    7      C       0.5769030000     1.2934610000    -2.0805030000
    8      C       0.8741030000     1.9364610000    -0.8886030000
    9      F       1.4346030000     3.1499610000    -0.8451030000
   10      C       0.7680030000     1.6987610000    -3.4821030000
   11      O       0.4499030000     0.9976610000    -4.4325030000
   12      O       1.3320030000     2.9258610000    -3.5952030000
   13      C       1.5460030000     3.3723610000    -4.9422030000
   14      H       2.0049030000     4.3731610000    -4.8591030000
   15      H       0.5872030000     3.4295610000    -5.4962030000
   16      H       2.2202030000     2.6796610000    -5.4853030000
   17      C      -0.4408970000    -2.3290390000     0.9739970000
   18      H       0.1055030000    -2.3370390000     1.9054970000
   19      H      -1.1687970000    -3.0069390000     1.3945970000
   20      H       0.3701030000    -2.8601390000     0.4980970000
   21      H       0.9951030000     2.1897610000     2.2804970000
 ----------------------------------------------------------------

   11   -1389.2580287718      5.07e-07  Convergence criterion met
 Total energy in the final basis set =    -1389.2580287718
        RIMP2         total energy =     -1391.7649431995 a.u.

                    Orbital Energies (a.u.)
 --------------------------------------------------------------

 Alpha MOs
 -- Occupied --
-92.0048 -91.9927 -26.3408 -20.6134 -20.5594 -11.4073 -11.3791 -11.3028
-11.2940 -11.2903 -11.2880 -11.2877 -11.2787 -11.2237  -9.0042  -8.9928
 -6.6849  -6.6843  -6.6838  -6.6739  -6.6732  -6.6721  -1.6580  -1.4658
 -1.3684  -1.2137  -1.1383  -1.0655  -1.0200  -0.9937  -0.9589  -0.9108
 -0.8641  -0.8072  -0.7887  -0.7581  -0.7316  -0.7229  -0.6920  -0.6831
 -0.6726  -0.6604  -0.6086  -0.6023  -0.5925  -0.5741  -0.5651  -0.5561
 -0.5380  -0.5298  -0.5089  -0.4872  -0.4743  -0.4712  -0.4702  -0.4517
 -0.3892  -0.3453  -0.2888

          Ground-State Mulliken Net Atomic Charges

     Atom                 Charge (a.u.)
  ----------------------------------------
      1 C                     0.028367
      2 S                     0.074808
      3 C                    -0.202248
      4 C                    -0.037951
      5 C                    -0.079524
      6 S                     0.001987
      7 C                    -0.156481
      8 C                     0.387916
      9 F                    -0.208219
     10 C                     0.446277
     11 O                    -0.462437
     12 O                    -0.301102
     13 C                    -0.058510
     14 H                     0.121023
     15 H                     0.094808
     16 H                     0.094643
     17 C                    -0.376773
     18 H                     0.125271
     19 H                     0.147794
     20 H                     0.146427
     21 H                     0.213924
  ----------------------------------------
  Sum of atomic charges =     0.000000

                    Cartesian Multipole Moments
 -----------------------------------------------------------------
    Charge (ESU x 10^10)
                -0.0000
    Dipole Moment (Debye)
         X       1.3775      Y       0.5782      Z       3.7336
       Tot       4.0214
    Quadrupole Moments (Debye-Ang)
        XX     -94.9528     XY       3.5362     YY     -83.6515
        XZ      -3.5405     YZ     -10.3689     ZZ     -95.4479

 Total job time:  86.03s(wall), 2915.99s(cpu)
        *  Thank you very much for using Q-Chem.  Have a nice day.  *
