 Q-Chem 5.4, Q-Chem, Inc., Pleasanton, CA (2021)
 Q-Chem 5.4.0 for Intel X86 EM64T Linux

User input:
--------------------------------------------------------------
$molecule
0 1
C	-0.668059	-0.747937	0.978188
S	-0.086159	-0.055137	2.485688
C	0.924141	1.149963	1.697088
C	-0.086159	-0.055537	-0.089712
C	0.805641	1.010863	0.291788
S	-0.240459	-0.244037	-1.827312
C	0.881241	1.101463	-2.076312
C	1.334641	1.645563	-0.884412
F	2.190141	2.672563	-0.840912
C	1.170641	1.443363	-3.477912
O	0.681941	0.848563	-4.428312
O	2.033041	2.482763	-3.591012
C	2.355241	2.858663	-4.938012
H	3.057641	3.706563	-4.854912
H	1.444041	3.162063	-5.492012
H	2.827241	2.015063	-5.481112
C	-0.668059	-2.183137	0.978188
H	-0.862959	-2.191137	-0.084012
H	0.159841	-2.861037	0.831888
H	-1.592959	-2.714237	1.147988
H	1.517141	1.858863	2.284688
$end

$rem
JOBTYPE		SP
EXCHANGE	HF
CORRELATION	pRIMP2
BASIS		cc-pvtz
METHOD		rimp2
AUX_BASIS	rimp2-cc-pvtz
SOLVENT_METHOD	PCM
PURECART	11111
SYMMETRY	false
MEM_TOTAL	110000
SCF_CONVERGENCE = 6
THRESH=10
GUI = 2
$end

$solvent
dielectric 4.90
$end
--------------------------------------------------------------

             Standard Nuclear Orientation (Angstroms)
    I     Atom           X                Y                Z
 ----------------------------------------------------------------
    1      C      -0.6680590000    -0.7479370000     0.9781880000
    2      S      -0.0861590000    -0.0551370000     2.4856880000
    3      C       0.9241410000     1.1499630000     1.6970880000
    4      C      -0.0861590000    -0.0555370000    -0.0897120000
    5      C       0.8056410000     1.0108630000     0.2917880000
    6      S      -0.2404590000    -0.2440370000    -1.8273120000
    7      C       0.8812410000     1.1014630000    -2.0763120000
    8      C       1.3346410000     1.6455630000    -0.8844120000
    9      F       2.1901410000     2.6725630000    -0.8409120000
   10      C       1.1706410000     1.4433630000    -3.4779120000
   11      O       0.6819410000     0.8485630000    -4.4283120000
   12      O       2.0330410000     2.4827630000    -3.5910120000
   13      C       2.3552410000     2.8586630000    -4.9380120000
   14      H       3.0576410000     3.7065630000    -4.8549120000
   15      H       1.4440410000     3.1620630000    -5.4920120000
   16      H       2.8272410000     2.0150630000    -5.4811120000
   17      C      -0.6680590000    -2.1831370000     0.9781880000
   18      H      -0.8629590000    -2.1911370000    -0.0840120000
   19      H       0.1598410000    -2.8610370000     0.8318880000
   20      H      -1.5929590000    -2.7142370000     1.1479880000
   21      H       1.5171410000     1.8588630000     2.2846880000
 ----------------------------------------------------------------

   11   -1389.2418329416      4.79e-07  Convergence criterion met
 Total energy in the final basis set =    -1389.2418329416
        RIMP2         total energy =     -1391.7537337748 a.u.

                    Orbital Energies (a.u.)
 --------------------------------------------------------------

 Alpha MOs
 -- Occupied --
-92.0006 -91.9989 -26.3427 -20.6141 -20.5601 -11.4083 -11.3820 -11.3123
-11.2992 -11.2949 -11.2886 -11.2802 -11.2764 -11.2199  -9.0002  -8.9989
 -6.6809  -6.6801  -6.6799  -6.6798  -6.6792  -6.6781  -1.6599  -1.4665
 -1.3692  -1.2177  -1.1379  -1.0691  -1.0203  -0.9924  -0.9592  -0.9117
 -0.8648  -0.8073  -0.7904  -0.7602  -0.7307  -0.7246  -0.6964  -0.6840
 -0.6733  -0.6617  -0.6085  -0.6027  -0.5923  -0.5829  -0.5637  -0.5585
 -0.5308  -0.5289  -0.5092  -0.4884  -0.4747  -0.4724  -0.4677  -0.4385
 -0.3913  -0.3446  -0.2965

          Ground-State Mulliken Net Atomic Charges

     Atom                 Charge (a.u.)
  ----------------------------------------
      1 C                    -0.050542
      2 S                     0.082932
      3 C                    -0.175452
      4 C                     0.007061
      5 C                    -0.093525
      6 S                     0.013236
      7 C                    -0.157350
      8 C                     0.392310
      9 F                    -0.206507
     10 C                     0.447210
     11 O                    -0.463361
     12 O                    -0.301421
     13 C                    -0.058413
     14 H                     0.121171
     15 H                     0.094946
     16 H                     0.094716
     17 C                    -0.345669
     18 H                     0.105481
     19 H                     0.152067
     20 H                     0.127494
     21 H                     0.213617
  ----------------------------------------
  Sum of atomic charges =     0.000000

                    Cartesian Multipole Moments
 -----------------------------------------------------------------
    Charge (ESU x 10^10)
                -0.0000
    Dipole Moment (Debye)
         X       1.8131      Y       0.8415      Z       2.3709
       Tot       3.1011
    Quadrupole Moments (Debye-Ang)
        XX     -92.1231     XY       5.7468     YY     -86.9343
        XZ      -4.4878     YZ      -5.6914     ZZ     -97.6091

 Total job time:  58.08s(wall), 2042.61s(cpu)
        *  Thank you very much for using Q-Chem.  Have a nice day.  *
