 Q-Chem 5.4, Q-Chem, Inc., Pleasanton, CA (2021)
 Q-Chem 5.4.0 for Intel X86 EM64T Linux

User input:
--------------------------------------------------------------
$molecule
0 1
C	-0.670616	-0.747937	0.977293
S	-0.088716	-0.055137	2.484793
C	0.921584	1.149963	1.696193
C	-0.088716	-0.055537	-0.090607
C	0.803084	1.010863	0.290893
S	-0.243016	-0.244037	-1.828207
C	0.878684	1.101463	-2.077207
C	1.332084	1.645563	-0.885307
F	2.187584	2.672563	-0.841807
C	1.168084	1.443363	-3.478807
O	0.679384	0.848563	-4.429207
O	2.030484	2.482763	-3.591907
C	2.352684	2.858663	-4.938907
H	3.055084	3.706563	-4.855807
H	1.441484	3.162063	-5.492907
H	2.824684	2.015063	-5.482007
C	-0.670616	-2.183137	0.977293
H	0.260884	-2.191137	0.430893
H	-0.250016	-2.861037	1.705193
H	-1.146516	-2.714237	0.166293
H	1.514584	1.858863	2.283793
$end

$rem
JOBTYPE		SP
EXCHANGE	HF
CORRELATION	pRIMP2
BASIS		cc-pvtz
METHOD		rimp2
AUX_BASIS	rimp2-cc-pvtz
SOLVENT_METHOD	PCM
PURECART	11111
SYMMETRY	false
MEM_TOTAL	110000
SCF_CONVERGENCE = 6
THRESH=10
GUI = 2
$end

$solvent
dielectric 4.90
$end
--------------------------------------------------------------

             Standard Nuclear Orientation (Angstroms)
    I     Atom           X                Y                Z
 ----------------------------------------------------------------
    1      C      -0.6706160000    -0.7479370000     0.9772930000
    2      S      -0.0887160000    -0.0551370000     2.4847930000
    3      C       0.9215840000     1.1499630000     1.6961930000
    4      C      -0.0887160000    -0.0555370000    -0.0906070000
    5      C       0.8030840000     1.0108630000     0.2908930000
    6      S      -0.2430160000    -0.2440370000    -1.8282070000
    7      C       0.8786840000     1.1014630000    -2.0772070000
    8      C       1.3320840000     1.6455630000    -0.8853070000
    9      F       2.1875840000     2.6725630000    -0.8418070000
   10      C       1.1680840000     1.4433630000    -3.4788070000
   11      O       0.6793840000     0.8485630000    -4.4292070000
   12      O       2.0304840000     2.4827630000    -3.5919070000
   13      C       2.3526840000     2.8586630000    -4.9389070000
   14      H       3.0550840000     3.7065630000    -4.8558070000
   15      H       1.4414840000     3.1620630000    -5.4929070000
   16      H       2.8246840000     2.0150630000    -5.4820070000
   17      C      -0.6706160000    -2.1831370000     0.9772930000
   18      H       0.2608840000    -2.1911370000     0.4308930000
   19      H      -0.2500160000    -2.8610370000     1.7051930000
   20      H      -1.1465160000    -2.7142370000     0.1662930000
   21      H       1.5145840000     1.8588630000     2.2837930000
 ----------------------------------------------------------------

   11   -1389.2384209143      4.93e-07  Convergence criterion met
 Total energy in the final basis set =    -1389.2384209143
        RIMP2         total energy =     -1391.7516051185 a.u.

                    Orbital Energies (a.u.)
 --------------------------------------------------------------

 Alpha MOs
 -- Occupied --
-92.0064 -91.9967 -26.3416 -20.6139 -20.5600 -11.4081 -11.3802 -11.3022
-11.2949 -11.2890 -11.2884 -11.2873 -11.2803 -11.2240  -9.0053  -8.9967
 -6.6861  -6.6854  -6.6850  -6.6777  -6.6770  -6.6759  -1.6588  -1.4663
 -1.3690  -1.2166  -1.1398  -1.0688  -1.0197  -0.9925  -0.9590  -0.9092
 -0.8644  -0.8062  -0.7897  -0.7596  -0.7307  -0.7236  -0.6947  -0.6837
 -0.6731  -0.6607  -0.6105  -0.5968  -0.5947  -0.5824  -0.5632  -0.5619
 -0.5307  -0.5232  -0.5092  -0.4957  -0.4731  -0.4720  -0.4698  -0.4599
 -0.3817  -0.3432  -0.2854

          Ground-State Mulliken Net Atomic Charges

     Atom                 Charge (a.u.)
  ----------------------------------------
      1 C                    -0.024654
      2 S                     0.092304
      3 C                    -0.206718
      4 C                    -0.001463
      5 C                    -0.090694
      6 S                     0.008526
      7 C                    -0.153108
      8 C                     0.388040
      9 F                    -0.207625
     10 C                     0.448121
     11 O                    -0.462686
     12 O                    -0.301097
     13 C                    -0.058429
     14 H                     0.121151
     15 H                     0.094963
     16 H                     0.094643
     17 C                    -0.386737
     18 H                     0.134398
     19 H                     0.163170
     20 H                     0.135445
     21 H                     0.212449
  ----------------------------------------
  Sum of atomic charges =     0.000000

                    Cartesian Multipole Moments
 -----------------------------------------------------------------
    Charge (ESU x 10^10)
                -0.0000
    Dipole Moment (Debye)
         X       2.1162      Y       0.2937      Z       2.7939
       Tot       3.5172
    Quadrupole Moments (Debye-Ang)
        XX     -93.5425     XY       4.4126     YY     -86.5951
        XZ      -4.1638     YZ      -7.2371     ZZ     -96.4472

 Total job time:  59.99s(wall), 2035.05s(cpu)
        *  Thank you very much for using Q-Chem.  Have a nice day.  *
