 Q-Chem 5.4, Q-Chem, Inc., Pleasanton, CA (2021)
 Q-Chem 5.4.0 for Intel X86 EM64T Linux

User input:
--------------------------------------------------------------
$molecule
0 1
C	-0.088226	-0.987267	0.974891
S	-0.008926	-0.085967	2.482391
C	0.127374	1.480633	1.693791
C	-0.008626	-0.086367	-0.093009
C	0.110174	1.298733	0.288491
S	-0.027026	-0.329267	-1.830609
C	0.120074	1.416233	-2.079609
C	0.179374	2.122133	-0.887709
F	0.291074	3.454033	-0.844209
C	0.161074	1.862433	-3.481209
O	0.101874	1.094833	-4.431609
O	0.271274	3.208433	-3.594309
C	0.319674	3.701233	-4.941309
H	0.408674	4.798633	-4.858209
H	-0.600826	3.427033	-5.495309
H	1.190174	3.280833	-5.484409
C	-0.088226	-2.422467	0.974891
H	-1.100526	-2.430467	1.351291
H	-0.376026	-3.100367	0.184991
H	0.239674	-2.953567	1.856291
H	0.206574	2.401533	2.281391
$end

$rem
JOBTYPE		SP
EXCHANGE	HF
CORRELATION	pRIMP2
BASIS		cc-pvtz
METHOD		rimp2
AUX_BASIS	rimp2-cc-pvtz
SOLVENT_METHOD	PCM
PURECART	11111
SYMMETRY	false
MEM_TOTAL	110000
SCF_CONVERGENCE = 6
THRESH=10
GUI = 2
$end

$solvent
dielectric 4.90
$end
--------------------------------------------------------------

             Standard Nuclear Orientation (Angstroms)
    I     Atom           X                Y                Z
 ----------------------------------------------------------------
    1      C      -0.0882260000    -0.9872670000     0.9748910000
    2      S      -0.0089260000    -0.0859670000     2.4823910000
    3      C       0.1273740000     1.4806330000     1.6937910000
    4      C      -0.0086260000    -0.0863670000    -0.0930090000
    5      C       0.1101740000     1.2987330000     0.2884910000
    6      S      -0.0270260000    -0.3292670000    -1.8306090000
    7      C       0.1200740000     1.4162330000    -2.0796090000
    8      C       0.1793740000     2.1221330000    -0.8877090000
    9      F       0.2910740000     3.4540330000    -0.8442090000
   10      C       0.1610740000     1.8624330000    -3.4812090000
   11      O       0.1018740000     1.0948330000    -4.4316090000
   12      O       0.2712740000     3.2084330000    -3.5943090000
   13      C       0.3196740000     3.7012330000    -4.9413090000
   14      H       0.4086740000     4.7986330000    -4.8582090000
   15      H      -0.6008260000     3.4270330000    -5.4953090000
   16      H       1.1901740000     3.2808330000    -5.4844090000
   17      C      -0.0882260000    -2.4224670000     0.9748910000
   18      H      -1.1005260000    -2.4304670000     1.3512910000
   19      H      -0.3760260000    -3.1003670000     0.1849910000
   20      H       0.2396740000    -2.9535670000     1.8562910000
   21      H       0.2065740000     2.4015330000     2.2813910000
 ----------------------------------------------------------------

   11   -1389.2714899199      5.26e-07  Convergence criterion met
 Total energy in the final basis set =    -1389.2714899199
        RIMP2         total energy =     -1391.7749953988 a.u.

                    Orbital Energies (a.u.)
 --------------------------------------------------------------

 Alpha MOs
 -- Occupied --
-92.0064 -91.9894 -26.3395 -20.6132 -20.5594 -11.4071 -11.3771 -11.3018
-11.2941 -11.2927 -11.2879 -11.2795 -11.2778 -11.2304  -9.0053  -8.9896
 -6.6862  -6.6856  -6.6850  -6.6707  -6.6700  -6.6689  -1.6568  -1.4656
 -1.3682  -1.2108  -1.1363  -1.0660  -1.0181  -0.9957  -0.9577  -0.9131
 -0.8626  -0.8044  -0.7876  -0.7579  -0.7306  -0.7217  -0.6917  -0.6829
 -0.6723  -0.6598  -0.6126  -0.5948  -0.5898  -0.5806  -0.5626  -0.5570
 -0.5328  -0.5279  -0.5157  -0.4976  -0.4721  -0.4714  -0.4703  -0.4597
 -0.3844  -0.3454  -0.2808

          Ground-State Mulliken Net Atomic Charges

     Atom                 Charge (a.u.)
  ----------------------------------------
      1 C                     0.038796
      2 S                     0.073415
      3 C                    -0.223529
      4 C                    -0.014600
      5 C                    -0.099061
      6 S                    -0.015856
      7 C                    -0.157656
      8 C                     0.391518
      9 F                    -0.209436
     10 C                     0.445517
     11 O                    -0.461976
     12 O                    -0.300616
     13 C                    -0.058740
     14 H                     0.121070
     15 H                     0.094695
     16 H                     0.094677
     17 C                    -0.389025
     18 H                     0.142124
     19 H                     0.169615
     20 H                     0.145476
     21 H                     0.213592
  ----------------------------------------
  Sum of atomic charges =     0.000000

                    Cartesian Multipole Moments
 -----------------------------------------------------------------
    Charge (ESU x 10^10)
                -0.0000
    Dipole Moment (Debye)
         X      -0.5367      Y       0.0137      Z       3.5673
       Tot       3.6075
    Quadrupole Moments (Debye-Ang)
        XX     -96.7314     XY       2.8645     YY     -80.4746
        XZ      -1.1848     YZ     -11.2261     ZZ     -96.0173

 Total job time:  55.33s(wall), 1939.45s(cpu)
        *  Thank you very much for using Q-Chem.  Have a nice day.  *
