 Q-Chem 5.4, Q-Chem, Inc., Pleasanton, CA (2021)
 Q-Chem 5.4.0 for Intel X86 EM64T Linux

User input:
--------------------------------------------------------------
$molecule
0 1
C	-0.092272	-0.987267	0.977293
S	-0.012972	-0.085967	2.484793
C	0.123328	1.480633	1.696193
C	-0.012672	-0.086367	-0.090607
C	0.106128	1.298733	0.290893
S	-0.031072	-0.329267	-1.828207
C	0.116028	1.416233	-2.077207
C	0.175328	2.122133	-0.885307
F	0.287028	3.454033	-0.841807
C	0.157028	1.862433	-3.478807
O	0.097828	1.094833	-4.429207
O	0.267228	3.208433	-3.591907
C	0.315628	3.701233	-4.938907
H	0.404628	4.798633	-4.855807
H	-0.604872	3.427033	-5.492907
H	1.186128	3.280833	-5.482007
C	-0.092272	-2.422467	0.977293
H	0.839228	-2.430467	0.430893
H	0.328328	-3.100367	1.705193
H	-0.568172	-2.953567	0.166293
H	0.202528	2.401533	2.283793
$end

$rem
JOBTYPE		SP
EXCHANGE	HF
CORRELATION	pRIMP2
BASIS		cc-pvtz
METHOD		rimp2
AUX_BASIS	rimp2-cc-pvtz
SOLVENT_METHOD	PCM
PURECART	11111
SYMMETRY	false
MEM_TOTAL	110000
SCF_CONVERGENCE = 6
THRESH=10
GUI = 2
$end

$solvent
dielectric 4.90
$end
--------------------------------------------------------------

             Standard Nuclear Orientation (Angstroms)
    I     Atom           X                Y                Z
 ----------------------------------------------------------------
    1      C      -0.0922720000    -0.9872670000     0.9772930000
    2      S      -0.0129720000    -0.0859670000     2.4847930000
    3      C       0.1233280000     1.4806330000     1.6961930000
    4      C      -0.0126720000    -0.0863670000    -0.0906070000
    5      C       0.1061280000     1.2987330000     0.2908930000
    6      S      -0.0310720000    -0.3292670000    -1.8282070000
    7      C       0.1160280000     1.4162330000    -2.0772070000
    8      C       0.1753280000     2.1221330000    -0.8853070000
    9      F       0.2870280000     3.4540330000    -0.8418070000
   10      C       0.1570280000     1.8624330000    -3.4788070000
   11      O       0.0978280000     1.0948330000    -4.4292070000
   12      O       0.2672280000     3.2084330000    -3.5919070000
   13      C       0.3156280000     3.7012330000    -4.9389070000
   14      H       0.4046280000     4.7986330000    -4.8558070000
   15      H      -0.6048720000     3.4270330000    -5.4929070000
   16      H       1.1861280000     3.2808330000    -5.4820070000
   17      C      -0.0922720000    -2.4224670000     0.9772930000
   18      H       0.8392280000    -2.4304670000     0.4308930000
   19      H       0.3283280000    -3.1003670000     1.7051930000
   20      H      -0.5681720000    -2.9535670000     0.1662930000
   21      H       0.2025280000     2.4015330000     2.2837930000
 ----------------------------------------------------------------

   11   -1389.2729751861      5.05e-07  Convergence criterion met
 Total energy in the final basis set =    -1389.2729751861
        RIMP2         total energy =     -1391.7778433185 a.u.

                    Orbital Energies (a.u.)
 --------------------------------------------------------------

 Alpha MOs
 -- Occupied --
-92.0057 -91.9916 -26.3402 -20.6135 -20.5596 -11.4075 -11.3781 -11.3025
-11.2945 -11.2917 -11.2881 -11.2814 -11.2786 -11.2305  -9.0044  -8.9917
 -6.6852  -6.6846  -6.6841  -6.6728  -6.6721  -6.6710  -1.6574  -1.4659
 -1.3685  -1.2117  -1.1359  -1.0676  -1.0179  -0.9956  -0.9578  -0.9134
 -0.8628  -0.8040  -0.7882  -0.7586  -0.7301  -0.7223  -0.6926  -0.6832
 -0.6726  -0.6602  -0.6111  -0.5962  -0.5895  -0.5870  -0.5631  -0.5592
 -0.5339  -0.5294  -0.5084  -0.4968  -0.4727  -0.4712  -0.4683  -0.4615
 -0.3846  -0.3445  -0.2833

          Ground-State Mulliken Net Atomic Charges

     Atom                 Charge (a.u.)
  ----------------------------------------
      1 C                     0.056815
      2 S                     0.075935
      3 C                    -0.225751
      4 C                    -0.025847
      5 C                    -0.091538
      6 S                    -0.016472
      7 C                    -0.155096
      8 C                     0.385336
      9 F                    -0.208584
     10 C                     0.446067
     11 O                    -0.462325
     12 O                    -0.300690
     13 C                    -0.058684
     14 H                     0.121163
     15 H                     0.094812
     16 H                     0.094617
     17 C                    -0.393136
     18 H                     0.137472
     19 H                     0.166995
     20 H                     0.147174
     21 H                     0.211736
  ----------------------------------------
  Sum of atomic charges =     0.000000

                    Cartesian Multipole Moments
 -----------------------------------------------------------------
    Charge (ESU x 10^10)
                -0.0000
    Dipole Moment (Debye)
         X       0.7663      Y       0.0388      Z       2.9400
       Tot       3.0385
    Quadrupole Moments (Debye-Ang)
        XX     -96.8613     XY      -0.6394     YY     -80.5838
        XZ       0.2100     YZ     -10.0358     ZZ     -97.1999

 Total job time:  55.03s(wall), 1987.28s(cpu)
        *  Thank you very much for using Q-Chem.  Have a nice day.  *
