 Q-Chem 5.4, Q-Chem, Inc., Pleasanton, CA (2021)
 Q-Chem 5.4.0 for Intel X86 EM64T Linux

User input:
--------------------------------------------------------------
$molecule
0 1
C	-0.521439	-0.851940	0.973997
S	-0.068639	-0.068640	2.481497
C	0.716961	1.293660	1.692897
C	-0.068539	-0.069040	-0.093903
C	0.624461	1.136060	0.287597
S	-0.187839	-0.281440	-1.831503
C	0.683161	1.238360	-2.080503
C	1.035161	1.852960	-0.888603
F	1.699361	3.012960	-0.845103
C	0.908861	1.625360	-3.482103
O	0.530761	0.954660	-4.432503
O	1.577561	2.798760	-3.595203
C	1.829661	3.224860	-4.942203
H	2.374161	4.181860	-4.859103
H	0.879561	3.365460	-5.496203
H	2.440961	2.476060	-5.485303
C	-0.521439	-2.287140	0.973997
H	0.024961	-2.295140	1.905497
H	-1.249339	-2.965040	1.394597
H	0.289561	-2.818240	0.498097
H	1.177861	2.094760	2.280497
$end

$rem
JOBTYPE		SP
EXCHANGE	HF
CORRELATION	pRIMP2
BASIS		cc-pvtz
METHOD		rimp2
AUX_BASIS	rimp2-cc-pvtz
SOLVENT_METHOD	PCM
PURECART	11111
SYMMETRY	false
MEM_TOTAL	110000
SCF_CONVERGENCE = 6
THRESH=10
GUI = 2
$end

$solvent
dielectric 4.90
$end
--------------------------------------------------------------

             Standard Nuclear Orientation (Angstroms)
    I     Atom           X                Y                Z
 ----------------------------------------------------------------
    1      C      -0.5214390000    -0.8519400000     0.9739970000
    2      S      -0.0686390000    -0.0686400000     2.4814970000
    3      C       0.7169610000     1.2936600000     1.6928970000
    4      C      -0.0685390000    -0.0690400000    -0.0939030000
    5      C       0.6244610000     1.1360600000     0.2875970000
    6      S      -0.1878390000    -0.2814400000    -1.8315030000
    7      C       0.6831610000     1.2383600000    -2.0805030000
    8      C       1.0351610000     1.8529600000    -0.8886030000
    9      F       1.6993610000     3.0129600000    -0.8451030000
   10      C       0.9088610000     1.6253600000    -3.4821030000
   11      O       0.5307610000     0.9546600000    -4.4325030000
   12      O       1.5775610000     2.7987600000    -3.5952030000
   13      C       1.8296610000     3.2248600000    -4.9422030000
   14      H       2.3741610000     4.1818600000    -4.8591030000
   15      H       0.8795610000     3.3654600000    -5.4962030000
   16      H       2.4409610000     2.4760600000    -5.4853030000
   17      C      -0.5214390000    -2.2871400000     0.9739970000
   18      H       0.0249610000    -2.2951400000     1.9054970000
   19      H      -1.2493390000    -2.9650400000     1.3945970000
   20      H       0.2895610000    -2.8182400000     0.4980970000
   21      H       1.1778610000     2.0947600000     2.2804970000
 ----------------------------------------------------------------

   11   -1389.2519591458      5.09e-07  Convergence criterion met
 Total energy in the final basis set =    -1389.2519591458
        RIMP2         total energy =     -1391.7600021237 a.u.

                    Orbital Energies (a.u.)
 --------------------------------------------------------------

 Alpha MOs
 -- Occupied --
-92.0040 -91.9934 -26.3411 -20.6134 -20.5595 -11.4074 -11.3795 -11.3048
-11.2940 -11.2897 -11.2881 -11.2874 -11.2788 -11.2224  -9.0036  -8.9936
 -6.6844  -6.6836  -6.6832  -6.6746  -6.6739  -6.6728  -1.6583  -1.4658
 -1.3684  -1.2145  -1.1389  -1.0657  -1.0204  -0.9932  -0.9591  -0.9101
 -0.8643  -0.8077  -0.7889  -0.7583  -0.7318  -0.7231  -0.6923  -0.6832
 -0.6727  -0.6605  -0.6086  -0.6026  -0.5927  -0.5735  -0.5648  -0.5565
 -0.5368  -0.5298  -0.5092  -0.4877  -0.4748  -0.4714  -0.4704  -0.4496
 -0.3888  -0.3452  -0.2891

          Ground-State Mulliken Net Atomic Charges

     Atom                 Charge (a.u.)
  ----------------------------------------
      1 C                     0.017159
      2 S                     0.074939
      3 C                    -0.196613
      4 C                    -0.033966
      5 C                    -0.079931
      6 S                     0.005004
      7 C                    -0.156330
      8 C                     0.388126
      9 F                    -0.208039
     10 C                     0.446274
     11 O                    -0.462584
     12 O                    -0.301171
     13 C                    -0.058481
     14 H                     0.121022
     15 H                     0.094809
     16 H                     0.094639
     17 C                    -0.376997
     18 H                     0.126354
     19 H                     0.145409
     20 H                     0.146414
     21 H                     0.213964
  ----------------------------------------
  Sum of atomic charges =     0.000000

                    Cartesian Multipole Moments
 -----------------------------------------------------------------
    Charge (ESU x 10^10)
                -0.0000
    Dipole Moment (Debye)
         X       1.6220      Y       0.6072      Z       3.7036
       Tot       4.0885
    Quadrupole Moments (Debye-Ang)
        XX     -94.3213     XY       4.1105     YY     -84.6749
        XZ      -4.1109     YZ      -9.8458     ZZ     -95.3900

 Total job time:  59.02s(wall), 2000.33s(cpu)
        *  Thank you very much for using Q-Chem.  Have a nice day.  *
