 Q-Chem 5.4, Q-Chem, Inc., Pleasanton, CA (2021)
 Q-Chem 5.4.0 for Intel X86 EM64T Linux

User input:
--------------------------------------------------------------
$molecule
0 1
C	-0.521979	-0.851940	0.977293
S	-0.069179	-0.068640	2.484793
C	0.716421	1.293660	1.696193
C	-0.069079	-0.069040	-0.090607
C	0.623921	1.136060	0.290893
S	-0.188379	-0.281440	-1.828207
C	0.682621	1.238360	-2.077207
C	1.034621	1.852960	-0.885307
F	1.698821	3.012960	-0.841807
C	0.908321	1.625360	-3.478807
O	0.530221	0.954660	-4.429207
O	1.577021	2.798760	-3.591907
C	1.829121	3.224860	-4.938907
H	2.373621	4.181860	-4.855807
H	0.879021	3.365460	-5.492907
H	2.440421	2.476060	-5.482007
C	-0.521979	-2.287140	0.977293
H	0.409521	-2.295140	0.430893
H	-0.101379	-2.965040	1.705193
H	-0.997879	-2.818240	0.166293
H	1.177321	2.094760	2.283793
$end

$rem
JOBTYPE		SP
EXCHANGE	HF
CORRELATION	pRIMP2
BASIS		cc-pvtz
METHOD		rimp2
AUX_BASIS	rimp2-cc-pvtz
SOLVENT_METHOD	PCM
PURECART	11111
SYMMETRY	false
MEM_TOTAL	110000
SCF_CONVERGENCE = 6
THRESH=10
GUI = 2
$end

$solvent
dielectric 4.90
$end
--------------------------------------------------------------

             Standard Nuclear Orientation (Angstroms)
    I     Atom           X                Y                Z
 ----------------------------------------------------------------
    1      C      -0.5219790000    -0.8519400000     0.9772930000
    2      S      -0.0691790000    -0.0686400000     2.4847930000
    3      C       0.7164210000     1.2936600000     1.6961930000
    4      C      -0.0690790000    -0.0690400000    -0.0906070000
    5      C       0.6239210000     1.1360600000     0.2908930000
    6      S      -0.1883790000    -0.2814400000    -1.8282070000
    7      C       0.6826210000     1.2383600000    -2.0772070000
    8      C       1.0346210000     1.8529600000    -0.8853070000
    9      F       1.6988210000     3.0129600000    -0.8418070000
   10      C       0.9083210000     1.6253600000    -3.4788070000
   11      O       0.5302210000     0.9546600000    -4.4292070000
   12      O       1.5770210000     2.7987600000    -3.5919070000
   13      C       1.8291210000     3.2248600000    -4.9389070000
   14      H       2.3736210000     4.1818600000    -4.8558070000
   15      H       0.8790210000     3.3654600000    -5.4929070000
   16      H       2.4404210000     2.4760600000    -5.4820070000
   17      C      -0.5219790000    -2.2871400000     0.9772930000
   18      H       0.4095210000    -2.2951400000     0.4308930000
   19      H      -0.1013790000    -2.9650400000     1.7051930000
   20      H      -0.9978790000    -2.8182400000     0.1662930000
   21      H       1.1773210000     2.0947600000     2.2837930000
 ----------------------------------------------------------------

   11   -1389.2544241256      4.99e-07  Convergence criterion met
 Total energy in the final basis set =    -1389.2544241256
        RIMP2         total energy =     -1391.7639064152 a.u.

                    Orbital Energies (a.u.)
 --------------------------------------------------------------

 Alpha MOs
 -- Occupied --
-92.0063 -91.9943 -26.3409 -20.6138 -20.5598 -11.4078 -11.3792 -11.2968
-11.2957 -11.2947 -11.2883 -11.2840 -11.2795 -11.2270  -9.0051  -8.9943
 -6.6859  -6.6852  -6.6848  -6.6753  -6.6746  -6.6735  -1.6581  -1.4661
 -1.3687  -1.2142  -1.1381  -1.0681  -1.0188  -0.9936  -0.9584  -0.9109
 -0.8637  -0.8051  -0.7890  -0.7591  -0.7303  -0.7230  -0.6937  -0.6835
 -0.6729  -0.6604  -0.6104  -0.5960  -0.5933  -0.5846  -0.5628  -0.5611
 -0.5307  -0.5263  -0.5089  -0.4962  -0.4728  -0.4717  -0.4689  -0.4618
 -0.3829  -0.3439  -0.2843

          Ground-State Mulliken Net Atomic Charges

     Atom                 Charge (a.u.)
  ----------------------------------------
      1 C                     0.012589
      2 S                     0.086409
      3 C                    -0.219455
      4 C                    -0.023374
      5 C                    -0.084752
      6 S                    -0.002799
      7 C                    -0.153900
      8 C                     0.387860
      9 F                    -0.208059
     10 C                     0.447485
     11 O                    -0.462354
     12 O                    -0.300950
     13 C                    -0.058457
     14 H                     0.121163
     15 H                     0.094853
     16 H                     0.094645
     17 C                    -0.390097
     18 H                     0.139559
     19 H                     0.166214
     20 H                     0.141503
     21 H                     0.211918
  ----------------------------------------
  Sum of atomic charges =     0.000000

                    Cartesian Multipole Moments
 -----------------------------------------------------------------
    Charge (ESU x 10^10)
                -0.0000
    Dipole Moment (Debye)
         X       1.6428      Y       0.1812      Z       2.8630
       Tot       3.3058
    Quadrupole Moments (Debye-Ang)
        XX     -94.9308     XY       3.5899     YY     -84.1828
        XZ      -3.2369     YZ      -8.4526     ZZ     -96.8011

 Total job time:  61.62s(wall), 2097.43s(cpu)
        *  Thank you very much for using Q-Chem.  Have a nice day.  *
