 Q-Chem 5.4, Q-Chem, Inc., Pleasanton, CA (2021)
 Q-Chem 5.4.0 for Intel X86 EM64T Linux

User input:
--------------------------------------------------------------
$molecule
0 1
C	-0.178231	-0.975447	0.976887
S	-0.020631	-0.084547	2.484387
C	0.251669	1.464253	1.695787
C	-0.020431	-0.084847	-0.091013
C	0.218669	1.284553	0.290487
S	-0.059931	-0.325247	-1.828613
C	0.238769	1.400753	-2.077613
C	0.359369	2.098753	-0.885713
F	0.586769	3.415953	-0.842213
C	0.318469	1.841653	-3.479213
O	0.192669	1.082153	-4.429613
O	0.545669	3.172953	-3.592313
C	0.636769	3.659653	-4.939313
H	0.821069	4.745153	-4.856213
H	-0.304131	3.466753	-5.493313
H	1.467269	3.165053	-5.482413
C	-0.178231	-2.410647	0.976887
H	-1.117231	-2.418647	0.443387
H	0.241869	-3.088547	0.248687
H	-0.642631	-2.941747	1.794587
H	0.410769	2.374753	2.283387
$end

$rem
JOBTYPE		SP
EXCHANGE	HF
CORRELATION	pRIMP2
BASIS		cc-pvtz
METHOD		rimp2
AUX_BASIS	rimp2-cc-pvtz
SOLVENT_METHOD	PCM
PURECART	11111
SYMMETRY	false
MEM_TOTAL	110000
SCF_CONVERGENCE = 6
THRESH=10
GUI = 2
$end

$solvent
dielectric 4.90
$end
--------------------------------------------------------------

             Standard Nuclear Orientation (Angstroms)
    I     Atom           X                Y                Z
 ----------------------------------------------------------------
    1      C      -0.1782310000    -0.9754470000     0.9768870000
    2      S      -0.0206310000    -0.0845470000     2.4843870000
    3      C       0.2516690000     1.4642530000     1.6957870000
    4      C      -0.0204310000    -0.0848470000    -0.0910130000
    5      C       0.2186690000     1.2845530000     0.2904870000
    6      S      -0.0599310000    -0.3252470000    -1.8286130000
    7      C       0.2387690000     1.4007530000    -2.0776130000
    8      C       0.3593690000     2.0987530000    -0.8857130000
    9      F       0.5867690000     3.4159530000    -0.8422130000
   10      C       0.3184690000     1.8416530000    -3.4792130000
   11      O       0.1926690000     1.0821530000    -4.4296130000
   12      O       0.5456690000     3.1729530000    -3.5923130000
   13      C       0.6367690000     3.6596530000    -4.9393130000
   14      H       0.8210690000     4.7451530000    -4.8562130000
   15      H      -0.3041310000     3.4667530000    -5.4933130000
   16      H       1.4672690000     3.1650530000    -5.4824130000
   17      C      -0.1782310000    -2.4106470000     0.9768870000
   18      H      -1.1172310000    -2.4186470000     0.4433870000
   19      H       0.2418690000    -3.0885470000     0.2486870000
   20      H      -0.6426310000    -2.9417470000     1.7945870000
   21      H       0.4107690000     2.3747530000     2.2833870000
 ----------------------------------------------------------------

   11   -1389.2705617287      4.97e-07  Convergence criterion met
 Total energy in the final basis set =    -1389.2705617287
        RIMP2         total energy =     -1391.7759341246 a.u.

                    Orbital Energies (a.u.)
 --------------------------------------------------------------

 Alpha MOs
 -- Occupied --
-92.0055 -91.9918 -26.3402 -20.6135 -20.5596 -11.4074 -11.3782 -11.2997
-11.2944 -11.2935 -11.2881 -11.2826 -11.2786 -11.2290  -9.0043  -8.9920
 -6.6851  -6.6845  -6.6840  -6.6730  -6.6723  -6.6712  -1.6574  -1.4658
 -1.3684  -1.2117  -1.1357  -1.0668  -1.0181  -0.9957  -0.9578  -0.9136
 -0.8629  -0.8043  -0.7882  -0.7586  -0.7299  -0.7223  -0.6931  -0.6832
 -0.6726  -0.6603  -0.6124  -0.5952  -0.5890  -0.5821  -0.5630  -0.5583
 -0.5365  -0.5293  -0.5083  -0.4966  -0.4732  -0.4712  -0.4697  -0.4590
 -0.3844  -0.3446  -0.2836

          Ground-State Mulliken Net Atomic Charges

     Atom                 Charge (a.u.)
  ----------------------------------------
      1 C                     0.050130
      2 S                     0.079800
      3 C                    -0.221608
      4 C                    -0.038879
      5 C                    -0.086262
      6 S                    -0.012822
      7 C                    -0.155488
      8 C                     0.385324
      9 F                    -0.208618
     10 C                     0.445349
     11 O                    -0.462379
     12 O                    -0.300746
     13 C                    -0.058630
     14 H                     0.121119
     15 H                     0.094706
     16 H                     0.094721
     17 C                    -0.383560
     18 H                     0.136605
     19 H                     0.162933
     20 H                     0.146505
     21 H                     0.211801
  ----------------------------------------
  Sum of atomic charges =     0.000000

                    Cartesian Multipole Moments
 -----------------------------------------------------------------
    Charge (ESU x 10^10)
                -0.0000
    Dipole Moment (Debye)
         X      -0.2984      Y       0.1465      Z       2.9384
       Tot       2.9572
    Quadrupole Moments (Debye-Ang)
        XX     -96.2861     XY       3.6244     YY     -81.0332
        XZ      -2.3659     YZ      -9.5792     ZZ     -97.1340

 Total job time:  55.82s(wall), 1931.01s(cpu)
        *  Thank you very much for using Q-Chem.  Have a nice day.  *
