 Q-Chem 5.4, Q-Chem, Inc., Pleasanton, CA (2021)
 Q-Chem 5.4.0 for Intel X86 EM64T Linux

User input:
--------------------------------------------------------------
$molecule
0 1
C	-0.668114	-0.747937	0.973626
S	-0.086214	-0.055137	2.481126
C	0.924086	1.149963	1.692526
C	-0.086214	-0.055537	-0.094274
C	0.805586	1.010863	0.287226
S	-0.240514	-0.244037	-1.831874
C	0.881186	1.101463	-2.080874
C	1.334586	1.645563	-0.888974
F	2.190086	2.672563	-0.845474
C	1.170586	1.443363	-3.482474
O	0.681886	0.848563	-4.432874
O	2.032986	2.482763	-3.595574
C	2.355186	2.858663	-4.942574
H	3.057586	3.706563	-4.859474
H	1.443986	3.162063	-5.496574
H	2.827186	2.015063	-5.485674
C	-0.668114	-2.183137	0.973626
H	-1.030514	-2.191137	1.991026
H	-1.458214	-2.861037	0.686326
H	0.217786	-2.714237	1.289026
H	1.517086	1.858863	2.280126
$end

$rem
JOBTYPE		SP
EXCHANGE	HF
CORRELATION	pRIMP2
BASIS		cc-pvtz
METHOD		rimp2
AUX_BASIS	rimp2-cc-pvtz
SOLVENT_METHOD	PCM
PURECART	11111
SYMMETRY	false
MEM_TOTAL	110000
SCF_CONVERGENCE = 6
THRESH=10
GUI = 2
$end

$solvent
dielectric 4.90
$end
--------------------------------------------------------------

             Standard Nuclear Orientation (Angstroms)
    I     Atom           X                Y                Z
 ----------------------------------------------------------------
    1      C      -0.6681140000    -0.7479370000     0.9736260000
    2      S      -0.0862140000    -0.0551370000     2.4811260000
    3      C       0.9240860000     1.1499630000     1.6925260000
    4      C      -0.0862140000    -0.0555370000    -0.0942740000
    5      C       0.8055860000     1.0108630000     0.2872260000
    6      S      -0.2405140000    -0.2440370000    -1.8318740000
    7      C       0.8811860000     1.1014630000    -2.0808740000
    8      C       1.3345860000     1.6455630000    -0.8889740000
    9      F       2.1900860000     2.6725630000    -0.8454740000
   10      C       1.1705860000     1.4433630000    -3.4824740000
   11      O       0.6818860000     0.8485630000    -4.4328740000
   12      O       2.0329860000     2.4827630000    -3.5955740000
   13      C       2.3551860000     2.8586630000    -4.9425740000
   14      H       3.0575860000     3.7065630000    -4.8594740000
   15      H       1.4439860000     3.1620630000    -5.4965740000
   16      H       2.8271860000     2.0150630000    -5.4856740000
   17      C      -0.6681140000    -2.1831370000     0.9736260000
   18      H      -1.0305140000    -2.1911370000     1.9910260000
   19      H      -1.4582140000    -2.8610370000     0.6863260000
   20      H       0.2177860000    -2.7142370000     1.2890260000
   21      H       1.5170860000     1.8588630000     2.2801260000
 ----------------------------------------------------------------

   11   -1389.2401373983      4.69e-07  Convergence criterion met
 Total energy in the final basis set =    -1389.2401373983
        RIMP2         total energy =     -1391.7510899467 a.u.

                    Orbital Energies (a.u.)
 --------------------------------------------------------------

 Alpha MOs
 -- Occupied --
-92.0066 -91.9967 -26.3416 -20.6136 -20.5596 -11.4077 -11.3803 -11.3115
-11.2941 -11.2933 -11.2882 -11.2795 -11.2760 -11.2200  -9.0058  -8.9966
 -6.6866  -6.6858  -6.6854  -6.6776  -6.6769  -6.6759  -1.6589  -1.4660
 -1.3686  -1.2160  -1.1396  -1.0653  -1.0214  -0.9926  -0.9597  -0.9096
 -0.8652  -0.8088  -0.7895  -0.7587  -0.7320  -0.7237  -0.6928  -0.6834
 -0.6729  -0.6607  -0.6086  -0.6018  -0.5914  -0.5782  -0.5647  -0.5599
 -0.5304  -0.5279  -0.5090  -0.4798  -0.4732  -0.4718  -0.4641  -0.4580
 -0.3884  -0.3440  -0.2946

          Ground-State Mulliken Net Atomic Charges

     Atom                 Charge (a.u.)
  ----------------------------------------
      1 C                    -0.054922
      2 S                     0.085385
      3 C                    -0.181967
      4 C                     0.022469
      5 C                    -0.093320
      6 S                     0.015875
      7 C                    -0.158792
      8 C                     0.392259
      9 F                    -0.207716
     10 C                     0.446522
     11 O                    -0.463112
     12 O                    -0.301330
     13 C                    -0.058460
     14 H                     0.121017
     15 H                     0.094884
     16 H                     0.094683
     17 C                    -0.356833
     18 H                     0.105866
     19 H                     0.147176
     20 H                     0.135021
     21 H                     0.215296
  ----------------------------------------
  Sum of atomic charges =     0.000000

                    Cartesian Multipole Moments
 -----------------------------------------------------------------
    Charge (ESU x 10^10)
                -0.0000
    Dipole Moment (Debye)
         X       1.6931      Y       0.8130      Z       3.5611
       Tot       4.0260
    Quadrupole Moments (Debye-Ang)
        XX     -92.1407     XY       6.2015     YY     -86.9904
        XZ      -4.9469     YZ      -8.1840     ZZ     -95.1620

 Total job time:  57.21s(wall), 1883.13s(cpu)
        *  Thank you very much for using Q-Chem.  Have a nice day.  *
