 Q-Chem 5.4, Q-Chem, Inc., Pleasanton, CA (2021)
 Q-Chem 5.4.0 for Intel X86 EM64T Linux

User input:
--------------------------------------------------------------
$molecule
0 1
C	-0.178028	-0.975447	0.976092
S	-0.020428	-0.084547	2.483592
C	0.251872	1.464253	1.694992
C	-0.020228	-0.084847	-0.091808
C	0.218872	1.284553	0.289692
S	-0.059728	-0.325247	-1.829408
C	0.238972	1.400753	-2.078408
C	0.359572	2.098753	-0.886508
F	0.586972	3.415953	-0.843008
C	0.318672	1.841653	-3.480008
O	0.192872	1.082153	-4.430408
O	0.545872	3.172953	-3.593108
C	0.636972	3.659653	-4.940108
H	0.821272	4.745153	-4.857008
H	-0.303928	3.466753	-5.494108
H	1.467472	3.165053	-5.483208
C	-0.178028	-2.410647	0.976092
H	-1.242828	-2.418647	0.795892
H	-0.032328	-3.088547	0.148092
H	-0.334728	-2.941747	1.903292
H	0.410972	2.374753	2.282592
$end

$rem
JOBTYPE		SP
EXCHANGE	HF
CORRELATION	pRIMP2
BASIS		cc-pvtz
METHOD		rimp2
AUX_BASIS	rimp2-cc-pvtz
SOLVENT_METHOD	PCM
PURECART	11111
SYMMETRY	false
MEM_TOTAL	110000
SCF_CONVERGENCE = 6
THRESH=10
GUI = 2
$end

$solvent
dielectric 4.90
$end
--------------------------------------------------------------

             Standard Nuclear Orientation (Angstroms)
    I     Atom           X                Y                Z
 ----------------------------------------------------------------
    1      C      -0.1780280000    -0.9754470000     0.9760920000
    2      S      -0.0204280000    -0.0845470000     2.4835920000
    3      C       0.2518720000     1.4642530000     1.6949920000
    4      C      -0.0202280000    -0.0848470000    -0.0918080000
    5      C       0.2188720000     1.2845530000     0.2896920000
    6      S      -0.0597280000    -0.3252470000    -1.8294080000
    7      C       0.2389720000     1.4007530000    -2.0784080000
    8      C       0.3595720000     2.0987530000    -0.8865080000
    9      F       0.5869720000     3.4159530000    -0.8430080000
   10      C       0.3186720000     1.8416530000    -3.4800080000
   11      O       0.1928720000     1.0821530000    -4.4304080000
   12      O       0.5458720000     3.1729530000    -3.5931080000
   13      C       0.6369720000     3.6596530000    -4.9401080000
   14      H       0.8212720000     4.7451530000    -4.8570080000
   15      H      -0.3039280000     3.4667530000    -5.4941080000
   16      H       1.4674720000     3.1650530000    -5.4832080000
   17      C      -0.1780280000    -2.4106470000     0.9760920000
   18      H      -1.2428280000    -2.4186470000     0.7958920000
   19      H      -0.0323280000    -3.0885470000     0.1480920000
   20      H      -0.3347280000    -2.9417470000     1.9032920000
   21      H       0.4109720000     2.3747530000     2.2825920000
 ----------------------------------------------------------------

   11   -1389.2698286258      5.16e-07  Convergence criterion met
 Total energy in the final basis set =    -1389.2698286258
        RIMP2         total energy =     -1391.7744659547 a.u.

                    Orbital Energies (a.u.)
 --------------------------------------------------------------

 Alpha MOs
 -- Occupied --
-92.0062 -91.9905 -26.3397 -20.6133 -20.5594 -11.4072 -11.3774 -11.3019
-11.2942 -11.2915 -11.2879 -11.2799 -11.2781 -11.2304  -9.0050  -8.9906
 -6.6858  -6.6852  -6.6847  -6.6717  -6.6710  -6.6698  -1.6569  -1.4657
 -1.3683  -1.2110  -1.1359  -1.0666  -1.0179  -0.9958  -0.9576  -0.9134
 -0.8627  -0.8041  -0.7878  -0.7582  -0.7301  -0.7219  -0.6925  -0.6831
 -0.6724  -0.6599  -0.6128  -0.5942  -0.5873  -0.5832  -0.5605  -0.5600
 -0.5335  -0.5280  -0.5129  -0.4999  -0.4726  -0.4714  -0.4703  -0.4595
 -0.3832  -0.3448  -0.2806

          Ground-State Mulliken Net Atomic Charges

     Atom                 Charge (a.u.)
  ----------------------------------------
      1 C                     0.046054
      2 S                     0.083088
      3 C                    -0.231031
      4 C                    -0.035933
      5 C                    -0.088869
      6 S                    -0.015844
      7 C                    -0.157178
      8 C                     0.390178
      9 F                    -0.209144
     10 C                     0.445542
     11 O                    -0.462122
     12 O                    -0.300676
     13 C                    -0.058659
     14 H                     0.121089
     15 H                     0.094678
     16 H                     0.094712
     17 C                    -0.387914
     18 H                     0.145783
     19 H                     0.168665
     20 H                     0.145479
     21 H                     0.212104
  ----------------------------------------
  Sum of atomic charges =     0.000000

                    Cartesian Multipole Moments
 -----------------------------------------------------------------
    Charge (ESU x 10^10)
                -0.0000
    Dipole Moment (Debye)
         X      -0.4203      Y      -0.0363      Z       3.1972
       Tot       3.2249
    Quadrupole Moments (Debye-Ang)
        XX     -96.4341     XY       3.8962     YY     -80.7990
        XZ      -2.3336     YZ     -10.3140     ZZ     -96.6268

 Total job time:  57.77s(wall), 1893.48s(cpu)
        *  Thank you very much for using Q-Chem.  Have a nice day.  *
