 Q-Chem 5.4, Q-Chem, Inc., Pleasanton, CA (2021)
 Q-Chem 5.4.0 for Intel X86 EM64T Linux

User input:
--------------------------------------------------------------
$molecule
0 1
C	-0.667049	-0.747937	0.974225
S	-0.085149	-0.055137	2.481725
C	0.925151	1.149963	1.693125
C	-0.085149	-0.055537	-0.093675
C	0.806651	1.010863	0.287825
S	-0.239449	-0.244037	-1.831275
C	0.882251	1.101463	-2.080275
C	1.335651	1.645563	-0.888375
F	2.191151	2.672563	-0.844875
C	1.171651	1.443363	-3.481875
O	0.682951	0.848563	-4.432275
O	2.034051	2.482763	-3.594975
C	2.356251	2.858663	-4.941975
H	3.058651	3.706563	-4.858875
H	1.445051	3.162063	-5.495975
H	2.828251	2.015063	-5.485075
C	-0.667049	-2.183137	0.974225
H	-1.489549	-2.191137	1.674125
H	-1.207649	-2.861037	0.330325
H	-0.057449	-2.714237	1.690325
H	1.518151	1.858863	2.280725
$end

$rem
JOBTYPE		SP
EXCHANGE	HF
CORRELATION	pRIMP2
BASIS		cc-pvtz
METHOD		rimp2
AUX_BASIS	rimp2-cc-pvtz
SOLVENT_METHOD	PCM
PURECART	11111
SYMMETRY	false
MEM_TOTAL	110000
SCF_CONVERGENCE = 6
THRESH=10
GUI = 2
$end

$solvent
dielectric 4.90
$end
--------------------------------------------------------------

             Standard Nuclear Orientation (Angstroms)
    I     Atom           X                Y                Z
 ----------------------------------------------------------------
    1      C      -0.6670490000    -0.7479370000     0.9742250000
    2      S      -0.0851490000    -0.0551370000     2.4817250000
    3      C       0.9251510000     1.1499630000     1.6931250000
    4      C      -0.0851490000    -0.0555370000    -0.0936750000
    5      C       0.8066510000     1.0108630000     0.2878250000
    6      S      -0.2394490000    -0.2440370000    -1.8312750000
    7      C       0.8822510000     1.1014630000    -2.0802750000
    8      C       1.3356510000     1.6455630000    -0.8883750000
    9      F       2.1911510000     2.6725630000    -0.8448750000
   10      C       1.1716510000     1.4433630000    -3.4818750000
   11      O       0.6829510000     0.8485630000    -4.4322750000
   12      O       2.0340510000     2.4827630000    -3.5949750000
   13      C       2.3562510000     2.8586630000    -4.9419750000
   14      H       3.0586510000     3.7065630000    -4.8588750000
   15      H       1.4450510000     3.1620630000    -5.4959750000
   16      H       2.8282510000     2.0150630000    -5.4850750000
   17      C      -0.6670490000    -2.1831370000     0.9742250000
   18      H      -1.4895490000    -2.1911370000     1.6741250000
   19      H      -1.2076490000    -2.8610370000     0.3303250000
   20      H      -0.0574490000    -2.7142370000     1.6903250000
   21      H       1.5181510000     1.8588630000     2.2807250000
 ----------------------------------------------------------------

   11   -1389.2367996139      4.61e-07  Convergence criterion met
 Total energy in the final basis set =    -1389.2367996139
        RIMP2         total energy =     -1391.7481053962 a.u.

                    Orbital Energies (a.u.)
 --------------------------------------------------------------

 Alpha MOs
 -- Occupied --
-92.0057 -91.9956 -26.3412 -20.6136 -20.5596 -11.4076 -11.3798 -11.3092
-11.2941 -11.2911 -11.2882 -11.2792 -11.2787 -11.2195  -9.0049  -8.9956
 -6.6857  -6.6850  -6.6846  -6.6766  -6.6759  -6.6748  -1.6585  -1.4660
 -1.3686  -1.2151  -1.1387  -1.0650  -1.0205  -0.9928  -0.9592  -0.9106
 -0.8645  -0.8077  -0.7891  -0.7586  -0.7312  -0.7233  -0.6927  -0.6834
 -0.6728  -0.6601  -0.6111  -0.5971  -0.5895  -0.5796  -0.5641  -0.5599
 -0.5308  -0.5253  -0.5090  -0.4869  -0.4726  -0.4716  -0.4696  -0.4576
 -0.3824  -0.3446  -0.2880

          Ground-State Mulliken Net Atomic Charges

     Atom                 Charge (a.u.)
  ----------------------------------------
      1 C                    -0.071208
      2 S                     0.082456
      3 C                    -0.181244
      4 C                     0.042257
      5 C                    -0.099383
      6 S                     0.011511
      7 C                    -0.158365
      8 C                     0.391108
      9 F                    -0.208112
     10 C                     0.447034
     11 O                    -0.462959
     12 O                    -0.301208
     13 C                    -0.058482
     14 H                     0.121035
     15 H                     0.094852
     16 H                     0.094679
     17 C                    -0.380332
     18 H                     0.124323
     19 H                     0.155880
     20 H                     0.141413
     21 H                     0.214744
  ----------------------------------------
  Sum of atomic charges =     0.000000

                    Cartesian Multipole Moments
 -----------------------------------------------------------------
    Charge (ESU x 10^10)
                -0.0000
    Dipole Moment (Debye)
         X       1.3252      Y       0.6342      Z       3.4335
       Tot       3.7346
    Quadrupole Moments (Debye-Ang)
        XX     -92.0642     XY       6.8811     YY     -86.7949
        XZ      -5.0731     YZ      -7.9754     ZZ     -95.3433

 Total job time:  58.09s(wall), 1962.38s(cpu)
        *  Thank you very much for using Q-Chem.  Have a nice day.  *
