 Q-Chem 5.4, Q-Chem, Inc., Pleasanton, CA (2021)
 Q-Chem 5.4.0 for Intel X86 EM64T Linux

User input:
--------------------------------------------------------------
$molecule
0 1
C	-0.001034	-0.991205	0.973997
S	-0.000534	-0.086405	2.481497
C	-0.001334	1.486095	1.692897
C	-0.000234	-0.086805	-0.093903
C	-0.002634	1.303395	0.287597
S	0.002566	-0.330305	-1.831503
C	-0.002934	1.421295	-2.080503
C	-0.005434	2.129695	-0.888603
F	-0.010234	3.466295	-0.845103
C	-0.001034	1.869395	-3.482103
O	0.006866	1.099495	-4.432503
O	-0.008534	3.219895	-3.595203
C	-0.003334	3.714995	-4.942203
H	-0.010334	4.815995	-4.859103
H	-0.896434	3.361695	-5.496203
H	0.900466	3.372095	-5.485303
C	-0.001034	-2.426405	0.973997
H	0.545366	-2.434405	1.905497
H	-0.728934	-3.104305	1.394597
H	0.809966	-2.957505	0.498097
H	-0.002734	2.410395	2.280497
$end

$rem
JOBTYPE		SP
EXCHANGE	HF
CORRELATION	pRIMP2
BASIS		cc-pvtz
METHOD		rimp2
AUX_BASIS	rimp2-cc-pvtz
SOLVENT_METHOD	PCM
PURECART	11111
SYMMETRY	false
MEM_TOTAL	110000
SCF_CONVERGENCE = 6
THRESH=10
GUI = 2
$end

$solvent
dielectric 4.90
$end
--------------------------------------------------------------

             Standard Nuclear Orientation (Angstroms)
    I     Atom           X                Y                Z
 ----------------------------------------------------------------
    1      C      -0.0010340000    -0.9912050000     0.9739970000
    2      S      -0.0005340000    -0.0864050000     2.4814970000
    3      C      -0.0013340000     1.4860950000     1.6928970000
    4      C      -0.0002340000    -0.0868050000    -0.0939030000
    5      C      -0.0026340000     1.3033950000     0.2875970000
    6      S       0.0025660000    -0.3303050000    -1.8315030000
    7      C      -0.0029340000     1.4212950000    -2.0805030000
    8      C      -0.0054340000     2.1296950000    -0.8886030000
    9      F      -0.0102340000     3.4662950000    -0.8451030000
   10      C      -0.0010340000     1.8693950000    -3.4821030000
   11      O       0.0068660000     1.0994950000    -4.4325030000
   12      O      -0.0085340000     3.2198950000    -3.5952030000
   13      C      -0.0033340000     3.7149950000    -4.9422030000
   14      H      -0.0103340000     4.8159950000    -4.8591030000
   15      H      -0.8964340000     3.3616950000    -5.4962030000
   16      H       0.9004660000     3.3720950000    -5.4853030000
   17      C      -0.0010340000    -2.4264050000     0.9739970000
   18      H       0.5453660000    -2.4344050000     1.9054970000
   19      H      -0.7289340000    -3.1043050000     1.3945970000
   20      H       0.8099660000    -2.9575050000     0.4980970000
   21      H      -0.0027340000     2.4103950000     2.2804970000
 ----------------------------------------------------------------

   11   -1389.2709943731      4.92e-07  Convergence criterion met
 Total energy in the final basis set =    -1389.2709943731
        RIMP2         total energy =     -1391.7756031427 a.u.

                    Orbital Energies (a.u.)
 --------------------------------------------------------------

 Alpha MOs
 -- Occupied --
-92.0072 -91.9913 -26.3402 -20.6133 -20.5594 -11.4072 -11.3781 -11.2986
-11.2948 -11.2941 -11.2880 -11.2843 -11.2784 -11.2264  -9.0061  -8.9915
 -6.6869  -6.6863  -6.6858  -6.6725  -6.6718  -6.6707  -1.6575  -1.4657
 -1.3683  -1.2119  -1.1366  -1.0650  -1.0193  -0.9953  -0.9584  -0.9127
 -0.8635  -0.8061  -0.7882  -0.7579  -0.7312  -0.7224  -0.6912  -0.6831
 -0.6725  -0.6604  -0.6083  -0.6011  -0.5919  -0.5783  -0.5652  -0.5565
 -0.5378  -0.5298  -0.5083  -0.4851  -0.4730  -0.4709  -0.4688  -0.4590
 -0.3896  -0.3454  -0.2884

          Ground-State Mulliken Net Atomic Charges

     Atom                 Charge (a.u.)
  ----------------------------------------
      1 C                     0.032132
      2 S                     0.075129
      3 C                    -0.209602
      4 C                     0.000131
      5 C                    -0.097986
      6 S                    -0.007262
      7 C                    -0.158155
      8 C                     0.390615
      9 F                    -0.208894
     10 C                     0.445205
     11 O                    -0.462362
     12 O                    -0.300741
     13 C                    -0.058703
     14 H                     0.121049
     15 H                     0.094778
     16 H                     0.094664
     17 C                    -0.377464
     18 H                     0.118239
     19 H                     0.148999
     20 H                     0.146087
     21 H                     0.214141
  ----------------------------------------
  Sum of atomic charges =     0.000000

                    Cartesian Multipole Moments
 -----------------------------------------------------------------
    Charge (ESU x 10^10)
                -0.0000
    Dipole Moment (Debye)
         X       0.3483      Y       0.5322      Z       3.7878
       Tot       3.8408
    Quadrupole Moments (Debye-Ang)
        XX     -96.4234     XY      -0.8517     YY     -81.1002
        XZ       0.0937     YZ     -11.5297     ZZ     -95.5783

 Total job time:  58.03s(wall), 2029.94s(cpu)
        *  Thank you very much for using Q-Chem.  Have a nice day.  *
