 Q-Chem 5.4, Q-Chem, Inc., Pleasanton, CA (2021)
 Q-Chem 5.4.0 for Intel X86 EM64T Linux

User input:
--------------------------------------------------------------
$molecule
0 1
C	-0.357905	-0.928548	0.975331
S	-0.048005	-0.078548	2.482831
C	0.489095	1.399452	1.694231
C	-0.047905	-0.078948	-0.092569
C	0.425395	1.228152	0.288931
S	-0.128505	-0.308748	-1.830169
C	0.465395	1.339152	-2.079169
C	0.705395	2.005552	-0.887269
F	1.157995	3.263252	-0.843769
C	0.620395	1.759552	-3.480769
O	0.364595	1.033352	-4.431169
O	1.075295	3.031152	-3.593869
C	1.249595	3.494552	-4.940869
H	1.619595	4.531652	-4.857769
H	0.289495	3.468052	-5.494869
H	1.981595	2.863252	-5.483969
C	-0.357905	-2.363748	0.975331
H	0.659495	-2.371748	1.337731
H	-0.645205	-3.041648	1.765431
H	-0.042505	-2.894848	0.089431
H	0.803895	2.268452	2.281831
$end

$rem
JOBTYPE		SP
EXCHANGE	HF
CORRELATION	pRIMP2
BASIS		cc-pvtz
METHOD		rimp2
AUX_BASIS	rimp2-cc-pvtz
SOLVENT_METHOD	PCM
PURECART	11111
SYMMETRY	false
MEM_TOTAL	110000
SCF_CONVERGENCE = 6
THRESH=10
GUI = 2
$end

$solvent
dielectric 4.90
$end
--------------------------------------------------------------

             Standard Nuclear Orientation (Angstroms)
    I     Atom           X                Y                Z
 ----------------------------------------------------------------
    1      C      -0.3579050000    -0.9285480000     0.9753310000
    2      S      -0.0480050000    -0.0785480000     2.4828310000
    3      C       0.4890950000     1.3994520000     1.6942310000
    4      C      -0.0479050000    -0.0789480000    -0.0925690000
    5      C       0.4253950000     1.2281520000     0.2889310000
    6      S      -0.1285050000    -0.3087480000    -1.8301690000
    7      C       0.4653950000     1.3391520000    -2.0791690000
    8      C       0.7053950000     2.0055520000    -0.8872690000
    9      F       1.1579950000     3.2632520000    -0.8437690000
   10      C       0.6203950000     1.7595520000    -3.4807690000
   11      O       0.3645950000     1.0333520000    -4.4311690000
   12      O       1.0752950000     3.0311520000    -3.5938690000
   13      C       1.2495950000     3.4945520000    -4.9408690000
   14      H       1.6195950000     4.5316520000    -4.8577690000
   15      H       0.2894950000     3.4680520000    -5.4948690000
   16      H       1.9815950000     2.8632520000    -5.4839690000
   17      C      -0.3579050000    -2.3637480000     0.9753310000
   18      H       0.6594950000    -2.3717480000     1.3377310000
   19      H      -0.6452050000    -3.0416480000     1.7654310000
   20      H      -0.0425050000    -2.8948480000     0.0894310000
   21      H       0.8038950000     2.2684520000     2.2818310000
 ----------------------------------------------------------------

   11   -1389.2670186058      5.45e-07  Convergence criterion met
 Total energy in the final basis set =    -1389.2670186058
        RIMP2         total energy =     -1391.7717074176 a.u.

                    Orbital Energies (a.u.)
 --------------------------------------------------------------

 Alpha MOs
 -- Occupied --
-92.0039 -91.9904 -26.3400 -20.6134 -20.5595 -11.4073 -11.3779 -11.3008
-11.2949 -11.2943 -11.2880 -11.2820 -11.2785 -11.2307  -9.0031  -8.9906
 -6.6840  -6.6834  -6.6828  -6.6717  -6.6710  -6.6698  -1.6573  -1.4658
 -1.3683  -1.2124  -1.1376  -1.0669  -1.0185  -0.9947  -0.9580  -0.9119
 -0.8630  -0.8051  -0.7880  -0.7583  -0.7311  -0.7222  -0.6921  -0.6831
 -0.6725  -0.6599  -0.6120  -0.5981  -0.5928  -0.5768  -0.5632  -0.5563
 -0.5328  -0.5282  -0.5167  -0.4988  -0.4725  -0.4711  -0.4704  -0.4574
 -0.3850  -0.3461  -0.2809

          Ground-State Mulliken Net Atomic Charges

     Atom                 Charge (a.u.)
  ----------------------------------------
      1 C                     0.059406
      2 S                     0.073746
      3 C                    -0.224537
      4 C                    -0.066925
      5 C                    -0.077319
      6 S                    -0.010142
      7 C                    -0.154708
      8 C                     0.388627
      9 F                    -0.208754
     10 C                     0.445714
     11 O                    -0.461782
     12 O                    -0.300849
     13 C                    -0.058464
     14 H                     0.121024
     15 H                     0.094812
     16 H                     0.094629
     17 C                    -0.381668
     18 H                     0.146846
     19 H                     0.160704
     20 H                     0.147112
     21 H                     0.212525
  ----------------------------------------
  Sum of atomic charges =     0.000000

                    Cartesian Multipole Moments
 -----------------------------------------------------------------
    Charge (ESU x 10^10)
                -0.0000
    Dipole Moment (Debye)
         X       1.3483      Y       0.0160      Z       3.4695
       Tot       3.7223
    Quadrupole Moments (Debye-Ang)
        XX     -96.2030     XY       2.1627     YY     -81.9404
        XZ      -2.5863     YZ     -10.7420     ZZ     -96.0988

 Total job time:  59.03s(wall), 1939.02s(cpu)
        *  Thank you very much for using Q-Chem.  Have a nice day.  *
