 Q-Chem 5.4, Q-Chem, Inc., Pleasanton, CA (2021)
 Q-Chem 5.4.0 for Intel X86 EM64T Linux

User input:
--------------------------------------------------------------
$molecule
0 1
C	-0.666425	-0.747937	0.975276
S	-0.084525	-0.055137	2.482776
C	0.925775	1.149963	1.694176
C	-0.084525	-0.055537	-0.092624
C	0.807275	1.010863	0.288876
S	-0.238825	-0.244037	-1.830224
C	0.882875	1.101463	-2.079224
C	1.336275	1.645563	-0.887324
F	2.191775	2.672563	-0.843824
C	1.172275	1.443363	-3.480824
O	0.683575	0.848563	-4.431224
O	2.034675	2.482763	-3.593924
C	2.356875	2.858663	-4.940924
H	3.059275	3.706563	-4.857824
H	1.445675	3.162063	-5.494924
H	2.828875	2.015063	-5.484024
C	-0.666425	-2.183137	0.975276
H	-1.728625	-2.191137	1.170176
H	-0.812725	-2.861037	0.147376
H	-0.496625	-2.714237	1.900176
H	1.518775	1.858863	2.281776
$end

$rem
JOBTYPE		SP
EXCHANGE	HF
CORRELATION	pRIMP2
BASIS		cc-pvtz
METHOD		rimp2
AUX_BASIS	rimp2-cc-pvtz
SOLVENT_METHOD	PCM
PURECART	11111
SYMMETRY	false
MEM_TOTAL	110000
SCF_CONVERGENCE = 6
THRESH=10
GUI = 2
$end

$solvent
dielectric 4.90
$end
--------------------------------------------------------------

             Standard Nuclear Orientation (Angstroms)
    I     Atom           X                Y                Z
 ----------------------------------------------------------------
    1      C      -0.6664250000    -0.7479370000     0.9752760000
    2      S      -0.0845250000    -0.0551370000     2.4827760000
    3      C       0.9257750000     1.1499630000     1.6941760000
    4      C      -0.0845250000    -0.0555370000    -0.0926240000
    5      C       0.8072750000     1.0108630000     0.2888760000
    6      S      -0.2388250000    -0.2440370000    -1.8302240000
    7      C       0.8828750000     1.1014630000    -2.0792240000
    8      C       1.3362750000     1.6455630000    -0.8873240000
    9      F       2.1917750000     2.6725630000    -0.8438240000
   10      C       1.1722750000     1.4433630000    -3.4808240000
   11      O       0.6835750000     0.8485630000    -4.4312240000
   12      O       2.0346750000     2.4827630000    -3.5939240000
   13      C       2.3568750000     2.8586630000    -4.9409240000
   14      H       3.0592750000     3.7065630000    -4.8578240000
   15      H       1.4456750000     3.1620630000    -5.4949240000
   16      H       2.8288750000     2.0150630000    -5.4840240000
   17      C      -0.6664250000    -2.1831370000     0.9752760000
   18      H      -1.7286250000    -2.1911370000     1.1701760000
   19      H      -0.8127250000    -2.8610370000     0.1473760000
   20      H      -0.4966250000    -2.7142370000     1.9001760000
   21      H       1.5187750000     1.8588630000     2.2817760000
 ----------------------------------------------------------------

   11   -1389.2327756602      4.63e-07  Convergence criterion met
 Total energy in the final basis set =    -1389.2327756602
        RIMP2         total energy =     -1391.7451606576 a.u.

                    Orbital Energies (a.u.)
 --------------------------------------------------------------

 Alpha MOs
 -- Occupied --
-92.0039 -91.9949 -26.3410 -20.6135 -20.5595 -11.4075 -11.3795 -11.3053
-11.2939 -11.2898 -11.2881 -11.2822 -11.2789 -11.2197  -9.0032  -8.9949
 -6.6840  -6.6833  -6.6829  -6.6760  -6.6753  -6.6742  -1.6582  -1.4659
 -1.3685  -1.2144  -1.1378  -1.0653  -1.0196  -0.9930  -0.9586  -0.9112
 -0.8640  -0.8066  -0.7889  -0.7587  -0.7304  -0.7230  -0.6930  -0.6833
 -0.6727  -0.6598  -0.6121  -0.5949  -0.5889  -0.5773  -0.5629  -0.5599
 -0.5315  -0.5251  -0.5073  -0.4984  -0.4737  -0.4716  -0.4712  -0.4536
 -0.3786  -0.3443  -0.2825

          Ground-State Mulliken Net Atomic Charges

     Atom                 Charge (a.u.)
  ----------------------------------------
      1 C                    -0.042505
      2 S                     0.085242
      3 C                    -0.195912
      4 C                     0.009350
      5 C                    -0.090884
      6 S                     0.008189
      7 C                    -0.157754
      8 C                     0.392189
      9 F                    -0.208078
     10 C                     0.447363
     11 O                    -0.463020
     12 O                    -0.301174
     13 C                    -0.058474
     14 H                     0.121041
     15 H                     0.094807
     16 H                     0.094637
     17 C                    -0.388855
     18 H                     0.136553
     19 H                     0.159938
     20 H                     0.143466
     21 H                     0.213881
  ----------------------------------------
  Sum of atomic charges =     0.000000

                    Cartesian Multipole Moments
 -----------------------------------------------------------------
    Charge (ESU x 10^10)
                -0.0000
    Dipole Moment (Debye)
         X       1.0181      Y       0.3924      Z       3.2188
       Tot       3.3987
    Quadrupole Moments (Debye-Ang)
        XX     -92.1173     XY       7.2201     YY     -86.6126
        XZ      -5.5108     YZ      -7.7273     ZZ     -95.7515

 Total job time:  56.92s(wall), 1975.26s(cpu)
        *  Thank you very much for using Q-Chem.  Have a nice day.  *
