 Q-Chem 5.4, Q-Chem, Inc., Pleasanton, CA (2021)
 Q-Chem 5.4.0 for Intel X86 EM64T Linux

User input:
--------------------------------------------------------------
$molecule
0 1
C	-0.353329	-0.928548	0.976498
S	-0.043429	-0.078548	2.483998
C	0.493671	1.399452	1.695398
C	-0.043329	-0.078948	-0.091402
C	0.429971	1.228152	0.290098
S	-0.123929	-0.308748	-1.829002
C	0.469971	1.339152	-2.078002
C	0.709971	2.005552	-0.886102
F	1.162571	3.263252	-0.842602
C	0.624971	1.759552	-3.479602
O	0.369171	1.033352	-4.430002
O	1.079871	3.031152	-3.592702
C	1.254171	3.494552	-4.939702
H	1.624171	4.531652	-4.856602
H	0.294071	3.468052	-5.493702
H	1.986171	2.863252	-5.482802
C	-0.353329	-2.363748	0.976498
H	-1.370729	-2.371748	0.614098
H	-0.066029	-3.041648	0.186398
H	-0.668729	-2.894848	1.862398
H	0.808471	2.268452	2.282998
$end

$rem
JOBTYPE		SP
EXCHANGE	HF
CORRELATION	pRIMP2
BASIS		cc-pvtz
METHOD		rimp2
AUX_BASIS	rimp2-cc-pvtz
SOLVENT_METHOD	PCM
PURECART	11111
SYMMETRY	false
MEM_TOTAL	110000
SCF_CONVERGENCE = 6
THRESH=10
GUI = 2
$end

$solvent
dielectric 4.90
$end
--------------------------------------------------------------

             Standard Nuclear Orientation (Angstroms)
    I     Atom           X                Y                Z
 ----------------------------------------------------------------
    1      C      -0.3533290000    -0.9285480000     0.9764980000
    2      S      -0.0434290000    -0.0785480000     2.4839980000
    3      C       0.4936710000     1.3994520000     1.6953980000
    4      C      -0.0433290000    -0.0789480000    -0.0914020000
    5      C       0.4299710000     1.2281520000     0.2900980000
    6      S      -0.1239290000    -0.3087480000    -1.8290020000
    7      C       0.4699710000     1.3391520000    -2.0780020000
    8      C       0.7099710000     2.0055520000    -0.8861020000
    9      F       1.1625710000     3.2632520000    -0.8426020000
   10      C       0.6249710000     1.7595520000    -3.4796020000
   11      O       0.3691710000     1.0333520000    -4.4300020000
   12      O       1.0798710000     3.0311520000    -3.5927020000
   13      C       1.2541710000     3.4945520000    -4.9397020000
   14      H       1.6241710000     4.5316520000    -4.8566020000
   15      H       0.2940710000     3.4680520000    -5.4937020000
   16      H       1.9861710000     2.8632520000    -5.4828020000
   17      C      -0.3533290000    -2.3637480000     0.9764980000
   18      H      -1.3707290000    -2.3717480000     0.6140980000
   19      H      -0.0660290000    -3.0416480000     0.1863980000
   20      H      -0.6687290000    -2.8948480000     1.8623980000
   21      H       0.8084710000     2.2684520000     2.2829980000
 ----------------------------------------------------------------

   11   -1389.2627204863      4.95e-07  Convergence criterion met
 Total energy in the final basis set =    -1389.2627204863
        RIMP2         total energy =     -1391.7696126456 a.u.

                    Orbital Energies (a.u.)
 --------------------------------------------------------------

 Alpha MOs
 -- Occupied --
-92.0049 -91.9921 -26.3403 -20.6135 -20.5595 -11.4074 -11.3782 -11.2970
-11.2950 -11.2943 -11.2881 -11.2834 -11.2786 -11.2274  -9.0038  -8.9922
 -6.6846  -6.6840  -6.6835  -6.6733  -6.6726  -6.6715  -1.6575  -1.4658
 -1.3684  -1.2120  -1.1359  -1.0664  -1.0182  -0.9952  -0.9579  -0.9133
 -0.8630  -0.8046  -0.7882  -0.7585  -0.7299  -0.7224  -0.6929  -0.6832
 -0.6726  -0.6601  -0.6124  -0.5947  -0.5888  -0.5808  -0.5618  -0.5589
 -0.5349  -0.5287  -0.5089  -0.4989  -0.4733  -0.4712  -0.4704  -0.4571
 -0.3828  -0.3446  -0.2823

          Ground-State Mulliken Net Atomic Charges

     Atom                 Charge (a.u.)
  ----------------------------------------
      1 C                     0.031704
      2 S                     0.084942
      3 C                    -0.221587
      4 C                    -0.041763
      5 C                    -0.083510
      6 S                    -0.008760
      7 C                    -0.156086
      8 C                     0.389211
      9 F                    -0.208507
     10 C                     0.445787
     11 O                    -0.462382
     12 O                    -0.300827
     13 C                    -0.058448
     14 H                     0.121044
     15 H                     0.094706
     16 H                     0.094706
     17 C                    -0.383814
     18 H                     0.141449
     19 H                     0.166060
     20 H                     0.144532
     21 H                     0.211542
  ----------------------------------------
  Sum of atomic charges =     0.000000

                    Cartesian Multipole Moments
 -----------------------------------------------------------------
    Charge (ESU x 10^10)
                -0.0000
    Dipole Moment (Debye)
         X       0.0057      Y       0.1518      Z       3.0164
       Tot       3.0203
    Quadrupole Moments (Debye-Ang)
        XX     -95.2520     XY       5.4776     YY     -82.2314
        XZ      -3.7721     YZ      -9.3159     ZZ     -96.8074

 Total job time:  56.14s(wall), 1963.20s(cpu)
        *  Thank you very much for using Q-Chem.  Have a nice day.  *
