 Q-Chem 5.4, Q-Chem, Inc., Pleasanton, CA (2021)
 Q-Chem 5.4.0 for Intel X86 EM64T Linux

User input:
--------------------------------------------------------------
$molecule
0 1
C	-0.900093	-0.471137	0.978043
S	-0.116293	-0.019137	2.485543
C	1.245207	0.767763	1.696943
C	-0.116393	-0.019537	-0.089857
C	1.086307	0.677463	0.291643
S	-0.325993	-0.143837	-1.827457
C	1.188307	0.736763	-2.076457
C	1.800407	1.093063	-0.884557
F	2.955607	1.765563	-0.841057
C	1.577207	0.959163	-3.478057
O	0.914507	0.567363	-4.428457
O	2.743107	1.640863	-3.591157
C	3.174407	1.883963	-4.938157
H	4.124507	2.440463	-4.855057
H	2.421907	2.480763	-5.492157
H	3.329407	0.929763	-5.481257
C	-0.900093	-1.906337	0.978043
H	-1.276493	-1.914337	-0.034257
H	-0.110193	-2.584237	0.690243
H	-1.781493	-2.437437	1.305943
H	2.044907	1.231163	2.284543
$end

$rem
JOBTYPE		SP
EXCHANGE	HF
CORRELATION	pRIMP2
BASIS		cc-pvtz
METHOD		rimp2
AUX_BASIS	rimp2-cc-pvtz
SOLVENT_METHOD	PCM
PURECART	11111
SYMMETRY	false
MEM_TOTAL	110000
SCF_CONVERGENCE = 6
THRESH=10
GUI = 2
$end

$solvent
dielectric 4.90
$end
--------------------------------------------------------------

             Standard Nuclear Orientation (Angstroms)
    I     Atom           X                Y                Z
 ----------------------------------------------------------------
    1      C      -0.9000930000    -0.4711370000     0.9780430000
    2      S      -0.1162930000    -0.0191370000     2.4855430000
    3      C       1.2452070000     0.7677630000     1.6969430000
    4      C      -0.1163930000    -0.0195370000    -0.0898570000
    5      C       1.0863070000     0.6774630000     0.2916430000
    6      S      -0.3259930000    -0.1438370000    -1.8274570000
    7      C       1.1883070000     0.7367630000    -2.0764570000
    8      C       1.8004070000     1.0930630000    -0.8845570000
    9      F       2.9556070000     1.7655630000    -0.8410570000
   10      C       1.5772070000     0.9591630000    -3.4780570000
   11      O       0.9145070000     0.5673630000    -4.4284570000
   12      O       2.7431070000     1.6408630000    -3.5911570000
   13      C       3.1744070000     1.8839630000    -4.9381570000
   14      H       4.1245070000     2.4404630000    -4.8550570000
   15      H       2.4219070000     2.4807630000    -5.4921570000
   16      H       3.3294070000     0.9297630000    -5.4812570000
   17      C      -0.9000930000    -1.9063370000     0.9780430000
   18      H      -1.2764930000    -1.9143370000    -0.0342570000
   19      H      -0.1101930000    -2.5842370000     0.6902430000
   20      H      -1.7814930000    -2.4374370000     1.3059430000
   21      H       2.0449070000     1.2311630000     2.2845430000
 ----------------------------------------------------------------

   11   -1389.2037480399      5.89e-07  Convergence criterion met
 Total energy in the final basis set =    -1389.2037480399
        RIMP2         total energy =     -1391.7199062732 a.u.

                    Orbital Energies (a.u.)
 --------------------------------------------------------------

 Alpha MOs
 -- Occupied --
-92.0054 -91.9989 -26.3445 -20.6146 -20.5606 -11.4092 -11.3846 -11.3267
-11.3106 -11.2956 -11.2890 -11.2824 -11.2551 -11.2150  -9.0052  -8.9991
 -6.6861  -6.6854  -6.6844  -6.6798  -6.6787  -6.6787  -1.6616  -1.4671
 -1.3698  -1.2240  -1.1425  -1.0724  -1.0224  -0.9910  -0.9606  -0.9078
 -0.8668  -0.8100  -0.7922  -0.7617  -0.7329  -0.7263  -0.6994  -0.6846
 -0.6740  -0.6628  -0.6116  -0.6038  -0.5933  -0.5798  -0.5624  -0.5608
 -0.5312  -0.5200  -0.5111  -0.4915  -0.4769  -0.4731  -0.4701  -0.4260
 -0.3853  -0.3442  -0.3017

          Ground-State Mulliken Net Atomic Charges

     Atom                 Charge (a.u.)
  ----------------------------------------
      1 C                    -0.142271
      2 S                     0.092005
      3 C                    -0.133923
      4 C                     0.080868
      5 C                    -0.122434
      6 S                     0.042043
      7 C                    -0.157962
      8 C                     0.396112
      9 F                    -0.205623
     10 C                     0.448329
     11 O                    -0.464100
     12 O                    -0.301565
     13 C                    -0.058227
     14 H                     0.121295
     15 H                     0.095078
     16 H                     0.094809
     17 C                    -0.359969
     18 H                     0.098980
     19 H                     0.137093
     20 H                     0.123807
     21 H                     0.215657
  ----------------------------------------
  Sum of atomic charges =     0.000000

                    Cartesian Multipole Moments
 -----------------------------------------------------------------
    Charge (ESU x 10^10)
                -0.0000
    Dipole Moment (Debye)
         X       3.1386      Y       0.6897      Z       2.1414
       Tot       3.8616
    Quadrupole Moments (Debye-Ang)
        XX     -89.2208     XY       5.4567     YY     -91.6099
        XZ      -5.1362     YZ      -3.2924     ZZ     -96.7217

 Total job time:  54.07s(wall), 1907.94s(cpu)
        *  Thank you very much for using Q-Chem.  Have a nice day.  *
