 Q-Chem 5.4, Q-Chem, Inc., Pleasanton, CA (2021)
 Q-Chem 5.4.0 for Intel X86 EM64T Linux

User input:
--------------------------------------------------------------
$molecule
0 1
C	-0.668932	-0.747937	0.973565
S	-0.087032	-0.055137	2.481065
C	0.923268	1.149963	1.692465
C	-0.087032	-0.055537	-0.094335
C	0.804768	1.010863	0.287165
S	-0.241332	-0.244037	-1.831935
C	0.880368	1.101463	-2.080935
C	1.333768	1.645563	-0.889035
F	2.189268	2.672563	-0.845535
C	1.169768	1.443363	-3.482535
O	0.681068	0.848563	-4.432935
O	2.032168	2.482763	-3.595635
C	2.354368	2.858663	-4.942635
H	3.056768	3.706563	-4.859535
H	1.443168	3.162063	-5.496635
H	2.826368	2.015063	-5.485735
C	-0.668932	-2.183137	0.973565
H	-0.661532	-2.191137	2.053465
H	-1.509632	-2.861037	0.973865
H	0.271468	-2.714237	0.966865
H	1.516268	1.858863	2.280065
$end

$rem
JOBTYPE		SP
EXCHANGE	HF
CORRELATION	pRIMP2
BASIS		cc-pvtz
METHOD		rimp2
AUX_BASIS	rimp2-cc-pvtz
SOLVENT_METHOD	PCM
PURECART	11111
SYMMETRY	false
MEM_TOTAL	110000
SCF_CONVERGENCE = 6
THRESH=10
GUI = 2
$end

$solvent
dielectric 4.90
$end
--------------------------------------------------------------

             Standard Nuclear Orientation (Angstroms)
    I     Atom           X                Y                Z
 ----------------------------------------------------------------
    1      C      -0.6689320000    -0.7479370000     0.9735650000
    2      S      -0.0870320000    -0.0551370000     2.4810650000
    3      C       0.9232680000     1.1499630000     1.6924650000
    4      C      -0.0870320000    -0.0555370000    -0.0943350000
    5      C       0.8047680000     1.0108630000     0.2871650000
    6      S      -0.2413320000    -0.2440370000    -1.8319350000
    7      C       0.8803680000     1.1014630000    -2.0809350000
    8      C       1.3337680000     1.6455630000    -0.8890350000
    9      F       2.1892680000     2.6725630000    -0.8455350000
   10      C       1.1697680000     1.4433630000    -3.4825350000
   11      O       0.6810680000     0.8485630000    -4.4329350000
   12      O       2.0321680000     2.4827630000    -3.5956350000
   13      C       2.3543680000     2.8586630000    -4.9426350000
   14      H       3.0567680000     3.7065630000    -4.8595350000
   15      H       1.4431680000     3.1620630000    -5.4966350000
   16      H       2.8263680000     2.0150630000    -5.4857350000
   17      C      -0.6689320000    -2.1831370000     0.9735650000
   18      H      -0.6615320000    -2.1911370000     2.0534650000
   19      H      -1.5096320000    -2.8610370000     0.9738650000
   20      H       0.2714680000    -2.7142370000     0.9668650000
   21      H       1.5162680000     1.8588630000     2.2800650000
 ----------------------------------------------------------------

   11   -1389.2384459538      4.77e-07  Convergence criterion met
 Total energy in the final basis set =    -1389.2384459538
        RIMP2         total energy =     -1391.7495848511 a.u.

                    Orbital Energies (a.u.)
 --------------------------------------------------------------

 Alpha MOs
 -- Occupied --
-92.0058 -91.9966 -26.3418 -20.6136 -20.5595 -11.4076 -11.3806 -11.3116
-11.2942 -11.2939 -11.2882 -11.2794 -11.2763 -11.2196  -9.0053  -8.9966
 -6.6860  -6.6852  -6.6848  -6.6776  -6.6769  -6.6759  -1.6590  -1.4659
 -1.3686  -1.2164  -1.1402  -1.0657  -1.0217  -0.9923  -0.9599  -0.9088
 -0.8654  -0.8093  -0.7896  -0.7586  -0.7323  -0.7238  -0.6929  -0.6834
 -0.6728  -0.6609  -0.6066  -0.6048  -0.5921  -0.5762  -0.5646  -0.5597
 -0.5301  -0.5299  -0.5091  -0.4791  -0.4754  -0.4718  -0.4688  -0.4493
 -0.3903  -0.3433  -0.2955

          Ground-State Mulliken Net Atomic Charges

     Atom                 Charge (a.u.)
  ----------------------------------------
      1 C                    -0.039624
      2 S                     0.083401
      3 C                    -0.183643
      4 C                     0.004252
      5 C                    -0.084748
      6 S                     0.015010
      7 C                    -0.156792
      8 C                     0.389970
      9 F                    -0.207550
     10 C                     0.446620
     11 O                    -0.463264
     12 O                    -0.301410
     13 C                    -0.058456
     14 H                     0.120986
     15 H                     0.094879
     16 H                     0.094649
     17 C                    -0.354685
     18 H                     0.108685
     19 H                     0.139803
     20 H                     0.136446
     21 H                     0.215469
  ----------------------------------------
  Sum of atomic charges =     0.000000

                    Cartesian Multipole Moments
 -----------------------------------------------------------------
    Charge (ESU x 10^10)
                -0.0000
    Dipole Moment (Debye)
         X       1.9107      Y       0.8139      Z       3.6386
       Tot       4.1896
    Quadrupole Moments (Debye-Ang)
        XX     -92.3620     XY       5.6066     YY     -87.0967
        XZ      -4.9876     YZ      -8.3810     ZZ     -95.0781

 Total job time:  58.07s(wall), 1997.99s(cpu)
        *  Thank you very much for using Q-Chem.  Have a nice day.  *
