 Q-Chem 5.4, Q-Chem, Inc., Pleasanton, CA (2021)
 Q-Chem 5.4.0 for Intel X86 EM64T Linux

User input:
--------------------------------------------------------------
$molecule
0 1
C	-0.903035	-0.471137	0.977293
S	-0.119235	-0.019137	2.484793
C	1.242265	0.767763	1.696193
C	-0.119335	-0.019537	-0.090607
C	1.083365	0.677463	0.290893
S	-0.328935	-0.143837	-1.828207
C	1.185365	0.736763	-2.077207
C	1.797465	1.093063	-0.885307
F	2.952665	1.765563	-0.841807
C	1.574265	0.959163	-3.478807
O	0.911565	0.567363	-4.429207
O	2.740165	1.640863	-3.591907
C	3.171465	1.883963	-4.938907
H	4.121565	2.440463	-4.855807
H	2.418965	2.480763	-5.492907
H	3.326465	0.929763	-5.482007
C	-0.903035	-1.906337	0.977293
H	0.028465	-1.914337	0.430893
H	-0.482435	-2.584237	1.705193
H	-1.378935	-2.437437	0.166293
H	2.041965	1.231163	2.283793
$end

$rem
JOBTYPE		SP
EXCHANGE	HF
CORRELATION	pRIMP2
BASIS		cc-pvtz
METHOD		rimp2
AUX_BASIS	rimp2-cc-pvtz
SOLVENT_METHOD	PCM
PURECART	11111
SYMMETRY	false
MEM_TOTAL	110000
SCF_CONVERGENCE = 6
THRESH=10
GUI = 2
$end

$solvent
dielectric 4.90
$end
--------------------------------------------------------------

             Standard Nuclear Orientation (Angstroms)
    I     Atom           X                Y                Z
 ----------------------------------------------------------------
    1      C      -0.9030350000    -0.4711370000     0.9772930000
    2      S      -0.1192350000    -0.0191370000     2.4847930000
    3      C       1.2422650000     0.7677630000     1.6961930000
    4      C      -0.1193350000    -0.0195370000    -0.0906070000
    5      C       1.0833650000     0.6774630000     0.2908930000
    6      S      -0.3289350000    -0.1438370000    -1.8282070000
    7      C       1.1853650000     0.7367630000    -2.0772070000
    8      C       1.7974650000     1.0930630000    -0.8853070000
    9      F       2.9526650000     1.7655630000    -0.8418070000
   10      C       1.5742650000     0.9591630000    -3.4788070000
   11      O       0.9115650000     0.5673630000    -4.4292070000
   12      O       2.7401650000     1.6408630000    -3.5919070000
   13      C       3.1714650000     1.8839630000    -4.9389070000
   14      H       4.1215650000     2.4404630000    -4.8558070000
   15      H       2.4189650000     2.4807630000    -5.4929070000
   16      H       3.3264650000     0.9297630000    -5.4820070000
   17      C      -0.9030350000    -1.9063370000     0.9772930000
   18      H       0.0284650000    -1.9143370000     0.4308930000
   19      H      -0.4824350000    -2.5842370000     1.7051930000
   20      H      -1.3789350000    -2.4374370000     0.1662930000
   21      H       2.0419650000     1.2311630000     2.2837930000
 ----------------------------------------------------------------

   11   -1389.1900030604      6.51e-07  Convergence criterion met
 Total energy in the final basis set =    -1389.1900030604
        RIMP2         total energy =     -1391.7113978087 a.u.

                    Orbital Energies (a.u.)
 --------------------------------------------------------------

 Alpha MOs
 -- Occupied --
-92.0072 -92.0047 -26.3440 -20.6145 -20.5604 -11.4089 -11.3836 -11.3207
-11.3020 -11.2953 -11.2889 -11.2827 -11.2649 -11.2168  -9.0064  -9.0043
 -6.6871  -6.6861  -6.6860  -6.6852  -6.6845  -6.6835  -1.6611  -1.4669
 -1.3696  -1.2253  -1.1455  -1.0730  -1.0227  -0.9910  -0.9609  -0.9041
 -0.8669  -0.8099  -0.7921  -0.7614  -0.7338  -0.7258  -0.6991  -0.6844
 -0.6738  -0.6626  -0.6131  -0.6010  -0.5963  -0.5755  -0.5674  -0.5623
 -0.5312  -0.5200  -0.5097  -0.4939  -0.4751  -0.4728  -0.4716  -0.4518
 -0.3791  -0.3392  -0.2895

          Ground-State Mulliken Net Atomic Charges

     Atom                 Charge (a.u.)
  ----------------------------------------
      1 C                    -0.140420
      2 S                     0.111267
      3 C                    -0.162192
      4 C                     0.086783
      5 C                    -0.124984
      6 S                     0.043422
      7 C                    -0.156461
      8 C                     0.392816
      9 F                    -0.206202
     10 C                     0.449683
     11 O                    -0.464046
     12 O                    -0.301490
     13 C                    -0.058220
     14 H                     0.121234
     15 H                     0.095074
     16 H                     0.094753
     17 C                    -0.372118
     18 H                     0.105334
     19 H                     0.149781
     20 H                     0.120047
     21 H                     0.215938
  ----------------------------------------
  Sum of atomic charges =     0.000000

                    Cartesian Multipole Moments
 -----------------------------------------------------------------
    Charge (ESU x 10^10)
                -0.0000
    Dipole Moment (Debye)
         X       3.4835      Y       0.4010      Z       2.6037
       Tot       4.3675
    Quadrupole Moments (Debye-Ang)
        XX     -90.9147     XY       4.3184     YY     -91.5934
        XZ      -4.6501     YZ      -4.2911     ZZ     -95.2205

 Total job time:  54.28s(wall), 1930.70s(cpu)
        *  Thank you very much for using Q-Chem.  Have a nice day.  *
