 Q-Chem 5.4, Q-Chem, Inc., Pleasanton, CA (2021)
 Q-Chem 5.4.0 for Intel X86 EM64T Linux

User input:
--------------------------------------------------------------
$molecule
0 1
C	-0.517933	-0.851940	0.974891
S	-0.065133	-0.068640	2.482391
C	0.720467	1.293660	1.693791
C	-0.065033	-0.069040	-0.093009
C	0.627967	1.136060	0.288491
S	-0.184333	-0.281440	-1.830609
C	0.686667	1.238360	-2.079609
C	1.038667	1.852960	-0.887709
F	1.702867	3.012960	-0.844209
C	0.912367	1.625360	-3.481209
O	0.534267	0.954660	-4.431609
O	1.581067	2.798760	-3.594309
C	1.833167	3.224860	-4.941309
H	2.377667	4.181860	-4.858209
H	0.883067	3.365460	-5.495309
H	2.444467	2.476060	-5.484409
C	-0.517933	-2.287140	0.974891
H	-1.530233	-2.295140	1.351291
H	-0.805733	-2.965040	0.184991
H	-0.190033	-2.818240	1.856291
H	1.181367	2.094760	2.281391
$end

$rem
JOBTYPE		SP
EXCHANGE	HF
CORRELATION	pRIMP2
BASIS		cc-pvtz
METHOD		rimp2
AUX_BASIS	rimp2-cc-pvtz
SOLVENT_METHOD	PCM
PURECART	11111
SYMMETRY	false
MEM_TOTAL	110000
SCF_CONVERGENCE = 6
THRESH=10
GUI = 2
$end

$solvent
dielectric 4.90
$end
--------------------------------------------------------------

             Standard Nuclear Orientation (Angstroms)
    I     Atom           X                Y                Z
 ----------------------------------------------------------------
    1      C      -0.5179330000    -0.8519400000     0.9748910000
    2      S      -0.0651330000    -0.0686400000     2.4823910000
    3      C       0.7204670000     1.2936600000     1.6937910000
    4      C      -0.0650330000    -0.0690400000    -0.0930090000
    5      C       0.6279670000     1.1360600000     0.2884910000
    6      S      -0.1843330000    -0.2814400000    -1.8306090000
    7      C       0.6866670000     1.2383600000    -2.0796090000
    8      C       1.0386670000     1.8529600000    -0.8877090000
    9      F       1.7028670000     3.0129600000    -0.8442090000
   10      C       0.9123670000     1.6253600000    -3.4812090000
   11      O       0.5342670000     0.9546600000    -4.4316090000
   12      O       1.5810670000     2.7987600000    -3.5943090000
   13      C       1.8331670000     3.2248600000    -4.9413090000
   14      H       2.3776670000     4.1818600000    -4.8582090000
   15      H       0.8830670000     3.3654600000    -5.4953090000
   16      H       2.4444670000     2.4760600000    -5.4844090000
   17      C      -0.5179330000    -2.2871400000     0.9748910000
   18      H      -1.5302330000    -2.2951400000     1.3512910000
   19      H      -0.8057330000    -2.9650400000     0.1849910000
   20      H      -0.1900330000    -2.8182400000     1.8562910000
   21      H       1.1813670000     2.0947600000     2.2813910000
 ----------------------------------------------------------------

   11   -1389.2496520644      4.75e-07  Convergence criterion met
 Total energy in the final basis set =    -1389.2496520644
        RIMP2         total energy =     -1391.7584694180 a.u.

                    Orbital Energies (a.u.)
 --------------------------------------------------------------

 Alpha MOs
 -- Occupied --
-92.0055 -91.9924 -26.3402 -20.6134 -20.5594 -11.4073 -11.3783 -11.3002
-11.2940 -11.2904 -11.2880 -11.2850 -11.2784 -11.2237  -9.0046  -8.9925
 -6.6854  -6.6848  -6.6843  -6.6736  -6.6729  -6.6718  -1.6575  -1.4657
 -1.3683  -1.2127  -1.1370  -1.0651  -1.0190  -0.9941  -0.9582  -0.9122
 -0.8634  -0.8057  -0.7882  -0.7582  -0.7303  -0.7224  -0.6921  -0.6831
 -0.6725  -0.6597  -0.6119  -0.5949  -0.5878  -0.5812  -0.5626  -0.5591
 -0.5313  -0.5256  -0.5105  -0.4964  -0.4724  -0.4717  -0.4709  -0.4573
 -0.3816  -0.3448  -0.2824

          Ground-State Mulliken Net Atomic Charges

     Atom                 Charge (a.u.)
  ----------------------------------------
      1 C                    -0.018993
      2 S                     0.079935
      3 C                    -0.208004
      4 C                     0.001885
      5 C                    -0.091429
      6 S                    -0.001671
      7 C                    -0.157320
      8 C                     0.391243
      9 F                    -0.208756
     10 C                     0.446781
     11 O                    -0.462451
     12 O                    -0.300979
     13 C                    -0.058505
     14 H                     0.121049
     15 H                     0.094712
     16 H                     0.094672
     17 C                    -0.383924
     18 H                     0.137419
     19 H                     0.163427
     20 H                     0.146934
     21 H                     0.213973
  ----------------------------------------
  Sum of atomic charges =     0.000000

                    Cartesian Multipole Moments
 -----------------------------------------------------------------
    Charge (ESU x 10^10)
                -0.0000
    Dipole Moment (Debye)
         X       0.4986      Y       0.3067      Z       3.4257
       Tot       3.4754
    Quadrupole Moments (Debye-Ang)
        XX     -93.7670     XY       6.6572     YY     -84.2148
        XZ      -4.5649     YZ      -9.2407     ZZ     -95.7838

 Total job time:  58.15s(wall), 1998.67s(cpu)
        *  Thank you very much for using Q-Chem.  Have a nice day.  *
