 Q-Chem 5.4, Q-Chem, Inc., Pleasanton, CA (2021)
 Q-Chem 5.4.0 for Intel X86 EM64T Linux

User input:
--------------------------------------------------------------
$molecule
0 1
C	-0.902766	-0.471137	0.977605
S	-0.118966	-0.019137	2.485105
C	1.242534	0.767763	1.696505
C	-0.119066	-0.019537	-0.090295
C	1.083634	0.677463	0.291205
S	-0.328666	-0.143837	-1.827895
C	1.185634	0.736763	-2.076895
C	1.797734	1.093063	-0.884995
F	2.952934	1.765563	-0.841495
C	1.574534	0.959163	-3.478495
O	0.911834	0.567363	-4.428895
O	2.740434	1.640863	-3.591595
C	3.171734	1.883963	-4.938595
H	4.121834	2.440463	-4.855495
H	2.419234	2.480763	-5.492595
H	3.326734	0.929763	-5.481695
C	-0.902766	-1.906337	0.977605
H	-0.080266	-1.914337	0.277705
H	-0.362166	-2.584237	1.621505
H	-1.512366	-2.437437	0.261505
H	2.042234	1.231163	2.284105
$end

$rem
JOBTYPE		SP
EXCHANGE	HF
CORRELATION	pRIMP2
BASIS		cc-pvtz
METHOD		rimp2
AUX_BASIS	rimp2-cc-pvtz
SOLVENT_METHOD	PCM
PURECART	11111
SYMMETRY	false
MEM_TOTAL	110000
SCF_CONVERGENCE = 6
THRESH=10
GUI = 2
$end

$solvent
dielectric 4.90
$end
--------------------------------------------------------------

             Standard Nuclear Orientation (Angstroms)
    I     Atom           X                Y                Z
 ----------------------------------------------------------------
    1      C      -0.9027660000    -0.4711370000     0.9776050000
    2      S      -0.1189660000    -0.0191370000     2.4851050000
    3      C       1.2425340000     0.7677630000     1.6965050000
    4      C      -0.1190660000    -0.0195370000    -0.0902950000
    5      C       1.0836340000     0.6774630000     0.2912050000
    6      S      -0.3286660000    -0.1438370000    -1.8278950000
    7      C       1.1856340000     0.7367630000    -2.0768950000
    8      C       1.7977340000     1.0930630000    -0.8849950000
    9      F       2.9529340000     1.7655630000    -0.8414950000
   10      C       1.5745340000     0.9591630000    -3.4784950000
   11      O       0.9118340000     0.5673630000    -4.4288950000
   12      O       2.7404340000     1.6408630000    -3.5915950000
   13      C       3.1717340000     1.8839630000    -4.9385950000
   14      H       4.1218340000     2.4404630000    -4.8554950000
   15      H       2.4192340000     2.4807630000    -5.4925950000
   16      H       3.3267340000     0.9297630000    -5.4816950000
   17      C      -0.9027660000    -1.9063370000     0.9776050000
   18      H      -0.0802660000    -1.9143370000     0.2777050000
   19      H      -0.3621660000    -2.5842370000     1.6215050000
   20      H      -1.5123660000    -2.4374370000     0.2615050000
   21      H       2.0422340000     1.2311630000     2.2841050000
 ----------------------------------------------------------------

   11   -1389.1872064763      6.82e-07  Convergence criterion met
 Total energy in the final basis set =    -1389.1872064763
        RIMP2         total energy =     -1391.7087269553 a.u.

                    Orbital Energies (a.u.)
 --------------------------------------------------------------

 Alpha MOs
 -- Occupied --
-92.0070 -92.0054 -26.3442 -20.6145 -20.5603 -11.4089 -11.3841 -11.3215
-11.3035 -11.2951 -11.2889 -11.2821 -11.2623 -11.2144  -9.0062  -9.0050
 -6.6869  -6.6859  -6.6859  -6.6859  -6.6852  -6.6842  -1.6613  -1.4669
 -1.3695  -1.2254  -1.1451  -1.0734  -1.0228  -0.9909  -0.9609  -0.9041
 -0.8669  -0.8100  -0.7922  -0.7615  -0.7335  -0.7260  -0.6995  -0.6844
 -0.6738  -0.6626  -0.6121  -0.6014  -0.5956  -0.5782  -0.5674  -0.5623
 -0.5311  -0.5190  -0.5110  -0.4911  -0.4752  -0.4727  -0.4708  -0.4498
 -0.3790  -0.3373  -0.2924

          Ground-State Mulliken Net Atomic Charges

     Atom                 Charge (a.u.)
  ----------------------------------------
      1 C                    -0.140200
      2 S                     0.110322
      3 C                    -0.157968
      4 C                     0.085222
      5 C                    -0.125987
      6 S                     0.045026
      7 C                    -0.157708
      8 C                     0.394043
      9 F                    -0.205961
     10 C                     0.449461
     11 O                    -0.464455
     12 O                    -0.301580
     13 C                    -0.058205
     14 H                     0.121223
     15 H                     0.095053
     16 H                     0.094742
     17 C                    -0.372517
     18 H                     0.108602
     19 H                     0.147318
     20 H                     0.117473
     21 H                     0.216098
  ----------------------------------------
  Sum of atomic charges =     0.000000

                    Cartesian Multipole Moments
 -----------------------------------------------------------------
    Charge (ESU x 10^10)
                -0.0000
    Dipole Moment (Debye)
         X       3.5240      Y       0.4704      Z       2.5073
       Tot       4.3504
    Quadrupole Moments (Debye-Ang)
        XX     -90.7621     XY       4.1961     YY     -91.7423
        XZ      -4.4559     YZ      -4.0574     ZZ     -95.4737

 Total job time:  60.17s(wall), 2000.92s(cpu)
        *  Thank you very much for using Q-Chem.  Have a nice day.  *
