 Q-Chem 5.4, Q-Chem, Inc., Pleasanton, CA (2021)
 Q-Chem 5.4.0 for Intel X86 EM64T Linux

User input:
--------------------------------------------------------------
$molecule
0 1
C	-0.799146	-0.619704	0.976939
S	-0.105746	-0.038504	2.484439
C	1.098354	0.972896	1.695839
C	-0.105846	-0.038904	-0.090961
C	0.957654	0.856396	0.290539
S	-0.290546	-0.197704	-1.828561
C	1.047754	0.932496	-2.077561
C	1.588754	1.389696	-0.885661
F	2.609554	2.252596	-0.842161
C	1.392154	1.219096	-3.479161
O	0.807554	0.718096	-4.429561
O	2.421954	2.092896	-3.592261
C	2.804554	2.407096	-4.939261
H	3.643454	3.120196	-4.856161
H	1.959854	2.864196	-5.493261
H	3.122854	1.494396	-5.482361
C	-0.799146	-2.054904	0.976939
H	0.213154	-2.062904	0.600539
H	-0.511346	-2.732804	1.766839
H	-1.127046	-2.586004	0.095539
H	1.805554	1.568096	2.283439
$end

$rem
JOBTYPE		SP
EXCHANGE	HF
CORRELATION	pRIMP2
BASIS		cc-pvtz
METHOD		rimp2
AUX_BASIS	rimp2-cc-pvtz
SOLVENT_METHOD	PCM
PURECART	11111
SYMMETRY	false
MEM_TOTAL	110000
SCF_CONVERGENCE = 6
THRESH=10
GUI = 2
$end

$solvent
dielectric 4.90
$end
--------------------------------------------------------------

             Standard Nuclear Orientation (Angstroms)
    I     Atom           X                Y                Z
 ----------------------------------------------------------------
    1      C      -0.7991460000    -0.6197040000     0.9769390000
    2      S      -0.1057460000    -0.0385040000     2.4844390000
    3      C       1.0983540000     0.9728960000     1.6958390000
    4      C      -0.1058460000    -0.0389040000    -0.0909610000
    5      C       0.9576540000     0.8563960000     0.2905390000
    6      S      -0.2905460000    -0.1977040000    -1.8285610000
    7      C       1.0477540000     0.9324960000    -2.0775610000
    8      C       1.5887540000     1.3896960000    -0.8856610000
    9      F       2.6095540000     2.2525960000    -0.8421610000
   10      C       1.3921540000     1.2190960000    -3.4791610000
   11      O       0.8075540000     0.7180960000    -4.4295610000
   12      O       2.4219540000     2.0928960000    -3.5922610000
   13      C       2.8045540000     2.4070960000    -4.9392610000
   14      H       3.6434540000     3.1201960000    -4.8561610000
   15      H       1.9598540000     2.8641960000    -5.4932610000
   16      H       3.1228540000     1.4943960000    -5.4823610000
   17      C      -0.7991460000    -2.0549040000     0.9769390000
   18      H       0.2131540000    -2.0629040000     0.6005390000
   19      H      -0.5113460000    -2.7328040000     1.7668390000
   20      H      -1.1270460000    -2.5860040000     0.0955390000
   21      H       1.8055540000     1.5680960000     2.2834390000
 ----------------------------------------------------------------

   11   -1389.2197780474      5.06e-07  Convergence criterion met
 Total energy in the final basis set =    -1389.2197780474
        RIMP2         total energy =     -1391.7365774878 a.u.

                    Orbital Energies (a.u.)
 --------------------------------------------------------------

 Alpha MOs
 -- Occupied --
-92.0060 -91.9993 -26.3424 -20.6142 -20.5602 -11.4085 -11.3812 -11.3095
-11.2953 -11.2923 -11.2886 -11.2817 -11.2809 -11.2226  -9.0052  -8.9991
 -6.6859  -6.6851  -6.6849  -6.6801  -6.6794  -6.6784  -1.6596  -1.4666
 -1.3692  -1.2200  -1.1426  -1.0701  -1.0209  -0.9916  -0.9598  -0.9069
 -0.8655  -0.8078  -0.7906  -0.7602  -0.7321  -0.7244  -0.6961  -0.6840
 -0.6734  -0.6613  -0.6123  -0.5986  -0.5959  -0.5766  -0.5648  -0.5619
 -0.5310  -0.5212  -0.5090  -0.4992  -0.4740  -0.4726  -0.4716  -0.4562
 -0.3805  -0.3433  -0.2850

          Ground-State Mulliken Net Atomic Charges

     Atom                 Charge (a.u.)
  ----------------------------------------
      1 C                    -0.070982
      2 S                     0.098668
      3 C                    -0.190454
      4 C                     0.033542
      5 C                    -0.102986
      6 S                     0.021034
      7 C                    -0.153097
      8 C                     0.389643
      9 F                    -0.207291
     10 C                     0.448803
     11 O                    -0.462924
     12 O                    -0.301137
     13 C                    -0.058357
     14 H                     0.121192
     15 H                     0.094988
     16 H                     0.094758
     17 C                    -0.379662
     18 H                     0.122869
     19 H                     0.157777
     20 H                     0.129902
     21 H                     0.213716
  ----------------------------------------
  Sum of atomic charges =     0.000000

                    Cartesian Multipole Moments
 -----------------------------------------------------------------
    Charge (ESU x 10^10)
                -0.0000
    Dipole Moment (Debye)
         X       2.6977      Y       0.3097      Z       2.7897
       Tot       3.8931
    Quadrupole Moments (Debye-Ang)
        XX     -92.2581     XY       4.7265     YY     -88.9673
        XZ      -4.8662     YZ      -6.0724     ZZ     -95.7838

 Total job time:  58.12s(wall), 2024.97s(cpu)
        *  Thank you very much for using Q-Chem.  Have a nice day.  *
