 Q-Chem 5.4, Q-Chem, Inc., Pleasanton, CA (2021)
 Q-Chem 5.4.0 for Intel X86 EM64T Linux

User input:
--------------------------------------------------------------
$molecule
0 1
C	-0.901351	-0.471137	0.973565
S	-0.117551	-0.019137	2.481065
C	1.243949	0.767763	1.692465
C	-0.117651	-0.019537	-0.094335
C	1.085049	0.677463	0.287165
S	-0.327251	-0.143837	-1.831935
C	1.187049	0.736763	-2.080935
C	1.799149	1.093063	-0.889035
F	2.954349	1.765563	-0.845535
C	1.575949	0.959163	-3.482535
O	0.913249	0.567363	-4.432935
O	2.741849	1.640863	-3.595635
C	3.173149	1.883963	-4.942635
H	4.123249	2.440463	-4.859535
H	2.420649	2.480763	-5.496635
H	3.328149	0.929763	-5.485735
C	-0.901351	-1.906337	0.973565
H	-0.893951	-1.914337	2.053465
H	-1.742051	-2.584237	0.973865
H	0.039049	-2.437437	0.966865
H	2.043649	1.231163	2.280065
$end

$rem
JOBTYPE		SP
EXCHANGE	HF
CORRELATION	pRIMP2
BASIS		cc-pvtz
METHOD		rimp2
AUX_BASIS	rimp2-cc-pvtz
SOLVENT_METHOD	PCM
PURECART	11111
SYMMETRY	false
MEM_TOTAL	110000
SCF_CONVERGENCE = 6
THRESH=10
GUI = 2
$end

$solvent
dielectric 4.90
$end
--------------------------------------------------------------

             Standard Nuclear Orientation (Angstroms)
    I     Atom           X                Y                Z
 ----------------------------------------------------------------
    1      C      -0.9013510000    -0.4711370000     0.9735650000
    2      S      -0.1175510000    -0.0191370000     2.4810650000
    3      C       1.2439490000     0.7677630000     1.6924650000
    4      C      -0.1176510000    -0.0195370000    -0.0943350000
    5      C       1.0850490000     0.6774630000     0.2871650000
    6      S      -0.3272510000    -0.1438370000    -1.8319350000
    7      C       1.1870490000     0.7367630000    -2.0809350000
    8      C       1.7991490000     1.0930630000    -0.8890350000
    9      F       2.9543490000     1.7655630000    -0.8455350000
   10      C       1.5759490000     0.9591630000    -3.4825350000
   11      O       0.9132490000     0.5673630000    -4.4329350000
   12      O       2.7418490000     1.6408630000    -3.5956350000
   13      C       3.1731490000     1.8839630000    -4.9426350000
   14      H       4.1232490000     2.4404630000    -4.8595350000
   15      H       2.4206490000     2.4807630000    -5.4966350000
   16      H       3.3281490000     0.9297630000    -5.4857350000
   17      C      -0.9013510000    -1.9063370000     0.9735650000
   18      H      -0.8939510000    -1.9143370000     2.0534650000
   19      H      -1.7420510000    -2.5842370000     0.9738650000
   20      H       0.0390490000    -2.4374370000     0.9668650000
   21      H       2.0436490000     1.2311630000     2.2800650000
 ----------------------------------------------------------------

   11   -1389.1951699798      6.05e-07  Convergence criterion met
 Total energy in the final basis set =    -1389.1951699798
        RIMP2         total energy =     -1391.7110472196 a.u.

                    Orbital Energies (a.u.)
 --------------------------------------------------------------

 Alpha MOs
 -- Occupied --
-92.0034 -92.0029 -26.3437 -20.6138 -20.5595 -11.4080 -11.3836 -11.3271
-11.3075 -11.2934 -11.2885 -11.2802 -11.2561 -11.2143  -9.0036  -9.0027
 -6.6842  -6.6836  -6.6831  -6.6831  -6.6829  -6.6819  -1.6609  -1.4662
 -1.3688  -1.2233  -1.1458  -1.0691  -1.0245  -0.9902  -0.9618  -0.9036
 -0.8678  -0.8133  -0.7914  -0.7598  -0.7351  -0.7255  -0.6961  -0.6836
 -0.6732  -0.6623  -0.6091  -0.6078  -0.5928  -0.5745  -0.5662  -0.5605
 -0.5304  -0.5189  -0.5121  -0.4800  -0.4781  -0.4723  -0.4707  -0.4383
 -0.3868  -0.3381  -0.3019

          Ground-State Mulliken Net Atomic Charges

     Atom                 Charge (a.u.)
  ----------------------------------------
      1 C                    -0.137674
      2 S                     0.094029
      3 C                    -0.139228
      4 C                     0.083236
      5 C                    -0.114818
      6 S                     0.039237
      7 C                    -0.159892
      8 C                     0.393748
      9 F                    -0.206333
     10 C                     0.447976
     11 O                    -0.465048
     12 O                    -0.301848
     13 C                    -0.058315
     14 H                     0.120997
     15 H                     0.094910
     16 H                     0.094651
     17 C                    -0.356801
     18 H                     0.108540
     19 H                     0.128867
     20 H                     0.116289
     21 H                     0.217475
  ----------------------------------------
  Sum of atomic charges =     0.000000

                    Cartesian Multipole Moments
 -----------------------------------------------------------------
    Charge (ESU x 10^10)
                -0.0000
    Dipole Moment (Debye)
         X       3.2804      Y       0.6230      Z       3.4410
       Tot       4.7948
    Quadrupole Moments (Debye-Ang)
        XX     -89.6822     XY       5.1711     YY     -91.7498
        XZ      -5.5580     YZ      -5.4956     ZZ     -94.4252

 Total job time:  55.83s(wall), 1952.57s(cpu)
        *  Thank you very much for using Q-Chem.  Have a nice day.  *
