 Q-Chem 5.4, Q-Chem, Inc., Pleasanton, CA (2021)
 Q-Chem 5.4.0 for Intel X86 EM64T Linux

User input:
--------------------------------------------------------------
$molecule
0 1
C	-0.357535	-0.928548	0.977293
S	-0.047635	-0.078548	2.484793
C	0.489465	1.399452	1.696193
C	-0.047535	-0.078948	-0.090607
C	0.425765	1.228152	0.290893
S	-0.128135	-0.308748	-1.828207
C	0.465765	1.339152	-2.077207
C	0.705765	2.005552	-0.885307
F	1.158365	3.263252	-0.841807
C	0.620765	1.759552	-3.478807
O	0.364965	1.033352	-4.429207
O	1.075665	3.031152	-3.591907
C	1.249965	3.494552	-4.938907
H	1.619965	4.531652	-4.855807
H	0.289865	3.468052	-5.492907
H	1.981965	2.863252	-5.482007
C	-0.357535	-2.363748	0.977293
H	0.573965	-2.371748	0.430893
H	0.063065	-3.041648	1.705193
H	-0.833435	-2.894848	0.166293
H	0.804265	2.268452	2.283793
$end

$rem
JOBTYPE		SP
EXCHANGE	HF
CORRELATION	pRIMP2
BASIS		cc-pvtz
METHOD		rimp2
AUX_BASIS	rimp2-cc-pvtz
SOLVENT_METHOD	PCM
PURECART	11111
SYMMETRY	false
MEM_TOTAL	110000
SCF_CONVERGENCE = 6
THRESH=10
GUI = 2
$end

$solvent
dielectric 4.90
$end
--------------------------------------------------------------

             Standard Nuclear Orientation (Angstroms)
    I     Atom           X                Y                Z
 ----------------------------------------------------------------
    1      C      -0.3575350000    -0.9285480000     0.9772930000
    2      S      -0.0476350000    -0.0785480000     2.4847930000
    3      C       0.4894650000     1.3994520000     1.6961930000
    4      C      -0.0475350000    -0.0789480000    -0.0906070000
    5      C       0.4257650000     1.2281520000     0.2908930000
    6      S      -0.1281350000    -0.3087480000    -1.8282070000
    7      C       0.4657650000     1.3391520000    -2.0772070000
    8      C       0.7057650000     2.0055520000    -0.8853070000
    9      F       1.1583650000     3.2632520000    -0.8418070000
   10      C       0.6207650000     1.7595520000    -3.4788070000
   11      O       0.3649650000     1.0333520000    -4.4292070000
   12      O       1.0756650000     3.0311520000    -3.5919070000
   13      C       1.2499650000     3.4945520000    -4.9389070000
   14      H       1.6199650000     4.5316520000    -4.8558070000
   15      H       0.2898650000     3.4680520000    -5.4929070000
   16      H       1.9819650000     2.8632520000    -5.4820070000
   17      C      -0.3575350000    -2.3637480000     0.9772930000
   18      H       0.5739650000    -2.3717480000     0.4308930000
   19      H       0.0630650000    -3.0416480000     1.7051930000
   20      H      -0.8334350000    -2.8948480000     0.1662930000
   21      H       0.8042650000     2.2684520000     2.2837930000
 ----------------------------------------------------------------

   11   -1389.2653724128      5.05e-07  Convergence criterion met
 Total energy in the final basis set =    -1389.2653724128
        RIMP2         total energy =     -1391.7721527639 a.u.

                    Orbital Energies (a.u.)
 --------------------------------------------------------------

 Alpha MOs
 -- Occupied --
-92.0062 -91.9927 -26.3405 -20.6136 -20.5597 -11.4076 -11.3785 -11.3000
-11.2946 -11.2936 -11.2882 -11.2821 -11.2790 -11.2292  -9.0049  -8.9928
 -6.6857  -6.6851  -6.6846  -6.6738  -6.6731  -6.6720  -1.6577  -1.4660
 -1.3686  -1.2128  -1.1369  -1.0678  -1.0183  -0.9947  -0.9580  -0.9122
 -0.8632  -0.8045  -0.7885  -0.7588  -0.7302  -0.7226  -0.6931  -0.6833
 -0.6727  -0.6603  -0.6107  -0.5959  -0.5916  -0.5862  -0.5629  -0.5601
 -0.5313  -0.5286  -0.5087  -0.4966  -0.4727  -0.4714  -0.4683  -0.4625
 -0.3838  -0.3443  -0.2837

          Ground-State Mulliken Net Atomic Charges

     Atom                 Charge (a.u.)
  ----------------------------------------
      1 C                     0.036685
      2 S                     0.081953
      3 C                    -0.226020
      4 C                    -0.029665
      5 C                    -0.086099
      6 S                    -0.010452
      7 C                    -0.154641
      8 C                     0.387511
      9 F                    -0.208328
     10 C                     0.447055
     11 O                    -0.462218
     12 O                    -0.300838
     13 C                    -0.058441
     14 H                     0.121078
     15 H                     0.094814
     16 H                     0.094646
     17 C                    -0.391631
     18 H                     0.140299
     19 H                     0.166962
     20 H                     0.145598
     21 H                     0.211731
  ----------------------------------------
  Sum of atomic charges =     0.000000

                    Cartesian Multipole Moments
 -----------------------------------------------------------------
    Charge (ESU x 10^10)
                -0.0000
    Dipole Moment (Debye)
         X       1.2581      Y       0.0912      Z       2.9076
       Tot       3.1694
    Quadrupole Moments (Debye-Ang)
        XX     -96.0624     XY       2.1964     YY     -82.2168
        XZ      -1.9947     YZ      -9.3615     ZZ     -97.0163

 Total job time:  57.94s(wall), 1969.25s(cpu)
        *  Thank you very much for using Q-Chem.  Have a nice day.  *
