 Q-Chem 5.4, Q-Chem, Inc., Pleasanton, CA (2021)
 Q-Chem 5.4.0 for Intel X86 EM64T Linux

User input:
--------------------------------------------------------------
$molecule
0 1
C	-0.521033	-0.851940	0.978067
S	-0.068233	-0.068640	2.485567
C	0.717367	1.293660	1.696967
C	-0.068133	-0.069040	-0.089833
C	0.624867	1.136060	0.291667
S	-0.187433	-0.281440	-1.827433
C	0.683567	1.238360	-2.076433
C	1.035567	1.852960	-0.884533
F	1.699767	3.012960	-0.841033
C	0.909267	1.625360	-3.478033
O	0.531167	0.954660	-4.428433
O	1.577967	2.798760	-3.591133
C	1.830067	3.224860	-4.938133
H	2.374567	4.181860	-4.855033
H	0.879967	3.365460	-5.492133
H	2.441367	2.476060	-5.481233
C	-0.521033	-2.287140	0.978067
H	0.012467	-2.295140	0.039067
H	0.207167	-2.965040	1.398167
H	-1.338733	-2.818240	0.513667
H	1.178267	2.094760	2.284567
$end

$rem
JOBTYPE		SP
EXCHANGE	HF
CORRELATION	pRIMP2
BASIS		cc-pvtz
METHOD		rimp2
AUX_BASIS	rimp2-cc-pvtz
SOLVENT_METHOD	PCM
PURECART	11111
SYMMETRY	false
MEM_TOTAL	110000
SCF_CONVERGENCE = 6
THRESH=10
GUI = 2
$end

$solvent
dielectric 4.90
$end
--------------------------------------------------------------

             Standard Nuclear Orientation (Angstroms)
    I     Atom           X                Y                Z
 ----------------------------------------------------------------
    1      C      -0.5210330000    -0.8519400000     0.9780670000
    2      S      -0.0682330000    -0.0686400000     2.4855670000
    3      C       0.7173670000     1.2936600000     1.6969670000
    4      C      -0.0681330000    -0.0690400000    -0.0898330000
    5      C       0.6248670000     1.1360600000     0.2916670000
    6      S      -0.1874330000    -0.2814400000    -1.8274330000
    7      C       0.6835670000     1.2383600000    -2.0764330000
    8      C       1.0355670000     1.8529600000    -0.8845330000
    9      F       1.6997670000     3.0129600000    -0.8410330000
   10      C       0.9092670000     1.6253600000    -3.4780330000
   11      O       0.5311670000     0.9546600000    -4.4284330000
   12      O       1.5779670000     2.7987600000    -3.5911330000
   13      C       1.8300670000     3.2248600000    -4.9381330000
   14      H       2.3745670000     4.1818600000    -4.8550330000
   15      H       0.8799670000     3.3654600000    -5.4921330000
   16      H       2.4413670000     2.4760600000    -5.4812330000
   17      C      -0.5210330000    -2.2871400000     0.9780670000
   18      H       0.0124670000    -2.2951400000     0.0390670000
   19      H       0.2071670000    -2.9650400000     1.3981670000
   20      H      -1.3387330000    -2.8182400000     0.5136670000
   21      H       1.1782670000     2.0947600000     2.2845670000
 ----------------------------------------------------------------

   11   -1389.2526338202      4.74e-07  Convergence criterion met
 Total energy in the final basis set =    -1389.2526338202
        RIMP2         total energy =     -1391.7629236959 a.u.

                    Orbital Energies (a.u.)
 --------------------------------------------------------------

 Alpha MOs
 -- Occupied --
-92.0045 -91.9964 -26.3418 -20.6139 -20.5599 -11.4080 -11.3806 -11.3028
-11.2947 -11.2904 -11.2884 -11.2884 -11.2794 -11.2227  -9.0035  -8.9964
 -6.6842  -6.6835  -6.6832  -6.6774  -6.6767  -6.6756  -1.6589  -1.4662
 -1.3689  -1.2153  -1.1373  -1.0685  -1.0194  -0.9933  -0.9587  -0.9117
 -0.8640  -0.8059  -0.7896  -0.7596  -0.7301  -0.7237  -0.6949  -0.6837
 -0.6731  -0.6610  -0.6075  -0.6013  -0.5916  -0.5865  -0.5646  -0.5594
 -0.5306  -0.5293  -0.5085  -0.4881  -0.4735  -0.4720  -0.4655  -0.4558
 -0.3864  -0.3434  -0.2919

          Ground-State Mulliken Net Atomic Charges

     Atom                 Charge (a.u.)
  ----------------------------------------
      1 C                    -0.004220
      2 S                     0.082659
      3 C                    -0.199666
      4 C                    -0.013341
      5 C                    -0.086033
      6 S                     0.004388
      7 C                    -0.157085
      8 C                     0.387520
      9 F                    -0.207111
     10 C                     0.446975
     11 O                    -0.462970
     12 O                    -0.301178
     13 C                    -0.058423
     14 H                     0.121177
     15 H                     0.094843
     16 H                     0.094686
     17 C                    -0.374323
     18 H                     0.122291
     19 H                     0.162883
     20 H                     0.134621
     21 H                     0.212307
  ----------------------------------------
  Sum of atomic charges =     0.000000

                    Cartesian Multipole Moments
 -----------------------------------------------------------------
    Charge (ESU x 10^10)
                -0.0000
    Dipole Moment (Debye)
         X       1.5555      Y       0.5957      Z       2.5851
       Tot       3.0753
    Quadrupole Moments (Debye-Ang)
        XX     -94.2713     XY       3.9762     YY     -84.6498
        XZ      -3.1145     YZ      -7.3587     ZZ     -97.4350

 Total job time:  67.94s(wall), 2012.45s(cpu)
        *  Thank you very much for using Q-Chem.  Have a nice day.  *
