 Q-Chem 5.4, Q-Chem, Inc., Pleasanton, CA (2021)
 Q-Chem 5.4.0 for Intel X86 EM64T Linux

User input:
--------------------------------------------------------------
$molecule
0 1
C	-0.355440	-0.928548	0.973560
S	-0.045540	-0.078548	2.481060
C	0.491560	1.399452	1.692460
C	-0.045440	-0.078948	-0.094340
C	0.427860	1.228152	0.287160
S	-0.126040	-0.308748	-1.831940
C	0.467860	1.339152	-2.080940
C	0.707860	2.005552	-0.889040
F	1.160460	3.263252	-0.845540
C	0.622860	1.759552	-3.482540
O	0.367060	1.033352	-4.432940
O	1.077760	3.031152	-3.595640
C	1.252060	3.494552	-4.942640
H	1.622060	4.531652	-4.859540
H	0.291960	3.468052	-5.496640
H	1.984060	2.863252	-5.485740
C	-0.355440	-2.363748	0.973560
H	-0.535640	-2.371748	2.038360
H	-1.183440	-3.041648	0.827860
H	0.571760	-2.894848	1.130260
H	0.806360	2.268452	2.280060
$end

$rem
JOBTYPE		SP
EXCHANGE	HF
CORRELATION	pRIMP2
BASIS		cc-pvtz
METHOD		rimp2
AUX_BASIS	rimp2-cc-pvtz
SOLVENT_METHOD	PCM
PURECART	11111
SYMMETRY	false
MEM_TOTAL	110000
SCF_CONVERGENCE = 6
THRESH=10
GUI = 2
$end

$solvent
dielectric 4.90
$end
--------------------------------------------------------------

             Standard Nuclear Orientation (Angstroms)
    I     Atom           X                Y                Z
 ----------------------------------------------------------------
    1      C      -0.3554400000    -0.9285480000     0.9735600000
    2      S      -0.0455400000    -0.0785480000     2.4810600000
    3      C       0.4915600000     1.3994520000     1.6924600000
    4      C      -0.0454400000    -0.0789480000    -0.0943400000
    5      C       0.4278600000     1.2281520000     0.2871600000
    6      S      -0.1260400000    -0.3087480000    -1.8319400000
    7      C       0.4678600000     1.3391520000    -2.0809400000
    8      C       0.7078600000     2.0055520000    -0.8890400000
    9      F       1.1604600000     3.2632520000    -0.8455400000
   10      C       0.6228600000     1.7595520000    -3.4825400000
   11      O       0.3670600000     1.0333520000    -4.4329400000
   12      O       1.0777600000     3.0311520000    -3.5956400000
   13      C       1.2520600000     3.4945520000    -4.9426400000
   14      H       1.6220600000     4.5316520000    -4.8595400000
   15      H       0.2919600000     3.4680520000    -5.4966400000
   16      H       1.9840600000     2.8632520000    -5.4857400000
   17      C      -0.3554400000    -2.3637480000     0.9735600000
   18      H      -0.5356400000    -2.3717480000     2.0383600000
   19      H      -1.1834400000    -3.0416480000     0.8278600000
   20      H       0.5717600000    -2.8948480000     1.1302600000
   21      H       0.8063600000     2.2684520000     2.2800600000
 ----------------------------------------------------------------

   11   -1389.2630244127      4.70e-07  Convergence criterion met
 Total energy in the final basis set =    -1389.2630244127
        RIMP2         total energy =     -1391.7697604028 a.u.

                    Orbital Energies (a.u.)
 --------------------------------------------------------------

 Alpha MOs
 -- Occupied --
-92.0082 -91.9930 -26.3406 -20.6134 -20.5594 -11.4074 -11.3788 -11.3026
-11.2941 -11.2886 -11.2880 -11.2867 -11.2788 -11.2241  -9.0071  -8.9931
 -6.6879  -6.6872  -6.6867  -6.6742  -6.6735  -6.6724  -1.6579  -1.4658
 -1.3684  -1.2130  -1.1375  -1.0647  -1.0202  -0.9944  -0.9589  -0.9118
 -0.8641  -0.8071  -0.7886  -0.7580  -0.7314  -0.7228  -0.6915  -0.6831
 -0.6726  -0.6606  -0.6074  -0.6023  -0.5917  -0.5773  -0.5656  -0.5576
 -0.5372  -0.5299  -0.5078  -0.4792  -0.4733  -0.4713  -0.4649  -0.4606
 -0.3913  -0.3449  -0.2922

          Ground-State Mulliken Net Atomic Charges

     Atom                 Charge (a.u.)
  ----------------------------------------
      1 C                     0.010902
      2 S                     0.078757
      3 C                    -0.205753
      4 C                    -0.012924
      5 C                    -0.087554
      6 S                     0.000513
      7 C                    -0.158054
      8 C                     0.392277
      9 F                    -0.208571
     10 C                     0.445266
     11 O                    -0.462443
     12 O                    -0.300999
     13 C                    -0.058460
     14 H                     0.120955
     15 H                     0.094771
     16 H                     0.094709
     17 C                    -0.359119
     18 H                     0.109213
     19 H                     0.154833
     20 H                     0.137065
     21 H                     0.214616
  ----------------------------------------
  Sum of atomic charges =     0.000000

                    Cartesian Multipole Moments
 -----------------------------------------------------------------
    Charge (ESU x 10^10)
                -0.0000
    Dipole Moment (Debye)
         X       0.7360      Y       0.7296      Z       3.7714
       Tot       3.9112
    Quadrupole Moments (Debye-Ang)
        XX     -95.0192     XY       4.0278     YY     -82.9463
        XZ      -2.8971     YZ     -10.5838     ZZ     -95.3860

 Total job time:  57.04s(wall), 1886.97s(cpu)
        *  Thank you very much for using Q-Chem.  Have a nice day.  *
