 Q-Chem 5.4, Q-Chem, Inc., Pleasanton, CA (2021)
 Q-Chem 5.4.0 for Intel X86 EM64T Linux

User input:
--------------------------------------------------------------
$molecule
0 1
C	-0.795100	-0.619704	0.974537
S	-0.101700	-0.038504	2.482037
C	1.102400	0.972896	1.693437
C	-0.101800	-0.038904	-0.093363
C	0.961700	0.856396	0.288137
S	-0.286500	-0.197704	-1.830963
C	1.051800	0.932496	-2.079963
C	1.592800	1.389696	-0.888063
F	2.613600	2.252596	-0.844563
C	1.396200	1.219096	-3.481563
O	0.811600	0.718096	-4.431963
O	2.426000	2.092896	-3.594663
C	2.808600	2.407096	-4.941663
H	3.647500	3.120196	-4.858563
H	1.963900	2.864196	-5.495663
H	3.126900	1.494396	-5.484763
C	-0.795100	-2.054904	0.974537
H	-1.726600	-2.062904	1.520937
H	-1.215700	-2.732804	0.246637
H	-0.319200	-2.586004	1.785537
H	1.809600	1.568096	2.281037
$end

$rem
JOBTYPE		SP
EXCHANGE	HF
CORRELATION	pRIMP2
BASIS		cc-pvtz
METHOD		rimp2
AUX_BASIS	rimp2-cc-pvtz
SOLVENT_METHOD	PCM
PURECART	11111
SYMMETRY	false
MEM_TOTAL	110000
SCF_CONVERGENCE = 6
THRESH=10
GUI = 2
$end

$solvent
dielectric 4.90
$end
--------------------------------------------------------------

             Standard Nuclear Orientation (Angstroms)
    I     Atom           X                Y                Z
 ----------------------------------------------------------------
    1      C      -0.7951000000    -0.6197040000     0.9745370000
    2      S      -0.1017000000    -0.0385040000     2.4820370000
    3      C       1.1024000000     0.9728960000     1.6934370000
    4      C      -0.1018000000    -0.0389040000    -0.0933630000
    5      C       0.9617000000     0.8563960000     0.2881370000
    6      S      -0.2865000000    -0.1977040000    -1.8309630000
    7      C       1.0518000000     0.9324960000    -2.0799630000
    8      C       1.5928000000     1.3896960000    -0.8880630000
    9      F       2.6136000000     2.2525960000    -0.8445630000
   10      C       1.3962000000     1.2190960000    -3.4815630000
   11      O       0.8116000000     0.7180960000    -4.4319630000
   12      O       2.4260000000     2.0928960000    -3.5946630000
   13      C       2.8086000000     2.4070960000    -4.9416630000
   14      H       3.6475000000     3.1201960000    -4.8585630000
   15      H       1.9639000000     2.8641960000    -5.4956630000
   16      H       3.1269000000     1.4943960000    -5.4847630000
   17      C      -0.7951000000    -2.0549040000     0.9745370000
   18      H      -1.7266000000    -2.0629040000     1.5209370000
   19      H      -1.2157000000    -2.7328040000     0.2466370000
   20      H      -0.3192000000    -2.5860040000     1.7855370000
   21      H       1.8096000000     1.5680960000     2.2810370000
 ----------------------------------------------------------------

   11   -1389.2154674159      4.98e-07  Convergence criterion met
 Total energy in the final basis set =    -1389.2154674159
        RIMP2         total energy =     -1391.7299249706 a.u.

                    Orbital Energies (a.u.)
 --------------------------------------------------------------

 Alpha MOs
 -- Occupied --
-92.0041 -91.9985 -26.3421 -20.6138 -20.5597 -11.4079 -11.3811 -11.3160
-11.2969 -11.2941 -11.2884 -11.2798 -11.2683 -11.2152  -9.0037  -8.9985
 -6.6844  -6.6836  -6.6833  -6.6794  -6.6787  -6.6777  -1.6593  -1.4662
 -1.3688  -1.2176  -1.1402  -1.0658  -1.0214  -0.9916  -0.9598  -0.9091
 -0.8653  -0.8090  -0.7899  -0.7592  -0.7318  -0.7240  -0.6940  -0.6836
 -0.6730  -0.6603  -0.6122  -0.5968  -0.5898  -0.5764  -0.5651  -0.5606
 -0.5310  -0.5235  -0.5081  -0.4884  -0.4735  -0.4716  -0.4708  -0.4530
 -0.3779  -0.3439  -0.2879

          Ground-State Mulliken Net Atomic Charges

     Atom                 Charge (a.u.)
  ----------------------------------------
      1 C                    -0.112668
      2 S                     0.086161
      3 C                    -0.161039
      4 C                     0.071863
      5 C                    -0.107572
      6 S                     0.022979
      7 C                    -0.158294
      8 C                     0.390990
      9 F                    -0.207522
     10 C                     0.447809
     11 O                    -0.463615
     12 O                    -0.301326
     13 C                    -0.058402
     14 H                     0.121073
     15 H                     0.094839
     16 H                     0.094747
     17 C                    -0.390844
     18 H                     0.127555
     19 H                     0.152352
     20 H                     0.135144
     21 H                     0.215770
  ----------------------------------------
  Sum of atomic charges =     0.000000

                    Cartesian Multipole Moments
 -----------------------------------------------------------------
    Charge (ESU x 10^10)
                -0.0000
    Dipole Moment (Debye)
         X       1.9438      Y       0.6286      Z       3.2193
       Tot       3.8128
    Quadrupole Moments (Debye-Ang)
        XX     -90.5133     XY       6.8997     YY     -89.2641
        XZ      -5.5484     YZ      -6.3296     ZZ     -95.1467

 Total job time:  62.85s(wall), 2075.54s(cpu)
        *  Thank you very much for using Q-Chem.  Have a nice day.  *
