 Q-Chem 5.4, Q-Chem, Inc., Pleasanton, CA (2021)
 Q-Chem 5.4.0 for Intel X86 EM64T Linux

User input:
--------------------------------------------------------------
$molecule
0 1
C	-0.519827	-0.851940	0.978264
S	-0.067027	-0.068640	2.485764
C	0.718573	1.293660	1.697164
C	-0.066927	-0.069040	-0.089636
C	0.626073	1.136060	0.291864
S	-0.186227	-0.281440	-1.827236
C	0.684773	1.238360	-2.076236
C	1.036773	1.852960	-0.884336
F	1.700973	3.012960	-0.840836
C	0.910473	1.625360	-3.477836
O	0.532373	0.954660	-4.428236
O	1.579173	2.798760	-3.590936
C	1.831273	3.224860	-4.937936
H	2.375773	4.181860	-4.854836
H	0.881173	3.365460	-5.491936
H	2.442573	2.476060	-5.481036
C	-0.519827	-2.287140	0.978264
H	-0.527227	-2.295140	-0.101636
H	0.320873	-2.965040	0.977964
H	-1.460227	-2.818240	0.984964
H	1.179473	2.094760	2.284764
$end

$rem
JOBTYPE		SP
EXCHANGE	HF
CORRELATION	pRIMP2
BASIS		cc-pvtz
METHOD		rimp2
AUX_BASIS	rimp2-cc-pvtz
SOLVENT_METHOD	PCM
PURECART	11111
SYMMETRY	false
MEM_TOTAL	110000
SCF_CONVERGENCE = 6
THRESH=10
GUI = 2
$end

$solvent
dielectric 4.90
$end
--------------------------------------------------------------

             Standard Nuclear Orientation (Angstroms)
    I     Atom           X                Y                Z
 ----------------------------------------------------------------
    1      C      -0.5198270000    -0.8519400000     0.9782640000
    2      S      -0.0670270000    -0.0686400000     2.4857640000
    3      C       0.7185730000     1.2936600000     1.6971640000
    4      C      -0.0669270000    -0.0690400000    -0.0896360000
    5      C       0.6260730000     1.1360600000     0.2918640000
    6      S      -0.1862270000    -0.2814400000    -1.8272360000
    7      C       0.6847730000     1.2383600000    -2.0762360000
    8      C       1.0367730000     1.8529600000    -0.8843360000
    9      F       1.7009730000     3.0129600000    -0.8408360000
   10      C       0.9104730000     1.6253600000    -3.4778360000
   11      O       0.5323730000     0.9546600000    -4.4282360000
   12      O       1.5791730000     2.7987600000    -3.5909360000
   13      C       1.8312730000     3.2248600000    -4.9379360000
   14      H       2.3757730000     4.1818600000    -4.8548360000
   15      H       0.8811730000     3.3654600000    -5.4919360000
   16      H       2.4425730000     2.4760600000    -5.4810360000
   17      C      -0.5198270000    -2.2871400000     0.9782640000
   18      H      -0.5272270000    -2.2951400000    -0.1016360000
   19      H       0.3208730000    -2.9650400000     0.9779640000
   20      H      -1.4602270000    -2.8182400000     0.9849640000
   21      H       1.1794730000     2.0947600000     2.2847640000
 ----------------------------------------------------------------

   11   -1389.2548075426      4.63e-07  Convergence criterion met
 Total energy in the final basis set =    -1389.2548075426
        RIMP2         total energy =     -1391.7644845685 a.u.

                    Orbital Energies (a.u.)
 --------------------------------------------------------------

 Alpha MOs
 -- Occupied --
-92.0018 -91.9967 -26.3421 -20.6139 -20.5599 -11.4081 -11.3811 -11.3069
-11.2950 -11.2948 -11.2884 -11.2844 -11.2795 -11.2223  -9.0012  -8.9968
 -6.6819  -6.6812  -6.6808  -6.6778  -6.6771  -6.6760  -1.6592  -1.4663
 -1.3689  -1.2159  -1.1367  -1.0686  -1.0196  -0.9933  -0.9588  -0.9128
 -0.8642  -0.8064  -0.7898  -0.7598  -0.7302  -0.7240  -0.6955  -0.6837
 -0.6731  -0.6614  -0.6069  -0.6040  -0.5920  -0.5840  -0.5647  -0.5577
 -0.5329  -0.5303  -0.5083  -0.4874  -0.4740  -0.4722  -0.4663  -0.4444
 -0.3923  -0.3446  -0.2950

          Ground-State Mulliken Net Atomic Charges

     Atom                 Charge (a.u.)
  ----------------------------------------
      1 C                    -0.015971
      2 S                     0.079958
      3 C                    -0.189440
      4 C                    -0.013869
      5 C                    -0.086876
      6 S                     0.003081
      7 C                    -0.157153
      8 C                     0.390869
      9 F                    -0.206894
     10 C                     0.446231
     11 O                    -0.463120
     12 O                    -0.301309
     13 C                    -0.058443
     14 H                     0.121181
     15 H                     0.094844
     16 H                     0.094729
     17 C                    -0.345733
     18 H                     0.109183
     19 H                     0.155514
     20 H                     0.130151
     21 H                     0.213070
  ----------------------------------------
  Sum of atomic charges =     0.000000

                    Cartesian Multipole Moments
 -----------------------------------------------------------------
    Charge (ESU x 10^10)
                -0.0000
    Dipole Moment (Debye)
         X       1.3337      Y       0.7903      Z       2.4617
       Tot       2.9092
    Quadrupole Moments (Debye-Ang)
        XX     -93.7387     XY       4.8033     YY     -84.6638
        XZ      -3.5464     YZ      -6.7936     ZZ     -97.8501

 Total job time:  62.42s(wall), 2003.19s(cpu)
        *  Thank you very much for using Q-Chem.  Have a nice day.  *
