 Q-Chem 5.4, Q-Chem, Inc., Pleasanton, CA (2021)
 Q-Chem 5.4.0 for Intel X86 EM64T Linux

User input:
--------------------------------------------------------------
$molecule
0 1
C	-0.357745	-0.928548	0.976939
S	-0.047845	-0.078548	2.484439
C	0.489255	1.399452	1.695839
C	-0.047745	-0.078948	-0.090961
C	0.425555	1.228152	0.290539
S	-0.128345	-0.308748	-1.828561
C	0.465555	1.339152	-2.077561
C	0.705555	2.005552	-0.885661
F	1.158155	3.263252	-0.842161
C	0.620555	1.759552	-3.479161
O	0.364755	1.033352	-4.429561
O	1.075455	3.031152	-3.592261
C	1.249755	3.494552	-4.939261
H	1.619755	4.531652	-4.856161
H	0.289655	3.468052	-5.493261
H	1.981755	2.863252	-5.482361
C	-0.357745	-2.363748	0.976939
H	0.654555	-2.371748	0.600539
H	-0.069945	-3.041648	1.766839
H	-0.685645	-2.894848	0.095539
H	0.804055	2.268452	2.283439
$end

$rem
JOBTYPE		SP
EXCHANGE	HF
CORRELATION	pRIMP2
BASIS		cc-pvtz
METHOD		rimp2
AUX_BASIS	rimp2-cc-pvtz
SOLVENT_METHOD	PCM
PURECART	11111
SYMMETRY	false
MEM_TOTAL	110000
SCF_CONVERGENCE = 6
THRESH=10
GUI = 2
$end

$solvent
dielectric 4.90
$end
--------------------------------------------------------------

             Standard Nuclear Orientation (Angstroms)
    I     Atom           X                Y                Z
 ----------------------------------------------------------------
    1      C      -0.3577450000    -0.9285480000     0.9769390000
    2      S      -0.0478450000    -0.0785480000     2.4844390000
    3      C       0.4892550000     1.3994520000     1.6958390000
    4      C      -0.0477450000    -0.0789480000    -0.0909610000
    5      C       0.4255550000     1.2281520000     0.2905390000
    6      S      -0.1283450000    -0.3087480000    -1.8285610000
    7      C       0.4655550000     1.3391520000    -2.0775610000
    8      C       0.7055550000     2.0055520000    -0.8856610000
    9      F       1.1581550000     3.2632520000    -0.8421610000
   10      C       0.6205550000     1.7595520000    -3.4791610000
   11      O       0.3647550000     1.0333520000    -4.4295610000
   12      O       1.0754550000     3.0311520000    -3.5922610000
   13      C       1.2497550000     3.4945520000    -4.9392610000
   14      H       1.6197550000     4.5316520000    -4.8561610000
   15      H       0.2896550000     3.4680520000    -5.4932610000
   16      H       1.9817550000     2.8632520000    -5.4823610000
   17      C      -0.3577450000    -2.3637480000     0.9769390000
   18      H       0.6545550000    -2.3717480000     0.6005390000
   19      H      -0.0699450000    -3.0416480000     1.7668390000
   20      H      -0.6856450000    -2.8948480000     0.0955390000
   21      H       0.8040550000     2.2684520000     2.2834390000
 ----------------------------------------------------------------

   11   -1389.2662914970      5.15e-07  Convergence criterion met
 Total energy in the final basis set =    -1389.2662914970
        RIMP2         total energy =     -1391.7724712397 a.u.

                    Orbital Energies (a.u.)
 --------------------------------------------------------------

 Alpha MOs
 -- Occupied --
-92.0061 -91.9919 -26.3402 -20.6136 -20.5597 -11.4075 -11.3781 -11.3016
-11.2946 -11.2925 -11.2881 -11.2809 -11.2789 -11.2306  -9.0049  -8.9920
 -6.6857  -6.6851  -6.6846  -6.6731  -6.6724  -6.6712  -1.6575  -1.4659
 -1.3685  -1.2125  -1.1372  -1.0677  -1.0182  -0.9948  -0.9579  -0.9121
 -0.8630  -0.8043  -0.7883  -0.7587  -0.7304  -0.7224  -0.6927  -0.6833
 -0.6727  -0.6601  -0.6114  -0.5952  -0.5924  -0.5845  -0.5618  -0.5607
 -0.5311  -0.5274  -0.5109  -0.4995  -0.4724  -0.4714  -0.4695  -0.4617
 -0.3835  -0.3446  -0.2818

          Ground-State Mulliken Net Atomic Charges

     Atom                 Charge (a.u.)
  ----------------------------------------
      1 C                     0.041637
      2 S                     0.082121
      3 C                    -0.230542
      4 C                    -0.037286
      5 C                    -0.084072
      6 S                    -0.012450
      7 C                    -0.154350
      8 C                     0.387635
      9 F                    -0.208562
     10 C                     0.447003
     11 O                    -0.461990
     12 O                    -0.300799
     13 C                    -0.058450
     14 H                     0.121071
     15 H                     0.094816
     16 H                     0.094638
     17 C                    -0.390749
     18 H                     0.146081
     19 H                     0.166857
     20 H                     0.145636
     21 H                     0.211755
  ----------------------------------------
  Sum of atomic charges =     0.000000

                    Cartesian Multipole Moments
 -----------------------------------------------------------------
    Charge (ESU x 10^10)
                -0.0000
    Dipole Moment (Debye)
         X       1.2973      Y      -0.0222      Z       3.0196
       Tot       3.2865
    Quadrupole Moments (Debye-Ang)
        XX     -96.2104     XY       2.1126     YY     -82.0346
        XZ      -2.0841     YZ      -9.7418     ZZ     -96.8152

 Total job time:  56.11s(wall), 1959.80s(cpu)
        *  Thank you very much for using Q-Chem.  Have a nice day.  *
