 Q-Chem 5.4, Q-Chem, Inc., Pleasanton, CA (2021)
 Q-Chem 5.4.0 for Intel X86 EM64T Linux

User input:
--------------------------------------------------------------
$molecule
0 1
C	-0.666747	-0.747937	0.977246
S	-0.084847	-0.055137	2.484746
C	0.925453	1.149963	1.696146
C	-0.084847	-0.055537	-0.090654
C	0.806953	1.010863	0.290846
S	-0.239147	-0.244037	-1.828254
C	0.882553	1.101463	-2.077254
C	1.335953	1.645563	-0.885354
F	2.191453	2.672563	-0.841854
C	1.171953	1.443363	-3.478854
O	0.683253	0.848563	-4.429254
O	2.034353	2.482763	-3.591954
C	2.356553	2.858663	-4.938954
H	3.058953	3.706563	-4.855854
H	1.445353	3.162063	-5.492954
H	2.828553	2.015063	-5.482054
C	-0.666747	-2.183137	0.977246
H	-1.498847	-2.191137	0.288746
H	-0.126547	-2.861037	0.333046
H	-1.266047	-2.714237	1.701846
H	1.518453	1.858863	2.283746
$end

$rem
JOBTYPE		SP
EXCHANGE	HF
CORRELATION	pRIMP2
BASIS		cc-pvtz
METHOD		rimp2
AUX_BASIS	rimp2-cc-pvtz
SOLVENT_METHOD	PCM
PURECART	11111
SYMMETRY	false
MEM_TOTAL	110000
SCF_CONVERGENCE = 6
THRESH=10
GUI = 2
$end

$solvent
dielectric 4.90
$end
--------------------------------------------------------------

             Standard Nuclear Orientation (Angstroms)
    I     Atom           X                Y                Z
 ----------------------------------------------------------------
    1      C      -0.6667470000    -0.7479370000     0.9772460000
    2      S      -0.0848470000    -0.0551370000     2.4847460000
    3      C       0.9254530000     1.1499630000     1.6961460000
    4      C      -0.0848470000    -0.0555370000    -0.0906540000
    5      C       0.8069530000     1.0108630000     0.2908460000
    6      S      -0.2391470000    -0.2440370000    -1.8282540000
    7      C       0.8825530000     1.1014630000    -2.0772540000
    8      C       1.3359530000     1.6455630000    -0.8853540000
    9      F       2.1914530000     2.6725630000    -0.8418540000
   10      C       1.1719530000     1.4433630000    -3.4788540000
   11      O       0.6832530000     0.8485630000    -4.4292540000
   12      O       2.0343530000     2.4827630000    -3.5919540000
   13      C       2.3565530000     2.8586630000    -4.9389540000
   14      H       3.0589530000     3.7065630000    -4.8558540000
   15      H       1.4453530000     3.1620630000    -5.4929540000
   16      H       2.8285530000     2.0150630000    -5.4820540000
   17      C      -0.6667470000    -2.1831370000     0.9772460000
   18      H      -1.4988470000    -2.1911370000     0.2887460000
   19      H      -0.1265470000    -2.8610370000     0.3330460000
   20      H      -1.2660470000    -2.7142370000     1.7018460000
   21      H       1.5184530000     1.8588630000     2.2837460000
 ----------------------------------------------------------------

   11   -1389.2393969860      4.71e-07  Convergence criterion met
 Total energy in the final basis set =    -1389.2393969860
        RIMP2         total energy =     -1391.7517413931 a.u.

                    Orbital Energies (a.u.)
 --------------------------------------------------------------

 Alpha MOs
 -- Occupied --
-92.0008 -91.9978 -26.3421 -20.6139 -20.5599 -11.4081 -11.3809 -11.3083
-11.2956 -11.2946 -11.2884 -11.2800 -11.2792 -11.2201  -9.0003  -8.9977
 -6.6811  -6.6802  -6.6799  -6.6787  -6.6780  -6.6769  -1.6592  -1.4663
 -1.3689  -1.2161  -1.1374  -1.0671  -1.0197  -0.9931  -0.9589  -0.9119
 -0.8644  -0.8067  -0.7898  -0.7596  -0.7303  -0.7240  -0.6950  -0.6837
 -0.6731  -0.6610  -0.6115  -0.5972  -0.5920  -0.5769  -0.5628  -0.5575
 -0.5338  -0.5290  -0.5075  -0.4943  -0.4753  -0.4721  -0.4701  -0.4464
 -0.3824  -0.3448  -0.2886

          Ground-State Mulliken Net Atomic Charges

     Atom                 Charge (a.u.)
  ----------------------------------------
      1 C                    -0.032977
      2 S                     0.084086
      3 C                    -0.181547
      4 C                    -0.001500
      5 C                    -0.094132
      6 S                     0.013838
      7 C                    -0.156273
      8 C                     0.389167
      9 F                    -0.207007
     10 C                     0.447058
     11 O                    -0.463190
     12 O                    -0.301254
     13 C                    -0.058426
     14 H                     0.121148
     15 H                     0.094893
     16 H                     0.094684
     17 C                    -0.386252
     18 H                     0.127285
     19 H                     0.157420
     20 H                     0.140831
     21 H                     0.212147
  ----------------------------------------
  Sum of atomic charges =     0.000000

                    Cartesian Multipole Moments
 -----------------------------------------------------------------
    Charge (ESU x 10^10)
                -0.0000
    Dipole Moment (Debye)
         X       1.2680      Y       0.6104      Z       2.5951
       Tot       2.9521
    Quadrupole Moments (Debye-Ang)
        XX     -91.9682     XY       6.8511     YY     -86.7622
        XZ      -5.4473     YZ      -6.4479     ZZ     -97.0127

 Total job time:  78.33s(wall), 3000.84s(cpu)
        *  Thank you very much for using Q-Chem.  Have a nice day.  *
