 Q-Chem 5.4, Q-Chem, Inc., Pleasanton, CA (2021)
 Q-Chem 5.4.0 for Intel X86 EM64T Linux

User input:
--------------------------------------------------------------
$molecule
0 1
C	-0.438880	-0.893839	0.978188
S	-0.056080	-0.074039	2.485688
C	0.607820	1.351461	1.697088
C	-0.055980	-0.074439	-0.089712
C	0.529420	1.186461	0.291788
S	-0.156280	-0.296439	-1.827312
C	0.578920	1.293461	-2.076312
C	0.876120	1.936461	-0.884412
F	1.436620	3.149961	-0.840912
C	0.770020	1.698761	-3.477912
O	0.451920	0.997661	-4.428312
O	1.334020	2.925861	-3.591012
C	1.548020	3.372361	-4.938012
H	2.006920	4.373161	-4.854912
H	0.589220	3.429561	-5.492012
H	2.222220	2.679661	-5.481112
C	-0.438880	-2.329039	0.978188
H	-0.633780	-2.337039	-0.084012
H	0.389020	-3.006939	0.831888
H	-1.363780	-2.860139	1.147988
H	0.997120	2.189761	2.284688
$end

$rem
JOBTYPE		SP
EXCHANGE	HF
CORRELATION	pRIMP2
BASIS		cc-pvtz
METHOD		rimp2
AUX_BASIS	rimp2-cc-pvtz
SOLVENT_METHOD	PCM
PURECART	11111
SYMMETRY	false
MEM_TOTAL	110000
SCF_CONVERGENCE = 6
THRESH=10
GUI = 2
$end

$solvent
dielectric 4.90
$end
--------------------------------------------------------------

             Standard Nuclear Orientation (Angstroms)
    I     Atom           X                Y                Z
 ----------------------------------------------------------------
    1      C      -0.4388800000    -0.8938390000     0.9781880000
    2      S      -0.0560800000    -0.0740390000     2.4856880000
    3      C       0.6078200000     1.3514610000     1.6970880000
    4      C      -0.0559800000    -0.0744390000    -0.0897120000
    5      C       0.5294200000     1.1864610000     0.2917880000
    6      S      -0.1562800000    -0.2964390000    -1.8273120000
    7      C       0.5789200000     1.2934610000    -2.0763120000
    8      C       0.8761200000     1.9364610000    -0.8844120000
    9      F       1.4366200000     3.1499610000    -0.8409120000
   10      C       0.7700200000     1.6987610000    -3.4779120000
   11      O       0.4519200000     0.9976610000    -4.4283120000
   12      O       1.3340200000     2.9258610000    -3.5910120000
   13      C       1.5480200000     3.3723610000    -4.9380120000
   14      H       2.0069200000     4.3731610000    -4.8549120000
   15      H       0.5892200000     3.4295610000    -5.4920120000
   16      H       2.2222200000     2.6796610000    -5.4811120000
   17      C      -0.4388800000    -2.3290390000     0.9781880000
   18      H      -0.6337800000    -2.3370390000    -0.0840120000
   19      H       0.3890200000    -3.0069390000     0.8318880000
   20      H      -1.3637800000    -2.8601390000     1.1479880000
   21      H       0.9971200000     2.1897610000     2.2846880000
 ----------------------------------------------------------------

   11   -1389.2609541197      4.58e-07  Convergence criterion met
 Total energy in the final basis set =    -1389.2609541197
        RIMP2         total energy =     -1391.7693799961 a.u.

                    Orbital Energies (a.u.)
 --------------------------------------------------------------

 Alpha MOs
 -- Occupied --
-92.0018 -91.9957 -26.3418 -20.6138 -20.5599 -11.4080 -11.3806 -11.3050
-11.2947 -11.2939 -11.2884 -11.2871 -11.2794 -11.2238  -9.0011  -8.9959
 -6.6819  -6.6811  -6.6808  -6.6769  -6.6762  -6.6751  -1.6590  -1.4662
 -1.3688  -1.2151  -1.1361  -1.0682  -1.0193  -0.9940  -0.9586  -0.9135
 -0.8640  -0.8061  -0.7895  -0.7596  -0.7302  -0.7237  -0.6952  -0.6836
 -0.6730  -0.6614  -0.6083  -0.6027  -0.5920  -0.5829  -0.5649  -0.5567
 -0.5360  -0.5302  -0.5078  -0.4877  -0.4739  -0.4720  -0.4663  -0.4461
 -0.3927  -0.3449  -0.2937

          Ground-State Mulliken Net Atomic Charges

     Atom                 Charge (a.u.)
  ----------------------------------------
      1 C                     0.001817
      2 S                     0.078292
      3 C                    -0.193966
      4 C                    -0.021292
      5 C                    -0.088626
      6 S                    -0.000390
      7 C                    -0.157546
      8 C                     0.391129
      9 F                    -0.207124
     10 C                     0.446067
     11 O                    -0.462996
     12 O                    -0.301235
     13 C                    -0.058490
     14 H                     0.121175
     15 H                     0.094834
     16 H                     0.094729
     17 C                    -0.347801
     18 H                     0.108986
     19 H                     0.153469
     20 H                     0.135954
     21 H                     0.213014
  ----------------------------------------
  Sum of atomic charges =     0.000000

                    Cartesian Multipole Moments
 -----------------------------------------------------------------
    Charge (ESU x 10^10)
                -0.0000
    Dipole Moment (Debye)
         X       0.9575      Y       0.7485      Z       2.4969
       Tot       2.7769
    Quadrupole Moments (Debye-Ang)
        XX     -94.3404     XY       4.5919     YY     -83.6052
        XZ      -3.3011     YZ      -7.2652     ZZ     -97.9376

 Total job time:  60.34s(wall), 2031.70s(cpu)
        *  Thank you very much for using Q-Chem.  Have a nice day.  *
