 Q-Chem 5.4, Q-Chem, Inc., Pleasanton, CA (2021)
 Q-Chem 5.4.0 for Intel X86 EM64T Linux

User input:
--------------------------------------------------------------
$molecule
0 1
C	-0.182073	-0.975447	0.974266
S	-0.024473	-0.084547	2.481766
C	0.247827	1.464253	1.693166
C	-0.024273	-0.084847	-0.093634
C	0.214827	1.284553	0.287866
S	-0.063773	-0.325247	-1.831234
C	0.234927	1.400753	-2.080234
C	0.355527	2.098753	-0.888334
F	0.582927	3.415953	-0.844834
C	0.314627	1.841653	-3.481834
O	0.188827	1.082153	-4.432234
O	0.541827	3.172953	-3.594934
C	0.632927	3.659653	-4.941934
H	0.817227	4.745153	-4.858834
H	-0.307973	3.466753	-5.495934
H	1.463427	3.165053	-5.485034
C	-0.182073	-2.410647	0.974266
H	0.517827	-2.418647	1.796766
H	-0.825973	-3.088547	1.514866
H	0.534027	-2.941747	0.364666
H	0.406927	2.374753	2.280766
$end

$rem
JOBTYPE		SP
EXCHANGE	HF
CORRELATION	pRIMP2
BASIS		cc-pvtz
METHOD		rimp2
AUX_BASIS	rimp2-cc-pvtz
SOLVENT_METHOD	PCM
PURECART	11111
SYMMETRY	false
MEM_TOTAL	110000
SCF_CONVERGENCE = 6
THRESH=10
GUI = 2
$end

$solvent
dielectric 4.90
$end
--------------------------------------------------------------

             Standard Nuclear Orientation (Angstroms)
    I     Atom           X                Y                Z
 ----------------------------------------------------------------
    1      C      -0.1820730000    -0.9754470000     0.9742660000
    2      S      -0.0244730000    -0.0845470000     2.4817660000
    3      C       0.2478270000     1.4642530000     1.6931660000
    4      C      -0.0242730000    -0.0848470000    -0.0936340000
    5      C       0.2148270000     1.2845530000     0.2878660000
    6      S      -0.0637730000    -0.3252470000    -1.8312340000
    7      C       0.2349270000     1.4007530000    -2.0802340000
    8      C       0.3555270000     2.0987530000    -0.8883340000
    9      F       0.5829270000     3.4159530000    -0.8448340000
   10      C       0.3146270000     1.8416530000    -3.4818340000
   11      O       0.1888270000     1.0821530000    -4.4322340000
   12      O       0.5418270000     3.1729530000    -3.5949340000
   13      C       0.6329270000     3.6596530000    -4.9419340000
   14      H       0.8172270000     4.7451530000    -4.8588340000
   15      H      -0.3079730000     3.4667530000    -5.4959340000
   16      H       1.4634270000     3.1650530000    -5.4850340000
   17      C      -0.1820730000    -2.4106470000     0.9742660000
   18      H       0.5178270000    -2.4186470000     1.7967660000
   19      H      -0.8259730000    -3.0885470000     1.5148660000
   20      H       0.5340270000    -2.9417470000     0.3646660000
   21      H       0.4069270000     2.3747530000     2.2807660000
 ----------------------------------------------------------------

   11   -1389.2698267812      5.13e-07  Convergence criterion met
 Total energy in the final basis set =    -1389.2698267812
        RIMP2         total energy =     -1391.7742393587 a.u.

                    Orbital Energies (a.u.)
 --------------------------------------------------------------

 Alpha MOs
 -- Occupied --
-92.0057 -91.9909 -26.3402 -20.6133 -20.5594 -11.4072 -11.3781 -11.2978
-11.2965 -11.2941 -11.2879 -11.2840 -11.2783 -11.2272  -9.0048  -8.9911
 -6.6856  -6.6850  -6.6845  -6.6721  -6.6714  -6.6703  -1.6574  -1.4657
 -1.3683  -1.2121  -1.1369  -1.0655  -1.0191  -0.9950  -0.9583  -0.9124
 -0.8633  -0.8059  -0.7881  -0.7579  -0.7312  -0.7223  -0.6914  -0.6830
 -0.6725  -0.6602  -0.6096  -0.6004  -0.5922  -0.5767  -0.5649  -0.5557
 -0.5379  -0.5297  -0.5094  -0.4899  -0.4730  -0.4708  -0.4700  -0.4569
 -0.3883  -0.3456  -0.2862

          Ground-State Mulliken Net Atomic Charges

     Atom                 Charge (a.u.)
  ----------------------------------------
      1 C                     0.044962
      2 S                     0.074234
      3 C                    -0.212996
      4 C                    -0.027062
      5 C                    -0.088994
      6 S                    -0.006474
      7 C                    -0.157169
      8 C                     0.389078
      9 F                    -0.208794
     10 C                     0.445692
     11 O                    -0.462153
     12 O                    -0.300841
     13 C                    -0.058642
     14 H                     0.121020
     15 H                     0.094778
     16 H                     0.094648
     17 C                    -0.381692
     18 H                     0.126793
     19 H                     0.153686
     20 H                     0.146169
     21 H                     0.213758
  ----------------------------------------
  Sum of atomic charges =     0.000000

                    Cartesian Multipole Moments
 -----------------------------------------------------------------
    Charge (ESU x 10^10)
                -0.0000
    Dipole Moment (Debye)
         X       0.8272      Y       0.3948      Z       3.7482
       Tot       3.8586
    Quadrupole Moments (Debye-Ang)
        XX     -96.4065     XY       0.8460     YY     -81.3349
        XZ      -1.4039     YZ     -11.4220     ZZ     -95.6602

 Total job time:  56.38s(wall), 1952.10s(cpu)
        *  Thank you very much for using Q-Chem.  Have a nice day.  *
