 Q-Chem 5.4, Q-Chem, Inc., Pleasanton, CA (2021)
 Q-Chem 5.4.0 for Intel X86 EM64T Linux

User input:
--------------------------------------------------------------
$molecule
0 1
C	-0.901294	-0.471137	0.978269
S	-0.117494	-0.019137	2.485769
C	1.244006	0.767763	1.697169
C	-0.117594	-0.019537	-0.089631
C	1.085106	0.677463	0.291869
S	-0.327194	-0.143837	-1.827231
C	1.187106	0.736763	-2.076231
C	1.799206	1.093063	-0.884331
F	2.954406	1.765563	-0.840831
C	1.576006	0.959163	-3.477831
O	0.913306	0.567363	-4.428231
O	2.741906	1.640863	-3.590931
C	3.173206	1.883963	-4.937931
H	4.123306	2.440463	-4.854831
H	2.420706	2.480763	-5.491931
H	3.328206	0.929763	-5.481031
C	-0.901294	-1.906337	0.978269
H	-0.721094	-1.914337	-0.086531
H	-0.073294	-2.584237	1.123969
H	-1.828494	-2.437437	0.821569
H	2.043706	1.231163	2.284769
$end

$rem
JOBTYPE		SP
EXCHANGE	HF
CORRELATION	pRIMP2
BASIS		cc-pvtz
METHOD		rimp2
AUX_BASIS	rimp2-cc-pvtz
SOLVENT_METHOD	PCM
PURECART	11111
SYMMETRY	false
MEM_TOTAL	110000
SCF_CONVERGENCE = 6
THRESH=10
GUI = 2
$end

$solvent
dielectric 4.90
$end
--------------------------------------------------------------

             Standard Nuclear Orientation (Angstroms)
    I     Atom           X                Y                Z
 ----------------------------------------------------------------
    1      C      -0.9012940000    -0.4711370000     0.9782690000
    2      S      -0.1174940000    -0.0191370000     2.4857690000
    3      C       1.2440060000     0.7677630000     1.6971690000
    4      C      -0.1175940000    -0.0195370000    -0.0896310000
    5      C       1.0851060000     0.6774630000     0.2918690000
    6      S      -0.3271940000    -0.1438370000    -1.8272310000
    7      C       1.1871060000     0.7367630000    -2.0762310000
    8      C       1.7992060000     1.0930630000    -0.8843310000
    9      F       2.9544060000     1.7655630000    -0.8408310000
   10      C       1.5760060000     0.9591630000    -3.4778310000
   11      O       0.9133060000     0.5673630000    -4.4282310000
   12      O       2.7419060000     1.6408630000    -3.5909310000
   13      C       3.1732060000     1.8839630000    -4.9379310000
   14      H       4.1233060000     2.4404630000    -4.8548310000
   15      H       2.4207060000     2.4807630000    -5.4919310000
   16      H       3.3282060000     0.9297630000    -5.4810310000
   17      C      -0.9012940000    -1.9063370000     0.9782690000
   18      H      -0.7210940000    -1.9143370000    -0.0865310000
   19      H      -0.0732940000    -2.5842370000     1.1239690000
   20      H      -1.8284940000    -2.4374370000     0.8215690000
   21      H       2.0437060000     1.2311630000     2.2847690000
 ----------------------------------------------------------------

   11   -1389.1946897930      6.17e-07  Convergence criterion met
 Total energy in the final basis set =    -1389.1946897930
        RIMP2         total energy =     -1391.7129190533 a.u.

                    Orbital Energies (a.u.)
 --------------------------------------------------------------

 Alpha MOs
 -- Occupied --
-92.0058 -92.0017 -26.3447 -20.6146 -20.5605 -11.4091 -11.3851 -11.3258
-11.3090 -11.2953 -11.2890 -11.2816 -11.2564 -11.2124  -9.0056  -9.0015
 -6.6865  -6.6858  -6.6848  -6.6821  -6.6812  -6.6811  -1.6618  -1.4670
 -1.3697  -1.2250  -1.1433  -1.0741  -1.0226  -0.9906  -0.9607  -0.9062
 -0.8668  -0.8102  -0.7924  -0.7619  -0.7329  -0.7264  -0.7001  -0.6846
 -0.6740  -0.6627  -0.6111  -0.6039  -0.5930  -0.5827  -0.5648  -0.5618
 -0.5311  -0.5160  -0.5142  -0.4886  -0.4760  -0.4730  -0.4695  -0.4297
 -0.3846  -0.3390  -0.3042

          Ground-State Mulliken Net Atomic Charges

     Atom                 Charge (a.u.)
  ----------------------------------------
      1 C                    -0.148034
      2 S                     0.096172
      3 C                    -0.138795
      4 C                     0.090944
      5 C                    -0.120571
      6 S                     0.040447
      7 C                    -0.161736
      8 C                     0.396299
      9 F                    -0.205331
     10 C                     0.448858
     11 O                    -0.464566
     12 O                    -0.301657
     13 C                    -0.058198
     14 H                     0.121259
     15 H                     0.095058
     16 H                     0.094768
     17 C                    -0.351343
     18 H                     0.103959
     19 H                     0.135181
     20 H                     0.111414
     21 H                     0.215871
  ----------------------------------------
  Sum of atomic charges =     0.000000

                    Cartesian Multipole Moments
 -----------------------------------------------------------------
    Charge (ESU x 10^10)
                -0.0000
    Dipole Moment (Debye)
         X       3.4331      Y       0.6820      Z       2.1571
       Tot       4.1115
    Quadrupole Moments (Debye-Ang)
        XX     -89.7659     XY       4.5808     YY     -91.8117
        XZ      -4.4857     YZ      -3.2679     ZZ     -96.6511

 Total job time:  54.09s(wall), 1925.97s(cpu)
        *  Thank you very much for using Q-Chem.  Have a nice day.  *
