 Q-Chem 5.4, Q-Chem, Inc., Pleasanton, CA (2021)
 Q-Chem 5.4.0 for Intel X86 EM64T Linux

User input:
--------------------------------------------------------------
$molecule
0 1
C	-0.092003	-0.987267	0.977605
S	-0.012703	-0.085967	2.485105
C	0.123597	1.480633	1.696505
C	-0.012403	-0.086367	-0.090295
C	0.106397	1.298733	0.291205
S	-0.030803	-0.329267	-1.827895
C	0.116297	1.416233	-2.076895
C	0.175597	2.122133	-0.884995
F	0.287297	3.454033	-0.841495
C	0.157297	1.862433	-3.478495
O	0.098097	1.094833	-4.428895
O	0.267497	3.208433	-3.591595
C	0.315897	3.701233	-4.938595
H	0.404897	4.798633	-4.855495
H	-0.604603	3.427033	-5.492595
H	1.186397	3.280833	-5.481695
C	-0.092003	-2.422467	0.977605
H	0.730497	-2.430467	0.277705
H	0.448597	-3.100367	1.621505
H	-0.701603	-2.953567	0.261505
H	0.202797	2.401533	2.284105
$end

$rem
JOBTYPE		SP
EXCHANGE	HF
CORRELATION	pRIMP2
BASIS		cc-pvtz
METHOD		rimp2
AUX_BASIS	rimp2-cc-pvtz
SOLVENT_METHOD	PCM
PURECART	11111
SYMMETRY	false
MEM_TOTAL	110000
SCF_CONVERGENCE = 6
THRESH=10
GUI = 2
$end

$solvent
dielectric 4.90
$end
--------------------------------------------------------------

             Standard Nuclear Orientation (Angstroms)
    I     Atom           X                Y                Z
 ----------------------------------------------------------------
    1      C      -0.0920030000    -0.9872670000     0.9776050000
    2      S      -0.0127030000    -0.0859670000     2.4851050000
    3      C       0.1235970000     1.4806330000     1.6965050000
    4      C      -0.0124030000    -0.0863670000    -0.0902950000
    5      C       0.1063970000     1.2987330000     0.2912050000
    6      S      -0.0308030000    -0.3292670000    -1.8278950000
    7      C       0.1162970000     1.4162330000    -2.0768950000
    8      C       0.1755970000     2.1221330000    -0.8849950000
    9      F       0.2872970000     3.4540330000    -0.8414950000
   10      C       0.1572970000     1.8624330000    -3.4784950000
   11      O       0.0980970000     1.0948330000    -4.4288950000
   12      O       0.2674970000     3.2084330000    -3.5915950000
   13      C       0.3158970000     3.7012330000    -4.9385950000
   14      H       0.4048970000     4.7986330000    -4.8554950000
   15      H      -0.6046030000     3.4270330000    -5.4925950000
   16      H       1.1863970000     3.2808330000    -5.4816950000
   17      C      -0.0920030000    -2.4224670000     0.9776050000
   18      H       0.7304970000    -2.4304670000     0.2777050000
   19      H       0.4485970000    -3.1003670000     1.6215050000
   20      H      -0.7016030000    -2.9535670000     0.2615050000
   21      H       0.2027970000     2.4015330000     2.2841050000
 ----------------------------------------------------------------

   11   -1389.2727498519      4.93e-07  Convergence criterion met
 Total energy in the final basis set =    -1389.2727498519
        RIMP2         total energy =     -1391.7780695737 a.u.

                    Orbital Energies (a.u.)
 --------------------------------------------------------------

 Alpha MOs
 -- Occupied --
-92.0053 -91.9923 -26.3405 -20.6136 -20.5596 -11.4075 -11.3786 -11.3008
-11.2945 -11.2934 -11.2881 -11.2832 -11.2788 -11.2293  -9.0041  -8.9924
 -6.6849  -6.6842  -6.6838  -6.6735  -6.6728  -6.6717  -1.6577  -1.4659
 -1.3685  -1.2121  -1.1357  -1.0677  -1.0181  -0.9955  -0.9579  -0.9135
 -0.8630  -0.8043  -0.7884  -0.7588  -0.7300  -0.7226  -0.6930  -0.6833
 -0.6727  -0.6604  -0.6105  -0.5976  -0.5904  -0.5860  -0.5642  -0.5585
 -0.5353  -0.5297  -0.5075  -0.4936  -0.4729  -0.4713  -0.4669  -0.4615
 -0.3856  -0.3444  -0.2854

          Ground-State Mulliken Net Atomic Charges

     Atom                 Charge (a.u.)
  ----------------------------------------
      1 C                     0.054753
      2 S                     0.074718
      3 C                    -0.220162
      4 C                    -0.021232
      5 C                    -0.093596
      6 S                    -0.013981
      7 C                    -0.155619
      8 C                     0.385700
      9 F                    -0.208308
     10 C                     0.446018
     11 O                    -0.462499
     12 O                    -0.300738
     13 C                    -0.058674
     14 H                     0.121169
     15 H                     0.094812
     16 H                     0.094631
     17 C                    -0.390428
     18 H                     0.130313
     19 H                     0.165764
     20 H                     0.145478
     21 H                     0.211878
  ----------------------------------------
  Sum of atomic charges =     0.000000

                    Cartesian Multipole Moments
 -----------------------------------------------------------------
    Charge (ESU x 10^10)
                -0.0000
    Dipole Moment (Debye)
         X       0.6890      Y       0.1762      Z       2.8315
       Tot       2.9194
    Quadrupole Moments (Debye-Ang)
        XX     -96.7105     XY      -0.4658     YY     -80.7504
        XZ       0.1912     YZ      -9.6275     ZZ     -97.4305

 Total job time:  76.05s(wall), 3339.03s(cpu)
        *  Thank you very much for using Q-Chem.  Have a nice day.  *
