 Q-Chem 5.4, Q-Chem, Inc., Pleasanton, CA (2021)
 Q-Chem 5.4.0 for Intel X86 EM64T Linux

User input:
--------------------------------------------------------------
$molecule
0 1
C	-0.356995	-0.928548	0.973997
S	-0.047095	-0.078548	2.481497
C	0.490005	1.399452	1.692897
C	-0.046995	-0.078948	-0.093903
C	0.426305	1.228152	0.287597
S	-0.127595	-0.308748	-1.831503
C	0.466305	1.339152	-2.080503
C	0.706305	2.005552	-0.888603
F	1.158905	3.263252	-0.845103
C	0.621305	1.759552	-3.482103
O	0.365505	1.033352	-4.432503
O	1.076205	3.031152	-3.595203
C	1.250505	3.494552	-4.942203
H	1.620505	4.531652	-4.859103
H	0.290405	3.468052	-5.496203
H	1.982505	2.863252	-5.485303
C	-0.356995	-2.363748	0.973997
H	0.189405	-2.371748	1.905497
H	-1.084895	-3.041648	1.394597
H	0.454005	-2.894848	0.498097
H	0.804805	2.268452	2.280497
$end

$rem
JOBTYPE		SP
EXCHANGE	HF
CORRELATION	pRIMP2
BASIS		cc-pvtz
METHOD		rimp2
AUX_BASIS	rimp2-cc-pvtz
SOLVENT_METHOD	PCM
PURECART	11111
SYMMETRY	false
MEM_TOTAL	110000
SCF_CONVERGENCE = 6
THRESH=10
GUI = 2
$end

$solvent
dielectric 4.90
$end
--------------------------------------------------------------

             Standard Nuclear Orientation (Angstroms)
    I     Atom           X                Y                Z
 ----------------------------------------------------------------
    1      C      -0.3569950000    -0.9285480000     0.9739970000
    2      S      -0.0470950000    -0.0785480000     2.4814970000
    3      C       0.4900050000     1.3994520000     1.6928970000
    4      C      -0.0469950000    -0.0789480000    -0.0939030000
    5      C       0.4263050000     1.2281520000     0.2875970000
    6      S      -0.1275950000    -0.3087480000    -1.8315030000
    7      C       0.4663050000     1.3391520000    -2.0805030000
    8      C       0.7063050000     2.0055520000    -0.8886030000
    9      F       1.1589050000     3.2632520000    -0.8451030000
   10      C       0.6213050000     1.7595520000    -3.4821030000
   11      O       0.3655050000     1.0333520000    -4.4325030000
   12      O       1.0762050000     3.0311520000    -3.5952030000
   13      C       1.2505050000     3.4945520000    -4.9422030000
   14      H       1.6205050000     4.5316520000    -4.8591030000
   15      H       0.2904050000     3.4680520000    -5.4962030000
   16      H       1.9825050000     2.8632520000    -5.4853030000
   17      C      -0.3569950000    -2.3637480000     0.9739970000
   18      H       0.1894050000    -2.3717480000     1.9054970000
   19      H      -1.0848950000    -3.0416480000     1.3945970000
   20      H       0.4540050000    -2.8948480000     0.4980970000
   21      H       0.8048050000     2.2684520000     2.2804970000
 ----------------------------------------------------------------

   11   -1389.2628648933      5.06e-07  Convergence criterion met
 Total energy in the final basis set =    -1389.2628648933
        RIMP2         total energy =     -1391.7688618971 a.u.

                    Orbital Energies (a.u.)
 --------------------------------------------------------------

 Alpha MOs
 -- Occupied --
-92.0054 -91.9921 -26.3406 -20.6134 -20.5594 -11.4073 -11.3788 -11.3011
-11.2940 -11.2922 -11.2880 -11.2865 -11.2786 -11.2248  -9.0047  -8.9923
 -6.6855  -6.6848  -6.6843  -6.6733  -6.6726  -6.6715  -1.6578  -1.4657
 -1.3683  -1.2131  -1.1377  -1.0653  -1.0198  -0.9942  -0.9587  -0.9114
 -0.8638  -0.8068  -0.7885  -0.7581  -0.7315  -0.7227  -0.6917  -0.6831
 -0.6725  -0.6604  -0.6086  -0.6020  -0.5924  -0.5748  -0.5653  -0.5560
 -0.5388  -0.5298  -0.5087  -0.4867  -0.4740  -0.4711  -0.4700  -0.4537
 -0.3894  -0.3454  -0.2885

          Ground-State Mulliken Net Atomic Charges

     Atom                 Charge (a.u.)
  ----------------------------------------
      1 C                     0.035603
      2 S                     0.074959
      3 C                    -0.206489
      4 C                    -0.036410
      5 C                    -0.081344
      6 S                    -0.000543
      7 C                    -0.156610
      8 C                     0.388173
      9 F                    -0.208392
     10 C                     0.446046
     11 O                    -0.462311
     12 O                    -0.300998
     13 C                    -0.058448
     14 H                     0.120952
     15 H                     0.094785
     16 H                     0.094655
     17 C                    -0.376986
     18 H                     0.123860
     19 H                     0.149673
     20 H                     0.145849
     21 H                     0.213976
  ----------------------------------------
  Sum of atomic charges =     0.000000

                    Cartesian Multipole Moments
 -----------------------------------------------------------------
    Charge (ESU x 10^10)
                -0.0000
    Dipole Moment (Debye)
         X       1.1512      Y       0.5529      Z       3.7574
       Tot       3.9685
    Quadrupole Moments (Debye-Ang)
        XX     -95.4973     XY       2.8301     YY     -82.7708
        XZ      -2.8996     YZ     -10.8035     ZZ     -95.4920

 Total job time:  64.63s(wall), 2484.70s(cpu)
        *  Thank you very much for using Q-Chem.  Have a nice day.  *
