 Q-Chem 5.4, Q-Chem, Inc., Pleasanton, CA (2021)
 Q-Chem 5.4.0 for Intel X86 EM64T Linux

User input:
--------------------------------------------------------------
$molecule
0 1
C	-0.796379	-0.619704	0.978188
S	-0.102979	-0.038504	2.485688
C	1.101121	0.972896	1.697088
C	-0.103079	-0.038904	-0.089712
C	0.960421	0.856396	0.291788
S	-0.287779	-0.197704	-1.827312
C	1.050521	0.932496	-2.076312
C	1.591521	1.389696	-0.884412
F	2.612321	2.252596	-0.840912
C	1.394921	1.219096	-3.477912
O	0.810321	0.718096	-4.428312
O	2.424721	2.092896	-3.591012
C	2.807321	2.407096	-4.938012
H	3.646221	3.120196	-4.854912
H	1.962621	2.864196	-5.492012
H	3.125621	1.494396	-5.481112
C	-0.796379	-2.054904	0.978188
H	-0.991279	-2.062904	-0.084012
H	0.031521	-2.732804	0.831888
H	-1.721279	-2.586004	1.147988
H	1.808321	1.568096	2.284688
$end

$rem
JOBTYPE		SP
EXCHANGE	HF
CORRELATION	pRIMP2
BASIS		cc-pvtz
METHOD		rimp2
AUX_BASIS	rimp2-cc-pvtz
SOLVENT_METHOD	PCM
PURECART	11111
SYMMETRY	false
MEM_TOTAL	110000
SCF_CONVERGENCE = 6
THRESH=10
GUI = 2
$end

$solvent
dielectric 4.90
$end
--------------------------------------------------------------

             Standard Nuclear Orientation (Angstroms)
    I     Atom           X                Y                Z
 ----------------------------------------------------------------
    1      C      -0.7963790000    -0.6197040000     0.9781880000
    2      S      -0.1029790000    -0.0385040000     2.4856880000
    3      C       1.1011210000     0.9728960000     1.6970880000
    4      C      -0.1030790000    -0.0389040000    -0.0897120000
    5      C       0.9604210000     0.8563960000     0.2917880000
    6      S      -0.2877790000    -0.1977040000    -1.8273120000
    7      C       1.0505210000     0.9324960000    -2.0763120000
    8      C       1.5915210000     1.3896960000    -0.8844120000
    9      F       2.6123210000     2.2525960000    -0.8409120000
   10      C       1.3949210000     1.2190960000    -3.4779120000
   11      O       0.8103210000     0.7180960000    -4.4283120000
   12      O       2.4247210000     2.0928960000    -3.5910120000
   13      C       2.8073210000     2.4070960000    -4.9380120000
   14      H       3.6462210000     3.1201960000    -4.8549120000
   15      H       1.9626210000     2.8641960000    -5.4920120000
   16      H       3.1256210000     1.4943960000    -5.4811120000
   17      C      -0.7963790000    -2.0549040000     0.9781880000
   18      H      -0.9912790000    -2.0629040000    -0.0840120000
   19      H       0.0315210000    -2.7328040000     0.8318880000
   20      H      -1.7212790000    -2.5860040000     1.1479880000
   21      H       1.8083210000     1.5680960000     2.2846880000
 ----------------------------------------------------------------

   11   -1389.2240299364      5.21e-07  Convergence criterion met
 Total energy in the final basis set =    -1389.2240299364
        RIMP2         total energy =     -1391.7384160306 a.u.

                    Orbital Energies (a.u.)
 --------------------------------------------------------------

 Alpha MOs
 -- Occupied --
-92.0019 -91.9999 -26.3436 -20.6143 -20.5603 -11.4087 -11.3832 -11.3190
-11.3042 -11.2952 -11.2888 -11.2811 -11.2667 -11.2170  -9.0018  -8.9997
 -6.6828  -6.6821  -6.6810  -6.6804  -6.6795  -6.6793  -1.6607  -1.4668
 -1.3694  -1.2205  -1.1399  -1.0706  -1.0212  -0.9915  -0.9598  -0.9098
 -0.8657  -0.8085  -0.7913  -0.7609  -0.7315  -0.7254  -0.6977  -0.6843
 -0.6736  -0.6621  -0.6095  -0.6031  -0.5927  -0.5823  -0.5631  -0.5599
 -0.5308  -0.5235  -0.5107  -0.4892  -0.4755  -0.4727  -0.4687  -0.4320
 -0.3897  -0.3442  -0.2993

          Ground-State Mulliken Net Atomic Charges

     Atom                 Charge (a.u.)
  ----------------------------------------
      1 C                    -0.095115
      2 S                     0.087041
      3 C                    -0.156871
      4 C                     0.041766
      5 C                    -0.104689
      6 S                     0.025704
      7 C                    -0.157729
      8 C                     0.393689
      9 F                    -0.206057
     10 C                     0.447950
     11 O                    -0.463813
     12 O                    -0.301480
     13 C                    -0.058328
     14 H                     0.121217
     15 H                     0.094957
     16 H                     0.094809
     17 C                    -0.347245
     18 H                     0.102143
     19 H                     0.145115
     20 H                     0.122453
     21 H                     0.214483
  ----------------------------------------
  Sum of atomic charges =     0.000000

                    Cartesian Multipole Moments
 -----------------------------------------------------------------
    Charge (ESU x 10^10)
                -0.0000
    Dipole Moment (Debye)
         X       2.4963      Y       0.8346      Z       2.2560
       Tot       3.4666
    Quadrupole Moments (Debye-Ang)
        XX     -90.6269     XY       5.7377     YY     -89.3741
        XZ      -4.8637     YZ      -4.4595     ZZ     -97.2550

 Total job time:  59.10s(wall), 2086.07s(cpu)
        *  Thank you very much for using Q-Chem.  Have a nice day.  *
