 Q-Chem 5.4, Q-Chem, Inc., Pleasanton, CA (2021)
 Q-Chem 5.4.0 for Intel X86 EM64T Linux

User input:
--------------------------------------------------------------
$molecule
0 1
C	-0.354593	-0.928548	0.978043
S	-0.044693	-0.078548	2.485543
C	0.492407	1.399452	1.696943
C	-0.044593	-0.078948	-0.089857
C	0.428707	1.228152	0.291643
S	-0.125193	-0.308748	-1.827457
C	0.468707	1.339152	-2.076457
C	0.708707	2.005552	-0.884557
F	1.161307	3.263252	-0.841057
C	0.623707	1.759552	-3.478057
O	0.367907	1.033352	-4.428457
O	1.078607	3.031152	-3.591157
C	1.252907	3.494552	-4.938157
H	1.622907	4.531652	-4.855057
H	0.292807	3.468052	-5.492157
H	1.984907	2.863252	-5.481257
C	-0.354593	-2.363748	0.978043
H	-0.730993	-2.371748	-0.034257
H	0.435307	-3.041648	0.690243
H	-1.235993	-2.894848	1.305943
H	0.807207	2.268452	2.284543
$end

$rem
JOBTYPE		SP
EXCHANGE	HF
CORRELATION	pRIMP2
BASIS		cc-pvtz
METHOD		rimp2
AUX_BASIS	rimp2-cc-pvtz
SOLVENT_METHOD	PCM
PURECART	11111
SYMMETRY	false
MEM_TOTAL	110000
SCF_CONVERGENCE = 6
THRESH=10
GUI = 2
$end

$solvent
dielectric 4.90
$end
--------------------------------------------------------------

             Standard Nuclear Orientation (Angstroms)
    I     Atom           X                Y                Z
 ----------------------------------------------------------------
    1      C      -0.3545930000    -0.9285480000     0.9780430000
    2      S      -0.0446930000    -0.0785480000     2.4855430000
    3      C       0.4924070000     1.3994520000     1.6969430000
    4      C      -0.0445930000    -0.0789480000    -0.0898570000
    5      C       0.4287070000     1.2281520000     0.2916430000
    6      S      -0.1251930000    -0.3087480000    -1.8274570000
    7      C       0.4687070000     1.3391520000    -2.0764570000
    8      C       0.7087070000     2.0055520000    -0.8845570000
    9      F       1.1613070000     3.2632520000    -0.8410570000
   10      C       0.6237070000     1.7595520000    -3.4780570000
   11      O       0.3679070000     1.0333520000    -4.4284570000
   12      O       1.0786070000     3.0311520000    -3.5911570000
   13      C       1.2529070000     3.4945520000    -4.9381570000
   14      H       1.6229070000     4.5316520000    -4.8550570000
   15      H       0.2928070000     3.4680520000    -5.4921570000
   16      H       1.9849070000     2.8632520000    -5.4812570000
   17      C      -0.3545930000    -2.3637480000     0.9780430000
   18      H      -0.7309930000    -2.3717480000    -0.0342570000
   19      H       0.4353070000    -3.0416480000     0.6902430000
   20      H      -1.2359930000    -2.8948480000     1.3059430000
   21      H       0.8072070000     2.2684520000     2.2845430000
 ----------------------------------------------------------------

   11   -1389.2656204735      4.58e-07  Convergence criterion met
 Total energy in the final basis set =    -1389.2656204735
        RIMP2         total energy =     -1391.7730642183 a.u.

                    Orbital Energies (a.u.)
 --------------------------------------------------------------

 Alpha MOs
 -- Occupied --
-92.0022 -91.9948 -26.3415 -20.6138 -20.5598 -11.4079 -11.3801 -11.3027
-11.2947 -11.2921 -11.2899 -11.2883 -11.2792 -11.2250  -9.0015  -8.9950
 -6.6822  -6.6815  -6.6811  -6.6760  -6.6753  -6.6742  -1.6587  -1.4661
 -1.3687  -1.2143  -1.1357  -1.0678  -1.0190  -0.9945  -0.9584  -0.9139
 -0.8637  -0.8057  -0.7893  -0.7594  -0.7301  -0.7235  -0.6948  -0.6835
 -0.6730  -0.6613  -0.6095  -0.6010  -0.5917  -0.5819  -0.5651  -0.5562
 -0.5382  -0.5301  -0.5074  -0.4882  -0.4738  -0.4719  -0.4665  -0.4494
 -0.3915  -0.3449  -0.2921

          Ground-State Mulliken Net Atomic Charges

     Atom                 Charge (a.u.)
  ----------------------------------------
      1 C                     0.019117
      2 S                     0.077096
      3 C                    -0.198918
      4 C                    -0.025731
      5 C                    -0.090719
      6 S                    -0.002430
      7 C                    -0.157843
      8 C                     0.390320
      9 F                    -0.207396
     10 C                     0.445838
     11 O                    -0.462851
     12 O                    -0.301090
     13 C                    -0.058433
     14 H                     0.121096
     15 H                     0.094793
     16 H                     0.094731
     17 C                    -0.356127
     18 H                     0.111542
     19 H                     0.152038
     20 H                     0.142085
     21 H                     0.212884
  ----------------------------------------
  Sum of atomic charges =     0.000000

                    Cartesian Multipole Moments
 -----------------------------------------------------------------
    Charge (ESU x 10^10)
                -0.0000
    Dipole Moment (Debye)
         X       0.5876      Y       0.6694      Z       2.5514
       Tot       2.7024
    Quadrupole Moments (Debye-Ang)
        XX     -94.9464     XY       4.2447     YY     -82.6857
        XZ      -3.0049     YZ      -7.7700     ZZ     -97.9193

 Total job time:  60.55s(wall), 2002.63s(cpu)
        *  Thank you very much for using Q-Chem.  Have a nice day.  *
