 Q-Chem 5.4, Q-Chem, Inc., Pleasanton, CA (2021)
 Q-Chem 5.4.0 for Intel X86 EM64T Linux

User input:
--------------------------------------------------------------
$molecule
0 1
C	-0.179005	-0.975447	0.977832
S	-0.021405	-0.084547	2.485332
C	0.250895	1.464253	1.696732
C	-0.021205	-0.084847	-0.090068
C	0.217895	1.284553	0.291432
S	-0.060705	-0.325247	-1.827668
C	0.237995	1.400753	-2.076668
C	0.358595	2.098753	-0.884768
F	0.585995	3.415953	-0.841268
C	0.317695	1.841653	-3.478268
O	0.191895	1.082153	-4.428668
O	0.544895	3.172953	-3.591368
C	0.635995	3.659653	-4.938368
H	0.820295	4.745153	-4.855268
H	-0.304905	3.466753	-5.492368
H	1.466495	3.165053	-5.481468
C	-0.179005	-2.410647	0.977832
H	-0.725405	-2.418647	0.046332
H	0.548895	-3.088547	0.557232
H	-0.990005	-2.941747	1.453732
H	0.409995	2.374753	2.284332
$end

$rem
JOBTYPE		SP
EXCHANGE	HF
CORRELATION	pRIMP2
BASIS		cc-pvtz
METHOD		rimp2
AUX_BASIS	rimp2-cc-pvtz
SOLVENT_METHOD	PCM
PURECART	11111
SYMMETRY	false
MEM_TOTAL	110000
SCF_CONVERGENCE = 6
THRESH=10
GUI = 2
$end

$solvent
dielectric 4.90
$end
--------------------------------------------------------------

             Standard Nuclear Orientation (Angstroms)
    I     Atom           X                Y                Z
 ----------------------------------------------------------------
    1      C      -0.1790050000    -0.9754470000     0.9778320000
    2      S      -0.0214050000    -0.0845470000     2.4853320000
    3      C       0.2508950000     1.4642530000     1.6967320000
    4      C      -0.0212050000    -0.0848470000    -0.0900680000
    5      C       0.2178950000     1.2845530000     0.2914320000
    6      S      -0.0607050000    -0.3252470000    -1.8276680000
    7      C       0.2379950000     1.4007530000    -2.0766680000
    8      C       0.3585950000     2.0987530000    -0.8847680000
    9      F       0.5859950000     3.4159530000    -0.8412680000
   10      C       0.3176950000     1.8416530000    -3.4782680000
   11      O       0.1918950000     1.0821530000    -4.4286680000
   12      O       0.5448950000     3.1729530000    -3.5913680000
   13      C       0.6359950000     3.6596530000    -4.9383680000
   14      H       0.8202950000     4.7451530000    -4.8552680000
   15      H      -0.3049050000     3.4667530000    -5.4923680000
   16      H       1.4664950000     3.1650530000    -5.4814680000
   17      C      -0.1790050000    -2.4106470000     0.9778320000
   18      H      -0.7254050000    -2.4186470000     0.0463320000
   19      H       0.5488950000    -3.0885470000     0.5572320000
   20      H      -0.9900050000    -2.9417470000     1.4537320000
   21      H       0.4099950000     2.3747530000     2.2843320000
 ----------------------------------------------------------------

   11   -1389.2714725080      4.65e-07  Convergence criterion met
 Total energy in the final basis set =    -1389.2714725080
        RIMP2         total energy =     -1391.7775338902 a.u.

                    Orbital Energies (a.u.)
 --------------------------------------------------------------

 Alpha MOs
 -- Occupied --
-92.0035 -91.9936 -26.3411 -20.6136 -20.5597 -11.4077 -11.3795 -11.2989
-11.2949 -11.2946 -11.2884 -11.2882 -11.2789 -11.2267  -9.0025  -8.9938
 -6.6833  -6.6827  -6.6822  -6.6748  -6.6741  -6.6730  -1.6582  -1.4660
 -1.3687  -1.2131  -1.1353  -1.0675  -1.0186  -0.9952  -0.9582  -0.9141
 -0.8634  -0.8051  -0.7889  -0.7591  -0.7300  -0.7231  -0.6942  -0.6834
 -0.6728  -0.6610  -0.6107  -0.5992  -0.5912  -0.5816  -0.5655  -0.5562
 -0.5397  -0.5300  -0.5071  -0.4890  -0.4735  -0.4716  -0.4664  -0.4551
 -0.3895  -0.3448  -0.2899

          Ground-State Mulliken Net Atomic Charges

     Atom                 Charge (a.u.)
  ----------------------------------------
      1 C                     0.043136
      2 S                     0.074631
      3 C                    -0.206159
      4 C                    -0.024273
      5 C                    -0.094025
      6 S                    -0.007226
      7 C                    -0.157453
      8 C                     0.387797
      9 F                    -0.207831
     10 C                     0.445505
     11 O                    -0.462739
     12 O                    -0.300920
     13 C                    -0.058619
     14 H                     0.121143
     15 H                     0.094758
     16 H                     0.094728
     17 C                    -0.370331
     18 H                     0.116416
     19 H                     0.150929
     20 H                     0.147814
     21 H                     0.212721
  ----------------------------------------
  Sum of atomic charges =     0.000000

                    Cartesian Multipole Moments
 -----------------------------------------------------------------
    Charge (ESU x 10^10)
                -0.0000
    Dipole Moment (Debye)
         X       0.0271      Y       0.5196      Z       2.6518
       Tot       2.7023
    Quadrupole Moments (Debye-Ang)
        XX     -95.9688     XY       2.8705     YY     -81.3798
        XZ      -1.9829     YZ      -8.5519     ZZ     -97.8317

 Total job time:  57.82s(wall), 1954.73s(cpu)
        *  Thank you very much for using Q-Chem.  Have a nice day.  *
