 Q-Chem 5.4, Q-Chem, Inc., Pleasanton, CA (2021)
 Q-Chem 5.4.0 for Intel X86 EM64T Linux

User input:
--------------------------------------------------------------
$molecule
0 1
C	-0.446176	-0.894233	0.976149
S	-0.063376	-0.074433	2.483649
C	0.600524	1.351067	1.695049
C	-0.063276	-0.074833	-0.091751
C	0.522124	1.186067	0.289749
S	-0.163576	-0.296833	-1.829351
C	0.571624	1.293067	-2.078351
C	0.868824	1.936067	-0.886451
F	1.429324	3.149567	-0.842951
C	0.762724	1.698367	-3.479951
O	0.444624	0.997267	-4.430351
O	1.326724	2.925467	-3.593051
C	1.540724	3.371967	-4.940051
H	1.999624	4.372767	-4.856951
H	0.581924	3.429167	-5.494051
H	2.214924	2.679267	-5.483151
C	-0.321076	-2.323933	0.976149
H	0.755424	-2.237833	0.968749
H	-0.261776	-2.999333	1.816849
H	-0.281476	-2.853633	0.035749
H	0.989824	2.189367	2.282649
$end

$rem
JOBTYPE		SP
EXCHANGE	HF
CORRELATION	pRIMP2
BASIS		cc-pvtz
METHOD		rimp2
AUX_BASIS	rimp2-cc-pvtz
SOLVENT_METHOD	PCM
PURECART	11111
SYMMETRY	false
MEM_TOTAL	110000
SCF_CONVERGENCE = 6
THRESH=10
GUI = 2
$end

$solvent
dielectric 4.90
$end
--------------------------------------------------------------

             Standard Nuclear Orientation (Angstroms)
    I     Atom           X                Y                Z
 ----------------------------------------------------------------
    1      C      -0.4461760000    -0.8942330000     0.9761490000
    2      S      -0.0633760000    -0.0744330000     2.4836490000
    3      C       0.6005240000     1.3510670000     1.6950490000
    4      C      -0.0632760000    -0.0748330000    -0.0917510000
    5      C       0.5221240000     1.1860670000     0.2897490000
    6      S      -0.1635760000    -0.2968330000    -1.8293510000
    7      C       0.5716240000     1.2930670000    -2.0783510000
    8      C       0.8688240000     1.9360670000    -0.8864510000
    9      F       1.4293240000     3.1495670000    -0.8429510000
   10      C       0.7627240000     1.6983670000    -3.4799510000
   11      O       0.4446240000     0.9972670000    -4.4303510000
   12      O       1.3267240000     2.9254670000    -3.5930510000
   13      C       1.5407240000     3.3719670000    -4.9400510000
   14      H       1.9996240000     4.3727670000    -4.8569510000
   15      H       0.5819240000     3.4291670000    -5.4940510000
   16      H       2.2149240000     2.6792670000    -5.4831510000
   17      C      -0.3210760000    -2.3239330000     0.9761490000
   18      H       0.7554240000    -2.2378330000     0.9687490000
   19      H      -0.2617760000    -2.9993330000     1.8168490000
   20      H      -0.2814760000    -2.8536330000     0.0357490000
   21      H       0.9898240000     2.1893670000     2.2826490000
 ----------------------------------------------------------------

   11   -1389.2578742042      5.30e-07  Convergence criterion met
 Total energy in the final basis set =    -1389.2578742042
        RIMP2         total energy =     -1391.7654070777 a.u.

                    Orbital Energies (a.u.)
 --------------------------------------------------------------

 Alpha MOs
 -- Occupied --
-92.0044 -91.9922 -26.3404 -20.6136 -20.5598 -11.4076 -11.3784 -11.2988
-11.2961 -11.2947 -11.2882 -11.2826 -11.2794 -11.2304  -9.0036  -8.9923
 -6.6844  -6.6838  -6.6833  -6.6734  -6.6727  -6.6715  -1.6577  -1.4660
 -1.3686  -1.2138  -1.1387  -1.0677  -1.0187  -0.9938  -0.9583  -0.9108
 -0.8634  -0.8052  -0.7885  -0.7588  -0.7311  -0.7226  -0.6929  -0.6834
 -0.6728  -0.6601  -0.6123  -0.5971  -0.5940  -0.5775  -0.5626  -0.5589
 -0.5311  -0.5241  -0.5174  -0.5011  -0.4726  -0.4716  -0.4707  -0.4583
 -0.3833  -0.3457  -0.2805

          Ground-State Mulliken Net Atomic Charges

     Atom                 Charge (a.u.)
  ----------------------------------------
      1 C                     0.038747
      2 S                     0.079702
      3 C                    -0.224674
      4 C                    -0.055123
      5 C                    -0.076235
      6 S                    -0.006907
      7 C                    -0.153335
      8 C                     0.388295
      9 F                    -0.208483
     10 C                     0.446979
     11 O                    -0.461774
     12 O                    -0.300899
     13 C                    -0.058476
     14 H                     0.121141
     15 H                     0.094876
     16 H                     0.094638
     17 C                    -0.382117
     18 H                     0.147314
     19 H                     0.161919
     20 H                     0.142263
     21 H                     0.212149
  ----------------------------------------
  Sum of atomic charges =     0.000000

                    Cartesian Multipole Moments
 -----------------------------------------------------------------
    Charge (ESU x 10^10)
                -0.0000
    Dipole Moment (Debye)
         X       1.7009      Y       0.1337      Z       3.1762
       Tot       3.6054
    Quadrupole Moments (Debye-Ang)
        XX     -95.7462     XY       2.4971     YY     -83.2174
        XZ      -2.8078     YZ      -9.6696     ZZ     -96.3247

 Total job time:  64.34s(wall), 2079.05s(cpu)
        *  Thank you very much for using Q-Chem.  Have a nice day.  *
