 Q-Chem 5.4, Q-Chem, Inc., Pleasanton, CA (2021)
 Q-Chem 5.4.0 for Intel X86 EM64T Linux

User input:
--------------------------------------------------------------
$molecule
0 1
C	-0.794745	-0.619704	0.975276
S	-0.101345	-0.038504	2.482776
C	1.102755	0.972896	1.694176
C	-0.101445	-0.038904	-0.092624
C	0.962055	0.856396	0.288876
S	-0.286145	-0.197704	-1.830224
C	1.052155	0.932496	-2.079224
C	1.593155	1.389696	-0.887324
F	2.613955	2.252596	-0.843824
C	1.396555	1.219096	-3.480824
O	0.811955	0.718096	-4.431224
O	2.426355	2.092896	-3.593924
C	2.808955	2.407096	-4.940924
H	3.647855	3.120196	-4.857824
H	1.964255	2.864196	-5.494924
H	3.127255	1.494396	-5.484024
C	-0.794745	-2.054904	0.975276
H	-1.856945	-2.062904	1.170176
H	-0.941045	-2.732804	0.147376
H	-0.624945	-2.586004	1.900176
H	1.809955	1.568096	2.281776
$end

$rem
JOBTYPE		SP
EXCHANGE	HF
CORRELATION	pRIMP2
BASIS		cc-pvtz
METHOD		rimp2
AUX_BASIS	rimp2-cc-pvtz
SOLVENT_METHOD	PCM
PURECART	11111
SYMMETRY	false
MEM_TOTAL	110000
SCF_CONVERGENCE = 6
THRESH=10
GUI = 2
$end

$solvent
dielectric 4.90
$end
--------------------------------------------------------------

             Standard Nuclear Orientation (Angstroms)
    I     Atom           X                Y                Z
 ----------------------------------------------------------------
    1      C      -0.7947450000    -0.6197040000     0.9752760000
    2      S      -0.1013450000    -0.0385040000     2.4827760000
    3      C       1.1027550000     0.9728960000     1.6941760000
    4      C      -0.1014450000    -0.0389040000    -0.0926240000
    5      C       0.9620550000     0.8563960000     0.2888760000
    6      S      -0.2861450000    -0.1977040000    -1.8302240000
    7      C       1.0521550000     0.9324960000    -2.0792240000
    8      C       1.5931550000     1.3896960000    -0.8873240000
    9      F       2.6139550000     2.2525960000    -0.8438240000
   10      C       1.3965550000     1.2190960000    -3.4808240000
   11      O       0.8119550000     0.7180960000    -4.4312240000
   12      O       2.4263550000     2.0928960000    -3.5939240000
   13      C       2.8089550000     2.4070960000    -4.9409240000
   14      H       3.6478550000     3.1201960000    -4.8578240000
   15      H       1.9642550000     2.8641960000    -5.4949240000
   16      H       3.1272550000     1.4943960000    -5.4840240000
   17      C      -0.7947450000    -2.0549040000     0.9752760000
   18      H      -1.8569450000    -2.0629040000     1.1701760000
   19      H      -0.9410450000    -2.7328040000     0.1473760000
   20      H      -0.6249450000    -2.5860040000     1.9001760000
   21      H       1.8099550000     1.5680960000     2.2817760000
 ----------------------------------------------------------------

   11   -1389.2121330914      4.96e-07  Convergence criterion met
 Total energy in the final basis set =    -1389.2121330914
        RIMP2         total energy =     -1391.7277067659 a.u.

                    Orbital Energies (a.u.)
 --------------------------------------------------------------

 Alpha MOs
 -- Occupied --
-92.0026 -91.9983 -26.3420 -20.6137 -20.5597 -11.4079 -11.3810 -11.3136
-11.2965 -11.2940 -11.2883 -11.2795 -11.2700 -11.2147  -9.0022  -8.9983
 -6.6830  -6.6821  -6.6818  -6.6792  -6.6785  -6.6775  -1.6592  -1.4661
 -1.3687  -1.2172  -1.1395  -1.0659  -1.0208  -0.9916  -0.9594  -0.9095
 -0.8650  -0.8083  -0.7897  -0.7593  -0.7312  -0.7239  -0.6943  -0.6835
 -0.6730  -0.6602  -0.6126  -0.5955  -0.5900  -0.5734  -0.5645  -0.5602
 -0.5316  -0.5250  -0.5056  -0.4964  -0.4748  -0.4719  -0.4713  -0.4496
 -0.3754  -0.3438  -0.2841

          Ground-State Mulliken Net Atomic Charges

     Atom                 Charge (a.u.)
  ----------------------------------------
      1 C                    -0.091682
      2 S                     0.088385
      3 C                    -0.170211
      4 C                     0.047940
      5 C                    -0.102760
      6 S                     0.021872
      7 C                    -0.158788
      8 C                     0.392629
      9 F                    -0.207411
     10 C                     0.447886
     11 O                    -0.463765
     12 O                    -0.301324
     13 C                    -0.058396
     14 H                     0.121075
     15 H                     0.094812
     16 H                     0.094716
     17 C                    -0.396160
     18 H                     0.133905
     19 H                     0.155044
     20 H                     0.137456
     21 H                     0.214777
  ----------------------------------------
  Sum of atomic charges =     0.000000

                    Cartesian Multipole Moments
 -----------------------------------------------------------------
    Charge (ESU x 10^10)
                -0.0000
    Dipole Moment (Debye)
         X       1.7588      Y       0.5047      Z       3.0726
       Tot       3.5762
    Quadrupole Moments (Debye-Ang)
        XX     -90.5327     XY       7.0264     YY     -89.2040
        XZ      -5.8485     YZ      -6.1742     ZZ     -95.4250

 Total job time:  59.18s(wall), 2010.50s(cpu)
        *  Thank you very much for using Q-Chem.  Have a nice day.  *
