 Q-Chem 5.4, Q-Chem, Inc., Pleasanton, CA (2021)
 Q-Chem 5.4.0 for Intel X86 EM64T Linux

User input:
--------------------------------------------------------------
$molecule
0 1
C	-0.520295	-0.851940	0.973565
S	-0.067495	-0.068640	2.481065
C	0.718105	1.293660	1.692465
C	-0.067395	-0.069040	-0.094335
C	0.625605	1.136060	0.287165
S	-0.186695	-0.281440	-1.831935
C	0.684305	1.238360	-2.080935
C	1.036305	1.852960	-0.889035
F	1.700505	3.012960	-0.845535
C	0.910005	1.625360	-3.482535
O	0.531905	0.954660	-4.432935
O	1.578705	2.798760	-3.595635
C	1.830805	3.224860	-4.942635
H	2.375305	4.181860	-4.859535
H	0.880705	3.365460	-5.496635
H	2.442105	2.476060	-5.485735
C	-0.520295	-2.287140	0.973565
H	-0.512895	-2.295140	2.053465
H	-1.360995	-2.965040	0.973865
H	0.420105	-2.818240	0.966865
H	1.179005	2.094760	2.280065
$end

$rem
JOBTYPE		SP
EXCHANGE	HF
CORRELATION	pRIMP2
BASIS		cc-pvtz
METHOD		rimp2
AUX_BASIS	rimp2-cc-pvtz
SOLVENT_METHOD	PCM
PURECART	11111
SYMMETRY	false
MEM_TOTAL	110000
SCF_CONVERGENCE = 6
THRESH=10
GUI = 2
$end

$solvent
dielectric 4.90
$end
--------------------------------------------------------------

             Standard Nuclear Orientation (Angstroms)
    I     Atom           X                Y                Z
 ----------------------------------------------------------------
    1      C      -0.5202950000    -0.8519400000     0.9735650000
    2      S      -0.0674950000    -0.0686400000     2.4810650000
    3      C       0.7181050000     1.2936600000     1.6924650000
    4      C      -0.0673950000    -0.0690400000    -0.0943350000
    5      C       0.6256050000     1.1360600000     0.2871650000
    6      S      -0.1866950000    -0.2814400000    -1.8319350000
    7      C       0.6843050000     1.2383600000    -2.0809350000
    8      C       1.0363050000     1.8529600000    -0.8890350000
    9      F       1.7005050000     3.0129600000    -0.8455350000
   10      C       0.9100050000     1.6253600000    -3.4825350000
   11      O       0.5319050000     0.9546600000    -4.4329350000
   12      O       1.5787050000     2.7987600000    -3.5956350000
   13      C       1.8308050000     3.2248600000    -4.9426350000
   14      H       2.3753050000     4.1818600000    -4.8595350000
   15      H       0.8807050000     3.3654600000    -5.4966350000
   16      H       2.4421050000     2.4760600000    -5.4857350000
   17      C      -0.5202950000    -2.2871400000     0.9735650000
   18      H      -0.5128950000    -2.2951400000     2.0534650000
   19      H      -1.3609950000    -2.9650400000     0.9738650000
   20      H       0.4201050000    -2.8182400000     0.9668650000
   21      H       1.1790050000     2.0947600000     2.2800650000
 ----------------------------------------------------------------

   11   -1389.2527667489      4.70e-07  Convergence criterion met
 Total energy in the final basis set =    -1389.2527667489
        RIMP2         total energy =     -1391.7614860384 a.u.

                    Orbital Energies (a.u.)
 --------------------------------------------------------------

 Alpha MOs
 -- Occupied --
-92.0070 -91.9945 -26.3411 -20.6135 -20.5595 -11.4075 -11.3795 -11.3063
-11.2940 -11.2900 -11.2881 -11.2834 -11.2790 -11.2221  -9.0062  -8.9946
 -6.6869  -6.6862  -6.6858  -6.6756  -6.6749  -6.6738  -1.6584  -1.4658
 -1.3684  -1.2144  -1.1386  -1.0650  -1.0208  -0.9934  -0.9593  -0.9104
 -0.8646  -0.8080  -0.7890  -0.7583  -0.7317  -0.7232  -0.6920  -0.6832
 -0.6727  -0.6607  -0.6065  -0.6039  -0.5920  -0.5765  -0.5651  -0.5585
 -0.5346  -0.5300  -0.5082  -0.4791  -0.4745  -0.4715  -0.4678  -0.4539
 -0.3912  -0.3443  -0.2936

          Ground-State Mulliken Net Atomic Charges

     Atom                 Charge (a.u.)
  ----------------------------------------
      1 C                    -0.004590
      2 S                     0.079869
      3 C                    -0.197942
      4 C                    -0.016448
      5 C                    -0.080591
      6 S                     0.006753
      7 C                    -0.156679
      8 C                     0.389860
      9 F                    -0.208076
     10 C                     0.445922
     11 O                    -0.462743
     12 O                    -0.301205
     13 C                    -0.058470
     14 H                     0.121019
     15 H                     0.094795
     16 H                     0.094680
     17 C                    -0.356015
     18 H                     0.109266
     19 H                     0.145954
     20 H                     0.139663
     21 H                     0.214979
  ----------------------------------------
  Sum of atomic charges =     0.000000

                    Cartesian Multipole Moments
 -----------------------------------------------------------------
    Charge (ESU x 10^10)
                -0.0000
    Dipole Moment (Debye)
         X       1.3431      Y       0.7840      Z       3.7239
       Tot       4.0356
    Quadrupole Moments (Debye-Ang)
        XX     -93.8243     XY       4.9460     YY     -84.8359
        XZ      -4.1111     YZ      -9.6486     ZZ     -95.2662

 Total job time:  55.41s(wall), 1954.01s(cpu)
        *  Thank you very much for using Q-Chem.  Have a nice day.  *
