 Q-Chem 5.4, Q-Chem, Inc., Pleasanton, CA (2021)
 Q-Chem 5.4.0 for Intel X86 EM64T Linux

User input:
--------------------------------------------------------------
$molecule
0 1
C	0.001722	-0.991205	0.977832
S	0.002222	-0.086405	2.485332
C	0.001422	1.486095	1.696732
C	0.002522	-0.086805	-0.090068
C	0.000122	1.303395	0.291432
S	0.005322	-0.330305	-1.827668
C	-0.000178	1.421295	-2.076668
C	-0.002678	2.129695	-0.884768
F	-0.007478	3.466295	-0.841268
C	0.001722	1.869395	-3.478268
O	0.009622	1.099495	-4.428668
O	-0.005778	3.219895	-3.591368
C	-0.000578	3.714995	-4.938368
H	-0.007578	4.815995	-4.855268
H	-0.893678	3.361695	-5.492368
H	0.903222	3.372095	-5.481468
C	0.001722	-2.426405	0.977832
H	-0.544678	-2.434405	0.046332
H	0.729622	-3.104305	0.557232
H	-0.809278	-2.957505	1.453732
H	0.000022	2.410395	2.284332
$end

$rem
JOBTYPE		SP
EXCHANGE	HF
CORRELATION	pRIMP2
BASIS		cc-pvtz
METHOD		rimp2
AUX_BASIS	rimp2-cc-pvtz
SOLVENT_METHOD	PCM
PURECART	11111
SYMMETRY	false
MEM_TOTAL	110000
SCF_CONVERGENCE = 6
THRESH=10
GUI = 2
$end

$solvent
dielectric 4.90
$end
--------------------------------------------------------------

             Standard Nuclear Orientation (Angstroms)
    I     Atom           X                Y                Z
 ----------------------------------------------------------------
    1      C       0.0017220000    -0.9912050000     0.9778320000
    2      S       0.0022220000    -0.0864050000     2.4853320000
    3      C       0.0014220000     1.4860950000     1.6967320000
    4      C       0.0025220000    -0.0868050000    -0.0900680000
    5      C       0.0001220000     1.3033950000     0.2914320000
    6      S       0.0053220000    -0.3303050000    -1.8276680000
    7      C      -0.0001780000     1.4212950000    -2.0766680000
    8      C      -0.0026780000     2.1296950000    -0.8847680000
    9      F      -0.0074780000     3.4662950000    -0.8412680000
   10      C       0.0017220000     1.8693950000    -3.4782680000
   11      O       0.0096220000     1.0994950000    -4.4286680000
   12      O      -0.0057780000     3.2198950000    -3.5913680000
   13      C      -0.0005780000     3.7149950000    -4.9383680000
   14      H      -0.0075780000     4.8159950000    -4.8552680000
   15      H      -0.8936780000     3.3616950000    -5.4923680000
   16      H       0.9032220000     3.3720950000    -5.4814680000
   17      C       0.0017220000    -2.4264050000     0.9778320000
   18      H      -0.5446780000    -2.4344050000     0.0463320000
   19      H       0.7296220000    -3.1043050000     0.5572320000
   20      H      -0.8092780000    -2.9575050000     1.4537320000
   21      H       0.0000220000     2.4103950000     2.2843320000
 ----------------------------------------------------------------

   11   -1389.2734817756      4.69e-07  Convergence criterion met
 Total energy in the final basis set =    -1389.2734817756
        RIMP2         total energy =     -1391.7790364929 a.u.

                    Orbital Energies (a.u.)
 --------------------------------------------------------------

 Alpha MOs
 -- Occupied --
-92.0041 -91.9933 -26.3410 -20.6137 -20.5597 -11.4077 -11.3793 -11.2977
-11.2965 -11.2946 -11.2882 -11.2872 -11.2788 -11.2273  -9.0031  -8.9934
 -6.6839  -6.6833  -6.6828  -6.6745  -6.6738  -6.6727  -1.6582  -1.4660
 -1.3686  -1.2129  -1.1354  -1.0676  -1.0186  -0.9953  -0.9582  -0.9141
 -0.8633  -0.8050  -0.7888  -0.7591  -0.7300  -0.7230  -0.6942  -0.6834
 -0.6728  -0.6610  -0.6108  -0.5993  -0.5911  -0.5819  -0.5660  -0.5564
 -0.5396  -0.5300  -0.5071  -0.4887  -0.4734  -0.4716  -0.4654  -0.4578
 -0.3894  -0.3446  -0.2897

          Ground-State Mulliken Net Atomic Charges

     Atom                 Charge (a.u.)
  ----------------------------------------
      1 C                     0.049470
      2 S                     0.072679
      3 C                    -0.206949
      4 C                    -0.015876
      5 C                    -0.098396
      6 S                    -0.009495
      7 C                    -0.157492
      8 C                     0.387687
      9 F                    -0.207927
     10 C                     0.445389
     11 O                    -0.462842
     12 O                    -0.300826
     13 C                    -0.058668
     14 H                     0.121176
     15 H                     0.094750
     16 H                     0.094731
     17 C                    -0.376666
     18 H                     0.117252
     19 H                     0.151857
     20 H                     0.147373
     21 H                     0.212775
  ----------------------------------------
  Sum of atomic charges =     0.000000

                    Cartesian Multipole Moments
 -----------------------------------------------------------------
    Charge (ESU x 10^10)
                -0.0000
    Dipole Moment (Debye)
         X      -0.3585      Y       0.4808      Z       2.6773
       Tot       2.7436
    Quadrupole Moments (Debye-Ang)
        XX     -96.4120     XY       0.9088     YY     -80.9446
        XZ      -0.6034     YZ      -8.7774     ZZ     -97.8275

 Total job time:  55.36s(wall), 1972.44s(cpu)
        *  Thank you very much for using Q-Chem.  Have a nice day.  *
