 Q-Chem 5.4, Q-Chem, Inc., Pleasanton, CA (2021)
 Q-Chem 5.4.0 for Intel X86 EM64T Linux

User input:
--------------------------------------------------------------
$molecule
0 1
C	-0.797657	-0.619704	0.973641
S	-0.104257	-0.038504	2.481141
C	1.099843	0.972896	1.692541
C	-0.104357	-0.038904	-0.094259
C	0.959143	0.856396	0.287241
S	-0.289057	-0.197704	-1.831859
C	1.049243	0.932496	-2.080859
C	1.590243	1.389696	-0.888959
F	2.611043	2.252596	-0.845459
C	1.393643	1.219096	-3.482459
O	0.809043	0.718096	-4.432859
O	2.423443	2.092896	-3.595559
C	2.806043	2.407096	-4.942559
H	3.644943	3.120196	-4.859459
H	1.961343	2.864196	-5.496559
H	3.124343	1.494396	-5.485659
C	-0.797657	-2.054904	0.973641
H	-0.602757	-2.062904	2.035841
H	-1.625557	-2.732804	1.119941
H	0.127243	-2.586004	0.803841
H	1.807043	1.568096	2.280141
$end

$rem
JOBTYPE		SP
EXCHANGE	HF
CORRELATION	pRIMP2
BASIS		cc-pvtz
METHOD		rimp2
AUX_BASIS	rimp2-cc-pvtz
SOLVENT_METHOD	PCM
PURECART	11111
SYMMETRY	false
MEM_TOTAL	110000
SCF_CONVERGENCE = 6
THRESH=10
GUI = 2
$end

$solvent
dielectric 4.90
$end
--------------------------------------------------------------

             Standard Nuclear Orientation (Angstroms)
    I     Atom           X                Y                Z
 ----------------------------------------------------------------
    1      C      -0.7976570000    -0.6197040000     0.9736410000
    2      S      -0.1042570000    -0.0385040000     2.4811410000
    3      C       1.0998430000     0.9728960000     1.6925410000
    4      C      -0.1043570000    -0.0389040000    -0.0942590000
    5      C       0.9591430000     0.8563960000     0.2872410000
    6      S      -0.2890570000    -0.1977040000    -1.8318590000
    7      C       1.0492430000     0.9324960000    -2.0808590000
    8      C       1.5902430000     1.3896960000    -0.8889590000
    9      F       2.6110430000     2.2525960000    -0.8454590000
   10      C       1.3936430000     1.2190960000    -3.4824590000
   11      O       0.8090430000     0.7180960000    -4.4328590000
   12      O       2.4234430000     2.0928960000    -3.5955590000
   13      C       2.8060430000     2.4070960000    -4.9425590000
   14      H       3.6449430000     3.1201960000    -4.8594590000
   15      H       1.9613430000     2.8641960000    -5.4965590000
   16      H       3.1243430000     1.4943960000    -5.4856590000
   17      C      -0.7976570000    -2.0549040000     0.9736410000
   18      H      -0.6027570000    -2.0629040000     2.0358410000
   19      H      -1.6255570000    -2.7328040000     1.1199410000
   20      H       0.1272430000    -2.5860040000     0.8038410000
   21      H       1.8070430000     1.5680960000     2.2801410000
 ----------------------------------------------------------------

   11   -1389.2168961032      5.17e-07  Convergence criterion met
 Total energy in the final basis set =    -1389.2168961032
        RIMP2         total energy =     -1391.7307877480 a.u.

                    Orbital Energies (a.u.)
 --------------------------------------------------------------

 Alpha MOs
 -- Occupied --
-92.0035 -91.9992 -26.3427 -20.6136 -20.5595 -11.4078 -11.3820 -11.3185
-11.3004 -11.2937 -11.2883 -11.2797 -11.2681 -11.2160  -9.0035  -8.9991
 -6.6842  -6.6832  -6.6830  -6.6801  -6.6793  -6.6783  -1.6599  -1.4660
 -1.3687  -1.2195  -1.1428  -1.0672  -1.0229  -0.9909  -0.9608  -0.9060
 -0.8664  -0.8111  -0.7904  -0.7591  -0.7335  -0.7246  -0.6944  -0.6835
 -0.6730  -0.6614  -0.6073  -0.6063  -0.5927  -0.5742  -0.5645  -0.5602
 -0.5302  -0.5253  -0.5106  -0.4821  -0.4781  -0.4721  -0.4707  -0.4407
 -0.3884  -0.3414  -0.2968

          Ground-State Mulliken Net Atomic Charges

     Atom                 Charge (a.u.)
  ----------------------------------------
      1 C                    -0.079751
      2 S                     0.086227
      3 C                    -0.162587
      4 C                     0.034555
      5 C                    -0.096133
      6 S                     0.025572
      7 C                    -0.157212
      8 C                     0.390782
      9 F                    -0.206935
     10 C                     0.447371
     11 O                    -0.464125
     12 O                    -0.301585
     13 C                    -0.058406
     14 H                     0.120980
     15 H                     0.094851
     16 H                     0.094693
     17 C                    -0.362804
     18 H                     0.114927
     19 H                     0.131943
     20 H                     0.131588
     21 H                     0.216050
  ----------------------------------------
  Sum of atomic charges =     0.000000

                    Cartesian Multipole Moments
 -----------------------------------------------------------------
    Charge (ESU x 10^10)
                -0.0000
    Dipole Moment (Debye)
         X       2.6658      Y       0.7580      Z       3.5686
       Tot       4.5184
    Quadrupole Moments (Debye-Ang)
        XX     -91.0926     XY       5.3599     YY     -89.5529
        XZ      -5.4859     YZ      -7.0571     ZZ     -94.7742

 Total job time:  60.16s(wall), 2058.12s(cpu)
        *  Thank you very much for using Q-Chem.  Have a nice day.  *
