 Q-Chem 5.4, Q-Chem, Inc., Pleasanton, CA (2021)
 Q-Chem 5.4.0 for Intel X86 EM64T Linux

User input:
--------------------------------------------------------------
$molecule
0 1
C	0.002693	-0.991205	0.975680
S	0.003193	-0.086405	2.483180
C	0.002393	1.486095	1.694580
C	0.003493	-0.086805	-0.092220
C	0.001093	1.303395	0.289280
S	0.006293	-0.330305	-1.829820
C	0.000793	1.421295	-2.078820
C	-0.001707	2.129695	-0.886920
F	-0.006507	3.466295	-0.843420
C	0.002693	1.869395	-3.480420
O	0.010593	1.099495	-4.430820
O	-0.004807	3.219895	-3.593520
C	0.000393	3.714995	-4.940520
H	-0.006607	4.815995	-4.857420
H	-0.892707	3.361695	-5.494520
H	0.904193	3.372095	-5.483620
C	0.002693	-2.426405	0.975680
H	-1.077207	-2.434405	0.983080
H	0.002393	-3.104305	0.134980
H	0.009393	-2.957505	1.916080
H	0.000993	2.410395	2.282180
$end

$rem
JOBTYPE		SP
EXCHANGE	HF
CORRELATION	pRIMP2
BASIS		cc-pvtz
METHOD		rimp2
AUX_BASIS	rimp2-cc-pvtz
SOLVENT_METHOD	PCM
PURECART	11111
SYMMETRY	false
MEM_TOTAL	110000
SCF_CONVERGENCE = 6
THRESH=10
GUI = 2
$end

$solvent
dielectric 4.90
$end
--------------------------------------------------------------

             Standard Nuclear Orientation (Angstroms)
    I     Atom           X                Y                Z
 ----------------------------------------------------------------
    1      C       0.0026930000    -0.9912050000     0.9756800000
    2      S       0.0031930000    -0.0864050000     2.4831800000
    3      C       0.0023930000     1.4860950000     1.6945800000
    4      C       0.0034930000    -0.0868050000    -0.0922200000
    5      C       0.0010930000     1.3033950000     0.2892800000
    6      S       0.0062930000    -0.3303050000    -1.8298200000
    7      C       0.0007930000     1.4212950000    -2.0788200000
    8      C      -0.0017070000     2.1296950000    -0.8869200000
    9      F      -0.0065070000     3.4662950000    -0.8434200000
   10      C       0.0026930000     1.8693950000    -3.4804200000
   11      O       0.0105930000     1.0994950000    -4.4308200000
   12      O      -0.0048070000     3.2198950000    -3.5935200000
   13      C       0.0003930000     3.7149950000    -4.9405200000
   14      H      -0.0066070000     4.8159950000    -4.8574200000
   15      H      -0.8927070000     3.3616950000    -5.4945200000
   16      H       0.9041930000     3.3720950000    -5.4836200000
   17      C       0.0026930000    -2.4264050000     0.9756800000
   18      H      -1.0772070000    -2.4344050000     0.9830800000
   19      H       0.0023930000    -3.1043050000     0.1349800000
   20      H       0.0093930000    -2.9575050000     1.9160800000
   21      H       0.0009930000     2.4103950000     2.2821800000
 ----------------------------------------------------------------

   11   -1389.2732225196      5.31e-07  Convergence criterion met
 Total energy in the final basis set =    -1389.2732225196
        RIMP2         total energy =     -1391.7765774613 a.u.

                    Orbital Energies (a.u.)
 --------------------------------------------------------------

 Alpha MOs
 -- Occupied --
-92.0066 -91.9896 -26.3395 -20.6133 -20.5594 -11.4072 -11.3770 -11.3041
-11.2942 -11.2903 -11.2879 -11.2786 -11.2777 -11.2321  -9.0054  -8.9897
 -6.6862  -6.6857  -6.6851  -6.6708  -6.6701  -6.6690  -1.6567  -1.4656
 -1.3682  -1.2107  -1.1363  -1.0667  -1.0178  -0.9959  -0.9576  -0.9131
 -0.8625  -0.8040  -0.7876  -0.7581  -0.7304  -0.7217  -0.6922  -0.6830
 -0.6724  -0.6599  -0.6131  -0.5941  -0.5892  -0.5816  -0.5610  -0.5589
 -0.5325  -0.5269  -0.5176  -0.4998  -0.4720  -0.4718  -0.4702  -0.4603
 -0.3837  -0.3451  -0.2798

          Ground-State Mulliken Net Atomic Charges

     Atom                 Charge (a.u.)
  ----------------------------------------
      1 C                     0.049896
      2 S                     0.079875
      3 C                    -0.233490
      4 C                    -0.030594
      5 C                    -0.091811
      6 S                    -0.018504
      7 C                    -0.157183
      8 C                     0.390031
      9 F                    -0.209387
     10 C                     0.445325
     11 O                    -0.462035
     12 O                    -0.300578
     13 C                    -0.058718
     14 H                     0.121120
     15 H                     0.094671
     16 H                     0.094719
     17 C                    -0.391733
     18 H                     0.149222
     19 H                     0.170750
     20 H                     0.145723
     21 H                     0.212702
  ----------------------------------------
  Sum of atomic charges =     0.000000

                    Cartesian Multipole Moments
 -----------------------------------------------------------------
    Charge (ESU x 10^10)
                -0.0000
    Dipole Moment (Debye)
         X      -0.7542      Y      -0.1272      Z       3.3417
       Tot       3.4281
    Quadrupole Moments (Debye-Ang)
        XX     -97.0367     XY       1.9377     YY     -80.2187
        XZ      -0.6653     YZ     -10.8802     ZZ     -96.4337

 Total job time:  56.34s(wall), 2073.79s(cpu)
        *  Thank you very much for using Q-Chem.  Have a nice day.  *
