 Q-Chem 5.4, Q-Chem, Inc., Pleasanton, CA (2021)
 Q-Chem 5.4.0 for Intel X86 EM64T Linux

User input:
--------------------------------------------------------------
$molecule
0 1
C	-0.353927	-0.928548	0.977564
S	-0.044027	-0.078548	2.485064
C	0.493073	1.399452	1.696464
C	-0.043927	-0.078948	-0.090336
C	0.429373	1.228152	0.291164
S	-0.124527	-0.308748	-1.827936
C	0.469373	1.339152	-2.076936
C	0.709373	2.005552	-0.885036
F	1.161973	3.263252	-0.841536
C	0.624373	1.759552	-3.478536
O	0.368573	1.033352	-4.428936
O	1.079273	3.031152	-3.591636
C	1.253573	3.494552	-4.938636
H	1.623573	4.531652	-4.855536
H	0.293473	3.468052	-5.492636
H	1.985573	2.863252	-5.481736
C	-0.353927	-2.363748	0.977564
H	-1.053827	-2.371748	0.155064
H	0.289973	-3.041648	0.436964
H	-1.070027	-2.894848	1.587164
H	0.807873	2.268452	2.284064
$end

$rem
JOBTYPE		SP
EXCHANGE	HF
CORRELATION	pRIMP2
BASIS		cc-pvtz
METHOD		rimp2
AUX_BASIS	rimp2-cc-pvtz
SOLVENT_METHOD	PCM
PURECART	11111
SYMMETRY	false
MEM_TOTAL	110000
SCF_CONVERGENCE = 6
THRESH=10
GUI = 2
$end

$solvent
dielectric 4.90
$end
--------------------------------------------------------------

             Standard Nuclear Orientation (Angstroms)
    I     Atom           X                Y                Z
 ----------------------------------------------------------------
    1      C      -0.3539270000    -0.9285480000     0.9775640000
    2      S      -0.0440270000    -0.0785480000     2.4850640000
    3      C       0.4930730000     1.3994520000     1.6964640000
    4      C      -0.0439270000    -0.0789480000    -0.0903360000
    5      C       0.4293730000     1.2281520000     0.2911640000
    6      S      -0.1245270000    -0.3087480000    -1.8279360000
    7      C       0.4693730000     1.3391520000    -2.0769360000
    8      C       0.7093730000     2.0055520000    -0.8850360000
    9      F       1.1619730000     3.2632520000    -0.8415360000
   10      C       0.6243730000     1.7595520000    -3.4785360000
   11      O       0.3685730000     1.0333520000    -4.4289360000
   12      O       1.0792730000     3.0311520000    -3.5916360000
   13      C       1.2535730000     3.4945520000    -4.9386360000
   14      H       1.6235730000     4.5316520000    -4.8555360000
   15      H       0.2934730000     3.4680520000    -5.4926360000
   16      H       1.9855730000     2.8632520000    -5.4817360000
   17      C      -0.3539270000    -2.3637480000     0.9775640000
   18      H      -1.0538270000    -2.3717480000     0.1550640000
   19      H       0.2899730000    -3.0416480000     0.4369640000
   20      H      -1.0700270000    -2.8948480000     1.5871640000
   21      H       0.8078730000     2.2684520000     2.2840640000
 ----------------------------------------------------------------

   11   -1389.2651052488      4.67e-07  Convergence criterion met
 Total energy in the final basis set =    -1389.2651052488
        RIMP2         total energy =     -1391.7724737312 a.u.

                    Orbital Energies (a.u.)
 --------------------------------------------------------------

 Alpha MOs
 -- Occupied --
-92.0031 -91.9941 -26.3411 -20.6137 -20.5597 -11.4077 -11.3795 -11.2999
-11.2946 -11.2925 -11.2889 -11.2882 -11.2791 -11.2257  -9.0022  -8.9942
 -6.6830  -6.6823  -6.6819  -6.6753  -6.6746  -6.6735  -1.6583  -1.4660
 -1.3686  -1.2134  -1.1357  -1.0671  -1.0187  -0.9949  -0.9582  -0.9137
 -0.8635  -0.8052  -0.7889  -0.7591  -0.7299  -0.7231  -0.6941  -0.6834
 -0.6728  -0.6609  -0.6111  -0.5977  -0.5911  -0.5806  -0.5643  -0.5567
 -0.5381  -0.5298  -0.5073  -0.4912  -0.4739  -0.4716  -0.4683  -0.4536
 -0.3872  -0.3448  -0.2885

          Ground-State Mulliken Net Atomic Charges

     Atom                 Charge (a.u.)
  ----------------------------------------
      1 C                     0.027844
      2 S                     0.078463
      3 C                    -0.204864
      4 C                    -0.034421
      5 C                    -0.088400
      6 S                    -0.002405
      7 C                    -0.156521
      8 C                     0.387035
      9 F                    -0.207742
     10 C                     0.446014
     11 O                    -0.462659
     12 O                    -0.300969
     13 C                    -0.058421
     14 H                     0.121085
     15 H                     0.094760
     16 H                     0.094721
     17 C                    -0.371427
     18 H                     0.122502
     19 H                     0.157223
     20 H                     0.145921
     21 H                     0.212260
  ----------------------------------------
  Sum of atomic charges =     0.000000

                    Cartesian Multipole Moments
 -----------------------------------------------------------------
    Charge (ESU x 10^10)
                -0.0000
    Dipole Moment (Debye)
         X       0.3255      Y       0.4934      Z       2.6747
       Tot       2.7393
    Quadrupole Moments (Debye-Ang)
        XX     -95.0285     XY       4.8497     YY     -82.5477
        XZ      -3.4498     YZ      -8.2492     ZZ     -97.5679

 Total job time:  59.14s(wall), 1931.10s(cpu)
        *  Thank you very much for using Q-Chem.  Have a nice day.  *
