 Q-Chem 5.4, Q-Chem, Inc., Pleasanton, CA (2021)
 Q-Chem 5.4.0 for Intel X86 EM64T Linux

User input:
--------------------------------------------------------------
$molecule
0 1
C	-0.353262	-0.928548	0.976092
S	-0.043362	-0.078548	2.483592
C	0.493738	1.399452	1.694992
C	-0.043262	-0.078948	-0.091808
C	0.430038	1.228152	0.289692
S	-0.123862	-0.308748	-1.829408
C	0.470038	1.339152	-2.078408
C	0.710038	2.005552	-0.886508
F	1.162638	3.263252	-0.843008
C	0.625038	1.759552	-3.480008
O	0.369238	1.033352	-4.430408
O	1.079938	3.031152	-3.593108
C	1.254238	3.494552	-4.940108
H	1.624238	4.531652	-4.857008
H	0.294138	3.468052	-5.494108
H	1.986238	2.863252	-5.483208
C	-0.353262	-2.363748	0.976092
H	-1.418062	-2.371748	0.795892
H	-0.207562	-3.041648	0.148092
H	-0.509962	-2.894848	1.903292
H	0.808538	2.268452	2.282592
$end

$rem
JOBTYPE		SP
EXCHANGE	HF
CORRELATION	pRIMP2
BASIS		cc-pvtz
METHOD		rimp2
AUX_BASIS	rimp2-cc-pvtz
SOLVENT_METHOD	PCM
PURECART	11111
SYMMETRY	false
MEM_TOTAL	110000
SCF_CONVERGENCE = 6
THRESH=10
GUI = 2
$end

$solvent
dielectric 4.90
$end
--------------------------------------------------------------

             Standard Nuclear Orientation (Angstroms)
    I     Atom           X                Y                Z
 ----------------------------------------------------------------
    1      C      -0.3532620000    -0.9285480000     0.9760920000
    2      S      -0.0433620000    -0.0785480000     2.4835920000
    3      C       0.4937380000     1.3994520000     1.6949920000
    4      C      -0.0432620000    -0.0789480000    -0.0918080000
    5      C       0.4300380000     1.2281520000     0.2896920000
    6      S      -0.1238620000    -0.3087480000    -1.8294080000
    7      C       0.4700380000     1.3391520000    -2.0784080000
    8      C       0.7100380000     2.0055520000    -0.8865080000
    9      F       1.1626380000     3.2632520000    -0.8430080000
   10      C       0.6250380000     1.7595520000    -3.4800080000
   11      O       0.3692380000     1.0333520000    -4.4304080000
   12      O       1.0799380000     3.0311520000    -3.5931080000
   13      C       1.2542380000     3.4945520000    -4.9401080000
   14      H       1.6242380000     4.5316520000    -4.8570080000
   15      H       0.2941380000     3.4680520000    -5.4941080000
   16      H       1.9862380000     2.8632520000    -5.4832080000
   17      C      -0.3532620000    -2.3637480000     0.9760920000
   18      H      -1.4180620000    -2.3717480000     0.7958920000
   19      H      -0.2075620000    -3.0416480000     0.1480920000
   20      H      -0.5099620000    -2.8948480000     1.9032920000
   21      H       0.8085380000     2.2684520000     2.2825920000
 ----------------------------------------------------------------

   11   -1389.2620365056      5.01e-07  Convergence criterion met
 Total energy in the final basis set =    -1389.2620365056
        RIMP2         total energy =     -1391.7686587959 a.u.

                    Orbital Energies (a.u.)
 --------------------------------------------------------------

 Alpha MOs
 -- Occupied --
-92.0053 -91.9915 -26.3400 -20.6134 -20.5594 -11.4073 -11.3779 -11.2979
-11.2942 -11.2942 -11.2880 -11.2822 -11.2784 -11.2278  -9.0042  -8.9916
 -6.6851  -6.6844  -6.6839  -6.6727  -6.6720  -6.6708  -1.6573  -1.4657
 -1.3683  -1.2116  -1.1361  -1.0662  -1.0182  -0.9953  -0.9578  -0.9132
 -0.8629  -0.8045  -0.7880  -0.7583  -0.7299  -0.7222  -0.6926  -0.6831
 -0.6725  -0.6599  -0.6125  -0.5943  -0.5879  -0.5815  -0.5609  -0.5597
 -0.5335  -0.5278  -0.5109  -0.5001  -0.4730  -0.4713  -0.4706  -0.4577
 -0.3823  -0.3447  -0.2810

          Ground-State Mulliken Net Atomic Charges

     Atom                 Charge (a.u.)
  ----------------------------------------
      1 C                     0.030594
      2 S                     0.085613
      3 C                    -0.226118
      4 C                    -0.038254
      5 C                    -0.085600
      6 S                    -0.009872
      7 C                    -0.157149
      8 C                     0.391801
      9 F                    -0.208750
     10 C                     0.446037
     11 O                    -0.462283
     12 O                    -0.300803
     13 C                    -0.058462
     14 H                     0.121024
     15 H                     0.094690
     16 H                     0.094698
     17 C                    -0.384577
     18 H                     0.143424
     19 H                     0.167065
     20 H                     0.144976
     21 H                     0.211945
  ----------------------------------------
  Sum of atomic charges =     0.000000

                    Cartesian Multipole Moments
 -----------------------------------------------------------------
    Charge (ESU x 10^10)
                -0.0000
    Dipole Moment (Debye)
         X      -0.0472      Y       0.0826      Z       3.1512
       Tot       3.1526
    Quadrupole Moments (Debye-Ang)
        XX     -95.3005     XY       5.5818     YY     -82.1490
        XZ      -3.7514     YZ      -9.6555     ZZ     -96.5474

 Total job time:  59.69s(wall), 2017.79s(cpu)
        *  Thank you very much for using Q-Chem.  Have a nice day.  *
