 Q-Chem 5.4, Q-Chem, Inc., Pleasanton, CA (2021)
 Q-Chem 5.4.0 for Intel X86 EM64T Linux

User input:
--------------------------------------------------------------
$molecule
0 1
C	-0.522189	-0.851940	0.976939
S	-0.069389	-0.068640	2.484439
C	0.716211	1.293660	1.695839
C	-0.069289	-0.069040	-0.090961
C	0.623711	1.136060	0.290539
S	-0.188589	-0.281440	-1.828561
C	0.682411	1.238360	-2.077561
C	1.034411	1.852960	-0.885661
F	1.698611	3.012960	-0.842161
C	0.908111	1.625360	-3.479161
O	0.530011	0.954660	-4.429561
O	1.576811	2.798760	-3.592261
C	1.828911	3.224860	-4.939261
H	2.373411	4.181860	-4.856161
H	0.878811	3.365460	-5.493261
H	2.440211	2.476060	-5.482361
C	-0.522189	-2.287140	0.976939
H	0.490111	-2.295140	0.600539
H	-0.234389	-2.965040	1.766839
H	-0.850089	-2.818240	0.095539
H	1.177111	2.094760	2.283439
$end

$rem
JOBTYPE		SP
EXCHANGE	HF
CORRELATION	pRIMP2
BASIS		cc-pvtz
METHOD		rimp2
AUX_BASIS	rimp2-cc-pvtz
SOLVENT_METHOD	PCM
PURECART	11111
SYMMETRY	false
MEM_TOTAL	110000
SCF_CONVERGENCE = 6
THRESH=10
GUI = 2
$end

$solvent
dielectric 4.90
$end
--------------------------------------------------------------

             Standard Nuclear Orientation (Angstroms)
    I     Atom           X                Y                Z
 ----------------------------------------------------------------
    1      C      -0.5221890000    -0.8519400000     0.9769390000
    2      S      -0.0693890000    -0.0686400000     2.4844390000
    3      C       0.7162110000     1.2936600000     1.6958390000
    4      C      -0.0692890000    -0.0690400000    -0.0909610000
    5      C       0.6237110000     1.1360600000     0.2905390000
    6      S      -0.1885890000    -0.2814400000    -1.8285610000
    7      C       0.6824110000     1.2383600000    -2.0775610000
    8      C       1.0344110000     1.8529600000    -0.8856610000
    9      F       1.6986110000     3.0129600000    -0.8421610000
   10      C       0.9081110000     1.6253600000    -3.4791610000
   11      O       0.5300110000     0.9546600000    -4.4295610000
   12      O       1.5768110000     2.7987600000    -3.5922610000
   13      C       1.8289110000     3.2248600000    -4.9392610000
   14      H       2.3734110000     4.1818600000    -4.8561610000
   15      H       0.8788110000     3.3654600000    -5.4932610000
   16      H       2.4402110000     2.4760600000    -5.4823610000
   17      C      -0.5221890000    -2.2871400000     0.9769390000
   18      H       0.4901110000    -2.2951400000     0.6005390000
   19      H      -0.2343890000    -2.9650400000     1.7668390000
   20      H      -0.8500890000    -2.8182400000     0.0955390000
   21      H       1.1771110000     2.0947600000     2.2834390000
 ----------------------------------------------------------------

   11   -1389.2558156357      5.08e-07  Convergence criterion met
 Total energy in the final basis set =    -1389.2558156357
        RIMP2         total energy =     -1391.7646502404 a.u.

                    Orbital Energies (a.u.)
 --------------------------------------------------------------

 Alpha MOs
 -- Occupied --
-92.0060 -91.9935 -26.3407 -20.6137 -20.5598 -11.4078 -11.3787 -11.2975
-11.2958 -11.2948 -11.2882 -11.2829 -11.2795 -11.2287  -9.0049  -8.9935
 -6.6857  -6.6851  -6.6846  -6.6745  -6.6738  -6.6727  -1.6579  -1.4661
 -1.3687  -1.2140  -1.1384  -1.0680  -1.0187  -0.9937  -0.9583  -0.9108
 -0.8635  -0.8050  -0.7888  -0.7590  -0.7305  -0.7228  -0.6933  -0.6835
 -0.6728  -0.6603  -0.6113  -0.5953  -0.5944  -0.5824  -0.5618  -0.5616
 -0.5307  -0.5253  -0.5105  -0.4996  -0.4726  -0.4717  -0.4701  -0.4609
 -0.3827  -0.3445  -0.2824

          Ground-State Mulliken Net Atomic Charges

     Atom                 Charge (a.u.)
  ----------------------------------------
      1 C                     0.019498
      2 S                     0.085615
      3 C                    -0.223726
      4 C                    -0.031245
      5 C                    -0.082497
      6 S                    -0.005198
      7 C                    -0.153504
      8 C                     0.388194
      9 F                    -0.208305
     10 C                     0.447429
     11 O                    -0.462092
     12 O                    -0.300898
     13 C                    -0.058469
     14 H                     0.121156
     15 H                     0.094858
     16 H                     0.094640
     17 C                    -0.388775
     18 H                     0.144125
     19 H                     0.165542
     20 H                     0.141691
     21 H                     0.211961
  ----------------------------------------
  Sum of atomic charges =     0.000000

                    Cartesian Multipole Moments
 -----------------------------------------------------------------
    Charge (ESU x 10^10)
                -0.0000
    Dipole Moment (Debye)
         X       1.6638      Y       0.0708      Z       2.9679
       Tot       3.4032
    Quadrupole Moments (Debye-Ang)
        XX     -95.0888     XY       3.5497     YY     -83.9879
        XZ      -3.3636     YZ      -8.8076     ZZ     -96.6245

 Total job time:  58.51s(wall), 2031.49s(cpu)
        *  Thank you very much for using Q-Chem.  Have a nice day.  *
