 Q-Chem 5.4, Q-Chem, Inc., Pleasanton, CA (2021)
 Q-Chem 5.4.0 for Intel X86 EM64T Linux

User input:
--------------------------------------------------------------
$molecule
0 1
C	-0.438188	-0.893839	0.973964
S	-0.055388	-0.074039	2.481464
C	0.608512	1.351461	1.692864
C	-0.055288	-0.074439	-0.093936
C	0.530112	1.186461	0.287564
S	-0.155588	-0.296439	-1.831536
C	0.579612	1.293461	-2.080536
C	0.876812	1.936461	-0.888636
F	1.437312	3.149961	-0.845136
C	0.770712	1.698761	-3.482136
O	0.452612	0.997661	-4.432536
O	1.334712	2.925861	-3.595236
C	1.548712	3.372361	-4.942236
H	2.007612	4.373161	-4.859136
H	0.589912	3.429561	-5.496236
H	2.222912	2.679661	-5.485336
C	-0.438188	-2.329039	0.973964
H	-1.126688	-2.337039	1.806064
H	-1.082388	-3.006939	0.433764
H	0.286412	-2.860139	1.573264
H	0.997812	2.189761	2.280464
$end

$rem
JOBTYPE		SP
EXCHANGE	HF
CORRELATION	pRIMP2
BASIS		cc-pvtz
METHOD		rimp2
AUX_BASIS	rimp2-cc-pvtz
SOLVENT_METHOD	PCM
PURECART	11111
SYMMETRY	false
MEM_TOTAL	110000
SCF_CONVERGENCE = 6
THRESH=10
GUI = 2
$end

$solvent
dielectric 4.90
$end
--------------------------------------------------------------

             Standard Nuclear Orientation (Angstroms)
    I     Atom           X                Y                Z
 ----------------------------------------------------------------
    1      C      -0.4381880000    -0.8938390000     0.9739640000
    2      S      -0.0553880000    -0.0740390000     2.4814640000
    3      C       0.6085120000     1.3514610000     1.6928640000
    4      C      -0.0552880000    -0.0744390000    -0.0939360000
    5      C       0.5301120000     1.1864610000     0.2875640000
    6      S      -0.1555880000    -0.2964390000    -1.8315360000
    7      C       0.5796120000     1.2934610000    -2.0805360000
    8      C       0.8768120000     1.9364610000    -0.8886360000
    9      F       1.4373120000     3.1499610000    -0.8451360000
   10      C       0.7707120000     1.6987610000    -3.4821360000
   11      O       0.4526120000     0.9976610000    -4.4325360000
   12      O       1.3347120000     2.9258610000    -3.5952360000
   13      C       1.5487120000     3.3723610000    -4.9422360000
   14      H       2.0076120000     4.3731610000    -4.8591360000
   15      H       0.5899120000     3.4295610000    -5.4962360000
   16      H       2.2229120000     2.6796610000    -5.4853360000
   17      C      -0.4381880000    -2.3290390000     0.9739640000
   18      H      -1.1266880000    -2.3370390000     1.8060640000
   19      H      -1.0823880000    -3.0069390000     0.4337640000
   20      H       0.2864120000    -2.8601390000     1.5732640000
   21      H       0.9978120000     2.1897610000     2.2804640000
 ----------------------------------------------------------------

   11   -1389.2582391368      4.69e-07  Convergence criterion met
 Total energy in the final basis set =    -1389.2582391368
        RIMP2         total energy =     -1391.7655242621 a.u.

                    Orbital Energies (a.u.)
 --------------------------------------------------------------

 Alpha MOs
 -- Occupied --
-92.0072 -91.9927 -26.3404 -20.6134 -20.5594 -11.4073 -11.3786 -11.3022
-11.2941 -11.2892 -11.2880 -11.2858 -11.2787 -11.2240  -9.0062  -8.9928
 -6.6870  -6.6864  -6.6859  -6.6738  -6.6731  -6.6720  -1.6577  -1.4658
 -1.3684  -1.2129  -1.1373  -1.0648  -1.0197  -0.9944  -0.9586  -0.9121
 -0.8638  -0.8065  -0.7884  -0.7581  -0.7310  -0.7226  -0.6917  -0.6831
 -0.6726  -0.6602  -0.6103  -0.5978  -0.5904  -0.5800  -0.5643  -0.5581
 -0.5325  -0.5293  -0.5090  -0.4855  -0.4724  -0.4713  -0.4688  -0.4606
 -0.3866  -0.3451  -0.2879

          Ground-State Mulliken Net Atomic Charges

     Atom                 Charge (a.u.)
  ----------------------------------------
      1 C                    -0.024948
      2 S                     0.078289
      3 C                    -0.199421
      4 C                     0.016823
      5 C                    -0.097969
      6 S                    -0.000459
      7 C                    -0.159290
      8 C                     0.392380
      9 F                    -0.208791
     10 C                     0.446036
     11 O                    -0.462427
     12 O                    -0.300978
     13 C                    -0.058548
     14 H                     0.121041
     15 H                     0.094761
     16 H                     0.094711
     17 C                    -0.371321
     18 H                     0.121130
     19 H                     0.162201
     20 H                     0.142668
     21 H                     0.214111
  ----------------------------------------
  Sum of atomic charges =     0.000000

                    Cartesian Multipole Moments
 -----------------------------------------------------------------
    Charge (ESU x 10^10)
                -0.0000
    Dipole Moment (Debye)
         X       0.5939      Y       0.5668      Z       3.6517
       Tot       3.7429
    Quadrupole Moments (Debye-Ang)
        XX     -94.3992     XY       5.5838     YY     -83.5048
        XZ      -3.6221     YZ     -10.0080     ZZ     -95.4938

 Total job time:  59.98s(wall), 2035.24s(cpu)
        *  Thank you very much for using Q-Chem.  Have a nice day.  *
