 Q-Chem 5.4, Q-Chem, Inc., Pleasanton, CA (2021)
 Q-Chem 5.4.0 for Intel X86 EM64T Linux

User input:
--------------------------------------------------------------
$molecule
0 1
C	-0.900940	-0.471137	0.973560
S	-0.117140	-0.019137	2.481060
C	1.244360	0.767763	1.692460
C	-0.117240	-0.019537	-0.094340
C	1.085460	0.677463	0.287160
S	-0.326840	-0.143837	-1.831940
C	1.187460	0.736763	-2.080940
C	1.799560	1.093063	-0.889040
F	2.954760	1.765563	-0.845540
C	1.576360	0.959163	-3.482540
O	0.913660	0.567363	-4.432940
O	2.742260	1.640863	-3.595640
C	3.173560	1.883963	-4.942640
H	4.123660	2.440463	-4.859540
H	2.421060	2.480763	-5.496640
H	3.328560	0.929763	-5.485740
C	-0.900940	-1.906337	0.973560
H	-1.081140	-1.914337	2.038360
H	-1.728940	-2.584237	0.827860
H	0.026260	-2.437437	1.130260
H	2.044060	1.231163	2.280060
$end

$rem
JOBTYPE		SP
EXCHANGE	HF
CORRELATION	pRIMP2
BASIS		cc-pvtz
METHOD		rimp2
AUX_BASIS	rimp2-cc-pvtz
SOLVENT_METHOD	PCM
PURECART	11111
SYMMETRY	false
MEM_TOTAL	110000
SCF_CONVERGENCE = 6
THRESH=10
GUI = 2
$end

$solvent
dielectric 4.90
$end
--------------------------------------------------------------

             Standard Nuclear Orientation (Angstroms)
    I     Atom           X                Y                Z
 ----------------------------------------------------------------
    1      C      -0.9009400000    -0.4711370000     0.9735600000
    2      S      -0.1171400000    -0.0191370000     2.4810600000
    3      C       1.2443600000     0.7677630000     1.6924600000
    4      C      -0.1172400000    -0.0195370000    -0.0943400000
    5      C       1.0854600000     0.6774630000     0.2871600000
    6      S      -0.3268400000    -0.1438370000    -1.8319400000
    7      C       1.1874600000     0.7367630000    -2.0809400000
    8      C       1.7995600000     1.0930630000    -0.8890400000
    9      F       2.9547600000     1.7655630000    -0.8455400000
   10      C       1.5763600000     0.9591630000    -3.4825400000
   11      O       0.9136600000     0.5673630000    -4.4329400000
   12      O       2.7422600000     1.6408630000    -3.5956400000
   13      C       3.1735600000     1.8839630000    -4.9426400000
   14      H       4.1236600000     2.4404630000    -4.8595400000
   15      H       2.4210600000     2.4807630000    -5.4966400000
   16      H       3.3285600000     0.9297630000    -5.4857400000
   17      C      -0.9009400000    -1.9063370000     0.9735600000
   18      H      -1.0811400000    -1.9143370000     2.0383600000
   19      H      -1.7289400000    -2.5842370000     0.8278600000
   20      H       0.0262600000    -2.4374370000     1.1302600000
   21      H       2.0440600000     1.2311630000     2.2800600000
 ----------------------------------------------------------------

   11   -1389.1987620411      6.09e-07  Convergence criterion met
 Total energy in the final basis set =    -1389.1987620411
        RIMP2         total energy =     -1391.7140833364 a.u.

                    Orbital Energies (a.u.)
 --------------------------------------------------------------

 Alpha MOs
 -- Occupied --
-92.0040 -92.0032 -26.3437 -20.6139 -20.5596 -11.4081 -11.3835 -11.3272
-11.3070 -11.2937 -11.2885 -11.2805 -11.2554 -11.2154  -9.0041  -9.0029
 -6.6847  -6.6838  -6.6836  -6.6835  -6.6831  -6.6821  -1.6608  -1.4663
 -1.3689  -1.2230  -1.1453  -1.0689  -1.0244  -0.9905  -0.9617  -0.9043
 -0.8676  -0.8130  -0.7913  -0.7599  -0.7350  -0.7255  -0.6960  -0.6837
 -0.6733  -0.6621  -0.6102  -0.6065  -0.5926  -0.5755  -0.5665  -0.5607
 -0.5305  -0.5191  -0.5116  -0.4803  -0.4745  -0.4721  -0.4683  -0.4430
 -0.3864  -0.3391  -0.3026

          Ground-State Mulliken Net Atomic Charges

     Atom                 Charge (a.u.)
  ----------------------------------------
      1 C                    -0.142507
      2 S                     0.094793
      3 C                    -0.138846
      4 C                     0.089534
      5 C                    -0.116896
      6 S                     0.040391
      7 C                    -0.160180
      8 C                     0.393532
      9 F                    -0.206334
     10 C                     0.447935
     11 O                    -0.464812
     12 O                    -0.301786
     13 C                    -0.058304
     14 H                     0.121032
     15 H                     0.094930
     16 H                     0.094684
     17 C                    -0.354582
     18 H                     0.103457
     19 H                     0.131906
     20 H                     0.114415
     21 H                     0.217638
  ----------------------------------------
  Sum of atomic charges =     0.000000

                    Cartesian Multipole Moments
 -----------------------------------------------------------------
    Charge (ESU x 10^10)
                -0.0000
    Dipole Moment (Debye)
         X       3.1927      Y       0.6459      Z       3.3650
       Tot       4.6833
    Quadrupole Moments (Debye-Ang)
        XX     -89.5048     XY       5.4672     YY     -91.6690
        XZ      -5.5218     YZ      -5.3314     ZZ     -94.5029

 Total job time:  59.66s(wall), 1905.38s(cpu)
        *  Thank you very much for using Q-Chem.  Have a nice day.  *
