 Q-Chem 5.4, Q-Chem, Inc., Pleasanton, CA (2021)
 Q-Chem 5.4.0 for Intel X86 EM64T Linux

User input:
--------------------------------------------------------------
$molecule
0 1
C	-0.437170	-0.893839	0.975680
S	-0.054370	-0.074039	2.483180
C	0.609530	1.351461	1.694580
C	-0.054270	-0.074439	-0.092220
C	0.531130	1.186461	0.289280
S	-0.154570	-0.296439	-1.829820
C	0.580630	1.293461	-2.078820
C	0.877830	1.936461	-0.886920
F	1.438330	3.149961	-0.843420
C	0.771730	1.698761	-3.480420
O	0.453630	0.997661	-4.430820
O	1.335730	2.925861	-3.593520
C	1.549730	3.372361	-4.940520
H	2.008630	4.373161	-4.857420
H	0.590930	3.429561	-5.494520
H	2.223930	2.679661	-5.483620
C	-0.437170	-2.329039	0.975680
H	-1.517070	-2.337039	0.983080
H	-0.437470	-3.006939	0.134980
H	-0.430470	-2.860139	1.916080
H	0.998830	2.189761	2.282180
$end

$rem
JOBTYPE		SP
EXCHANGE	HF
CORRELATION	pRIMP2
BASIS		cc-pvtz
METHOD		rimp2
AUX_BASIS	rimp2-cc-pvtz
SOLVENT_METHOD	PCM
PURECART	11111
SYMMETRY	false
MEM_TOTAL	110000
SCF_CONVERGENCE = 6
THRESH=10
GUI = 2
$end

$solvent
dielectric 4.90
$end
--------------------------------------------------------------

             Standard Nuclear Orientation (Angstroms)
    I     Atom           X                Y                Z
 ----------------------------------------------------------------
    1      C      -0.4371700000    -0.8938390000     0.9756800000
    2      S      -0.0543700000    -0.0740390000     2.4831800000
    3      C       0.6095300000     1.3514610000     1.6945800000
    4      C      -0.0542700000    -0.0744390000    -0.0922200000
    5      C       0.5311300000     1.1864610000     0.2892800000
    6      S      -0.1545700000    -0.2964390000    -1.8298200000
    7      C       0.5806300000     1.2934610000    -2.0788200000
    8      C       0.8778300000     1.9364610000    -0.8869200000
    9      F       1.4383300000     3.1499610000    -0.8434200000
   10      C       0.7717300000     1.6987610000    -3.4804200000
   11      O       0.4536300000     0.9976610000    -4.4308200000
   12      O       1.3357300000     2.9258610000    -3.5935200000
   13      C       1.5497300000     3.3723610000    -4.9405200000
   14      H       2.0086300000     4.3731610000    -4.8574200000
   15      H       0.5909300000     3.4295610000    -5.4945200000
   16      H       2.2239300000     2.6796610000    -5.4836200000
   17      C      -0.4371700000    -2.3290390000     0.9756800000
   18      H      -1.5170700000    -2.3370390000     0.9830800000
   19      H      -0.4374700000    -3.0069390000     0.1349800000
   20      H      -0.4304700000    -2.8601390000     1.9160800000
   21      H       0.9988300000     2.1897610000     2.2821800000
 ----------------------------------------------------------------

   11   -1389.2560130951      4.93e-07  Convergence criterion met
 Total energy in the final basis set =    -1389.2560130951
        RIMP2         total energy =     -1391.7637332604 a.u.

                    Orbital Energies (a.u.)
 --------------------------------------------------------------

 Alpha MOs
 -- Occupied --
-92.0052 -91.9918 -26.3401 -20.6133 -20.5594 -11.4073 -11.3780 -11.2961
-11.2953 -11.2941 -11.2880 -11.2831 -11.2783 -11.2262  -9.0042  -8.9919
 -6.6850  -6.6843  -6.6838  -6.6729  -6.6722  -6.6711  -1.6573  -1.4657
 -1.3683  -1.2120  -1.1364  -1.0658  -1.0184  -0.9948  -0.9579  -0.9128
 -0.8630  -0.8049  -0.7880  -0.7583  -0.7300  -0.7222  -0.6924  -0.6831
 -0.6725  -0.6597  -0.6124  -0.5943  -0.5877  -0.5811  -0.5611  -0.5596
 -0.5323  -0.5266  -0.5113  -0.5002  -0.4729  -0.4714  -0.4707  -0.4570
 -0.3814  -0.3447  -0.2807

          Ground-State Mulliken Net Atomic Charges

     Atom                 Charge (a.u.)
  ----------------------------------------
      1 C                     0.015551
      2 S                     0.084855
      3 C                    -0.222667
      4 C                    -0.028466
      5 C                    -0.086764
      6 S                    -0.006505
      7 C                    -0.157734
      8 C                     0.393083
      9 F                    -0.208728
     10 C                     0.446652
     11 O                    -0.462361
     12 O                    -0.300899
     13 C                    -0.058527
     14 H                     0.121075
     15 H                     0.094705
     16 H                     0.094674
     17 C                    -0.384343
     18 H                     0.141942
     19 H                     0.166007
     20 H                     0.145827
     21 H                     0.212623
  ----------------------------------------
  Sum of atomic charges =     0.000000

                    Cartesian Multipole Moments
 -----------------------------------------------------------------
    Charge (ESU x 10^10)
                -0.0000
    Dipole Moment (Debye)
         X       0.1550      Y       0.1329      Z       3.2504
       Tot       3.2568
    Quadrupole Moments (Debye-Ang)
        XX     -94.5942     XY       6.2723     YY     -83.0534
        XZ      -4.2953     YZ      -9.4647     ZZ     -96.2509

 Total job time:  118.92s(wall), 5924.38s(cpu)
        *  Thank you very much for using Q-Chem.  Have a nice day.  *
