 Q-Chem 5.4, Q-Chem, Inc., Pleasanton, CA (2021)
 Q-Chem 5.4.0 for Intel X86 EM64T Linux

User input:
--------------------------------------------------------------
$molecule
0 1
C	-0.353968	-0.928548	0.974225
S	-0.044068	-0.078548	2.481725
C	0.493032	1.399452	1.693125
C	-0.043968	-0.078948	-0.093675
C	0.429332	1.228152	0.287825
S	-0.124568	-0.308748	-1.831275
C	0.469332	1.339152	-2.080275
C	0.709332	2.005552	-0.888375
F	1.161932	3.263252	-0.844875
C	0.624332	1.759552	-3.481875
O	0.368532	1.033352	-4.432275
O	1.079232	3.031152	-3.594975
C	1.253532	3.494552	-4.941975
H	1.623532	4.531652	-4.858875
H	0.293432	3.468052	-5.495975
H	1.985532	2.863252	-5.485075
C	-0.353968	-2.363748	0.974225
H	-1.176468	-2.371748	1.674125
H	-0.894568	-3.041648	0.330325
H	0.255632	-2.894848	1.690325
H	0.807832	2.268452	2.280725
$end

$rem
JOBTYPE		SP
EXCHANGE	HF
CORRELATION	pRIMP2
BASIS		cc-pvtz
METHOD		rimp2
AUX_BASIS	rimp2-cc-pvtz
SOLVENT_METHOD	PCM
PURECART	11111
SYMMETRY	false
MEM_TOTAL	110000
SCF_CONVERGENCE = 6
THRESH=10
GUI = 2
$end

$solvent
dielectric 4.90
$end
--------------------------------------------------------------

             Standard Nuclear Orientation (Angstroms)
    I     Atom           X                Y                Z
 ----------------------------------------------------------------
    1      C      -0.3539680000    -0.9285480000     0.9742250000
    2      S      -0.0440680000    -0.0785480000     2.4817250000
    3      C       0.4930320000     1.3994520000     1.6931250000
    4      C      -0.0439680000    -0.0789480000    -0.0936750000
    5      C       0.4293320000     1.2281520000     0.2878250000
    6      S      -0.1245680000    -0.3087480000    -1.8312750000
    7      C       0.4693320000     1.3391520000    -2.0802750000
    8      C       0.7093320000     2.0055520000    -0.8883750000
    9      F       1.1619320000     3.2632520000    -0.8448750000
   10      C       0.6243320000     1.7595520000    -3.4818750000
   11      O       0.3685320000     1.0333520000    -4.4322750000
   12      O       1.0792320000     3.0311520000    -3.5949750000
   13      C       1.2535320000     3.4945520000    -4.9419750000
   14      H       1.6235320000     4.5316520000    -4.8588750000
   15      H       0.2934320000     3.4680520000    -5.4959750000
   16      H       1.9855320000     2.8632520000    -5.4850750000
   17      C      -0.3539680000    -2.3637480000     0.9742250000
   18      H      -1.1764680000    -2.3717480000     1.6741250000
   19      H      -0.8945680000    -3.0416480000     0.3303250000
   20      H       0.2556320000    -2.8948480000     1.6903250000
   21      H       0.8078320000     2.2684520000     2.2807250000
 ----------------------------------------------------------------

   11   -1389.2623740930      4.85e-07  Convergence criterion met
 Total energy in the final basis set =    -1389.2623740930
        RIMP2         total energy =     -1391.7684729039 a.u.

                    Orbital Energies (a.u.)
 --------------------------------------------------------------

 Alpha MOs
 -- Occupied --
-92.0069 -91.9914 -26.3401 -20.6133 -20.5594 -11.4072 -11.3780 -11.2990
-11.2941 -11.2935 -11.2880 -11.2836 -11.2783 -11.2257  -9.0059  -8.9916
 -6.6867  -6.6861  -6.6856  -6.6726  -6.6719  -6.6708  -1.6574  -1.4657
 -1.3683  -1.2121  -1.1368  -1.0650  -1.0191  -0.9949  -0.9582  -0.9126
 -0.8633  -0.8057  -0.7881  -0.7580  -0.7307  -0.7223  -0.6916  -0.6830
 -0.6725  -0.6600  -0.6112  -0.5965  -0.5899  -0.5807  -0.5638  -0.5576
 -0.5327  -0.5289  -0.5100  -0.4903  -0.4722  -0.4710  -0.4704  -0.4599
 -0.3855  -0.3452  -0.2851

          Ground-State Mulliken Net Atomic Charges

     Atom                 Charge (a.u.)
  ----------------------------------------
      1 C                    -0.012046
      2 S                     0.074647
      3 C                    -0.204869
      4 C                     0.013893
      5 C                    -0.100053
      6 S                    -0.006093
      7 C                    -0.158087
      8 C                     0.390912
      9 F                    -0.209060
     10 C                     0.445998
     11 O                    -0.462218
     12 O                    -0.300846
     13 C                    -0.058500
     14 H                     0.120962
     15 H                     0.094714
     16 H                     0.094711
     17 C                    -0.377101
     18 H                     0.128950
     19 H                     0.165482
     20 H                     0.144540
     21 H                     0.214063
  ----------------------------------------
  Sum of atomic charges =     0.000000

                    Cartesian Multipole Moments
 -----------------------------------------------------------------
    Charge (ESU x 10^10)
                -0.0000
    Dipole Moment (Debye)
         X       0.2311      Y       0.3953      Z       3.6467
       Tot       3.6754
    Quadrupole Moments (Debye-Ang)
        XX     -95.1339     XY       5.1605     YY     -82.4631
        XZ      -3.1034     YZ     -10.4804     ZZ     -95.6259

 Total job time:  64.29s(wall), 1903.01s(cpu)
        *  Thank you very much for using Q-Chem.  Have a nice day.  *
