 Q-Chem 5.4, Q-Chem, Inc., Pleasanton, CA (2021)
 Q-Chem 5.4.0 for Intel X86 EM64T Linux

User input:
--------------------------------------------------------------
$molecule
0 1
C	-0.355033	-0.928548	0.973626
S	-0.045133	-0.078548	2.481126
C	0.491967	1.399452	1.692526
C	-0.045033	-0.078948	-0.094274
C	0.428267	1.228152	0.287226
S	-0.125633	-0.308748	-1.831874
C	0.468267	1.339152	-2.080874
C	0.708267	2.005552	-0.888974
F	1.160867	3.263252	-0.845474
C	0.623267	1.759552	-3.482474
O	0.367467	1.033352	-4.432874
O	1.078167	3.031152	-3.595574
C	1.252467	3.494552	-4.942574
H	1.622467	4.531652	-4.859474
H	0.292367	3.468052	-5.496574
H	1.984467	2.863252	-5.485674
C	-0.355033	-2.363748	0.973626
H	-0.717433	-2.371748	1.991026
H	-1.145133	-3.041648	0.686326
H	0.530867	-2.894848	1.289026
H	0.806767	2.268452	2.280126
$end

$rem
JOBTYPE		SP
EXCHANGE	HF
CORRELATION	pRIMP2
BASIS		cc-pvtz
METHOD		rimp2
AUX_BASIS	rimp2-cc-pvtz
SOLVENT_METHOD	PCM
PURECART	11111
SYMMETRY	false
MEM_TOTAL	110000
SCF_CONVERGENCE = 6
THRESH=10
GUI = 2
$end

$solvent
dielectric 4.90
$end
--------------------------------------------------------------

             Standard Nuclear Orientation (Angstroms)
    I     Atom           X                Y                Z
 ----------------------------------------------------------------
    1      C      -0.3550330000    -0.9285480000     0.9736260000
    2      S      -0.0451330000    -0.0785480000     2.4811260000
    3      C       0.4919670000     1.3994520000     1.6925260000
    4      C      -0.0450330000    -0.0789480000    -0.0942740000
    5      C       0.4282670000     1.2281520000     0.2872260000
    6      S      -0.1256330000    -0.3087480000    -1.8318740000
    7      C       0.4682670000     1.3391520000    -2.0808740000
    8      C       0.7082670000     2.0055520000    -0.8889740000
    9      F       1.1608670000     3.2632520000    -0.8454740000
   10      C       0.6232670000     1.7595520000    -3.4824740000
   11      O       0.3674670000     1.0333520000    -4.4328740000
   12      O       1.0781670000     3.0311520000    -3.5955740000
   13      C       1.2524670000     3.4945520000    -4.9425740000
   14      H       1.6224670000     4.5316520000    -4.8594740000
   15      H       0.2923670000     3.4680520000    -5.4965740000
   16      H       1.9844670000     2.8632520000    -5.4856740000
   17      C      -0.3550330000    -2.3637480000     0.9736260000
   18      H      -0.7174330000    -2.3717480000     1.9910260000
   19      H      -1.1451330000    -3.0416480000     0.6863260000
   20      H       0.5308670000    -2.8948480000     1.2890260000
   21      H       0.8067670000     2.2684520000     2.2801260000
 ----------------------------------------------------------------

   11   -1389.2632086212      4.70e-07  Convergence criterion met
 Total energy in the final basis set =    -1389.2632086212
        RIMP2         total energy =     -1391.7698159766 a.u.

                    Orbital Energies (a.u.)
 --------------------------------------------------------------

 Alpha MOs
 -- Occupied --
-92.0082 -91.9928 -26.3405 -20.6134 -20.5595 -11.4074 -11.3786 -11.3022
-11.2941 -11.2892 -11.2880 -11.2862 -11.2788 -11.2244  -9.0070  -8.9929
 -6.6878  -6.6872  -6.6867  -6.6740  -6.6733  -6.6721  -1.6578  -1.4658
 -1.3683  -1.2129  -1.1374  -1.0647  -1.0200  -0.9945  -0.9588  -0.9120
 -0.8640  -0.8069  -0.7885  -0.7580  -0.7313  -0.7227  -0.6915  -0.6831
 -0.6726  -0.6605  -0.6084  -0.6008  -0.5914  -0.5781  -0.5653  -0.5576
 -0.5363  -0.5298  -0.5080  -0.4804  -0.4730  -0.4713  -0.4645  -0.4626
 -0.3902  -0.3450  -0.2912

          Ground-State Mulliken Net Atomic Charges

     Atom                 Charge (a.u.)
  ----------------------------------------
      1 C                     0.001840
      2 S                     0.079142
      3 C                    -0.204315
      4 C                    -0.003429
      5 C                    -0.092235
      6 S                    -0.000392
      7 C                    -0.159070
      8 C                     0.393363
      9 F                    -0.208712
     10 C                     0.445293
     11 O                    -0.462408
     12 O                    -0.300959
     13 C                    -0.058472
     14 H                     0.120960
     15 H                     0.094763
     16 H                     0.094719
     17 C                    -0.361682
     18 H                     0.111222
     19 H                     0.158807
     20 H                     0.137175
     21 H                     0.214390
  ----------------------------------------
  Sum of atomic charges =     0.000000

                    Cartesian Multipole Moments
 -----------------------------------------------------------------
    Charge (ESU x 10^10)
                -0.0000
    Dipole Moment (Debye)
         X       0.6132      Y       0.6904      Z       3.7513
       Tot       3.8633
    Quadrupole Moments (Debye-Ang)
        XX     -95.0009     XY       4.3434     YY     -82.8664
        XZ      -2.9009     YZ     -10.5482     ZZ     -95.4177

 Total job time:  56.00s(wall), 1981.77s(cpu)
        *  Thank you very much for using Q-Chem.  Have a nice day.  *
