 Q-Chem 5.4, Q-Chem, Inc., Pleasanton, CA (2021)
 Q-Chem 5.4.0 for Intel X86 EM64T Linux

User input:
--------------------------------------------------------------
$molecule
0 1
C	-0.900145	-0.471137	0.973763
S	-0.116345	-0.019137	2.481263
C	1.245155	0.767763	1.692663
C	-0.116445	-0.019537	-0.094137
C	1.086255	0.677463	0.287363
S	-0.326045	-0.143837	-1.831737
C	1.188255	0.736763	-2.080737
C	1.800355	1.093063	-0.888837
F	2.955555	1.765563	-0.845337
C	1.577155	0.959163	-3.482337
O	0.914455	0.567363	-4.432737
O	2.743055	1.640863	-3.595437
C	3.174355	1.883963	-4.942437
H	4.124455	2.440463	-4.859337
H	2.421855	2.480763	-5.496437
H	3.329355	0.929763	-5.485537
C	-0.900145	-1.906337	0.973763
H	-1.433645	-1.914337	1.912763
H	-1.628345	-2.584237	0.553663
H	-0.082445	-2.437437	1.438163
H	2.044855	1.231163	2.280263
$end

$rem
JOBTYPE		SP
EXCHANGE	HF
CORRELATION	pRIMP2
BASIS		cc-pvtz
METHOD		rimp2
AUX_BASIS	rimp2-cc-pvtz
SOLVENT_METHOD	PCM
PURECART	11111
SYMMETRY	false
MEM_TOTAL	110000
SCF_CONVERGENCE = 6
THRESH=10
GUI = 2
$end

$solvent
dielectric 4.90
$end
--------------------------------------------------------------

             Standard Nuclear Orientation (Angstroms)
    I     Atom           X                Y                Z
 ----------------------------------------------------------------
    1      C      -0.9001450000    -0.4711370000     0.9737630000
    2      S      -0.1163450000    -0.0191370000     2.4812630000
    3      C       1.2451550000     0.7677630000     1.6926630000
    4      C      -0.1164450000    -0.0195370000    -0.0941370000
    5      C       1.0862550000     0.6774630000     0.2873630000
    6      S      -0.3260450000    -0.1438370000    -1.8317370000
    7      C       1.1882550000     0.7367630000    -2.0807370000
    8      C       1.8003550000     1.0930630000    -0.8888370000
    9      F       2.9555550000     1.7655630000    -0.8453370000
   10      C       1.5771550000     0.9591630000    -3.4823370000
   11      O       0.9144550000     0.5673630000    -4.4327370000
   12      O       2.7430550000     1.6408630000    -3.5954370000
   13      C       3.1743550000     1.8839630000    -4.9424370000
   14      H       4.1244550000     2.4404630000    -4.8593370000
   15      H       2.4218550000     2.4807630000    -5.4964370000
   16      H       3.3293550000     0.9297630000    -5.4855370000
   17      C      -0.9001450000    -1.9063370000     0.9737630000
   18      H      -1.4336450000    -1.9143370000     1.9127630000
   19      H      -1.6283450000    -2.5842370000     0.5536630000
   20      H      -0.0824450000    -2.4374370000     1.4381630000
   21      H       2.0448550000     1.2311630000     2.2802630000
 ----------------------------------------------------------------

   11   -1389.2007212747      6.08e-07  Convergence criterion met
 Total energy in the final basis set =    -1389.2007212747
        RIMP2         total energy =     -1391.7155044949 a.u.

                    Orbital Energies (a.u.)
 --------------------------------------------------------------

 Alpha MOs
 -- Occupied --
-92.0044 -92.0033 -26.3436 -20.6141 -20.5600 -11.4084 -11.3834 -11.3275
-11.3063 -11.2943 -11.2886 -11.2811 -11.2543 -11.2150  -9.0042  -9.0031
 -6.6849  -6.6840  -6.6839  -6.6838  -6.6833  -6.6823  -1.6608  -1.4665
 -1.3692  -1.2225  -1.1444  -1.0684  -1.0240  -0.9908  -0.9615  -0.9056
 -0.8674  -0.8123  -0.7913  -0.7601  -0.7346  -0.7254  -0.6960  -0.6840
 -0.6734  -0.6617  -0.6122  -0.6030  -0.5921  -0.5763  -0.5670  -0.5609
 -0.5307  -0.5203  -0.5106  -0.4812  -0.4737  -0.4720  -0.4613  -0.4527
 -0.3823  -0.3415  -0.3003

          Ground-State Mulliken Net Atomic Charges

     Atom                 Charge (a.u.)
  ----------------------------------------
      1 C                    -0.156347
      2 S                     0.093831
      3 C                    -0.133921
      4 C                     0.107251
      5 C                    -0.123926
      6 S                     0.042488
      7 C                    -0.160139
      8 C                     0.393008
      9 F                    -0.206362
     10 C                     0.448161
     11 O                    -0.464279
     12 O                    -0.301627
     13 C                    -0.058286
     14 H                     0.121106
     15 H                     0.094973
     16 H                     0.094744
     17 C                    -0.368505
     18 H                     0.104683
     19 H                     0.138341
     20 H                     0.116835
     21 H                     0.217973
  ----------------------------------------
  Sum of atomic charges =     0.000000

                    Cartesian Multipole Moments
 -----------------------------------------------------------------
    Charge (ESU x 10^10)
                -0.0000
    Dipole Moment (Debye)
         X       3.0575      Y       0.6733      Z       3.1965
       Tot       4.4743
    Quadrupole Moments (Debye-Ang)
        XX     -89.2724     XY       5.9170     YY     -91.6096
        XZ      -5.3962     YZ      -5.0171     ZZ     -94.6156

 Total job time:  56.21s(wall), 1928.70s(cpu)
        *  Thank you very much for using Q-Chem.  Have a nice day.  *
