 Q-Chem 5.4, Q-Chem, Inc., Pleasanton, CA (2021)
 Q-Chem 5.4.0 for Intel X86 EM64T Linux

User input:
--------------------------------------------------------------
$molecule
0 1
C	-0.518371	-0.851940	0.977564
S	-0.065571	-0.068640	2.485064
C	0.720029	1.293660	1.696464
C	-0.065471	-0.069040	-0.090336
C	0.627529	1.136060	0.291164
S	-0.184771	-0.281440	-1.827936
C	0.686229	1.238360	-2.076936
C	1.038229	1.852960	-0.885036
F	1.702429	3.012960	-0.841536
C	0.911929	1.625360	-3.478536
O	0.533829	0.954660	-4.428936
O	1.580629	2.798760	-3.591636
C	1.832729	3.224860	-4.938636
H	2.377229	4.181860	-4.855536
H	0.882629	3.365460	-5.492636
H	2.444029	2.476060	-5.481736
C	-0.518371	-2.287140	0.977564
H	-1.218271	-2.295140	0.155064
H	0.125529	-2.965040	0.436964
H	-1.234471	-2.818240	1.587164
H	1.180929	2.094760	2.284064
$end

$rem
JOBTYPE		SP
EXCHANGE	HF
CORRELATION	pRIMP2
BASIS		cc-pvtz
METHOD		rimp2
AUX_BASIS	rimp2-cc-pvtz
SOLVENT_METHOD	PCM
PURECART	11111
SYMMETRY	false
MEM_TOTAL	110000
SCF_CONVERGENCE = 6
THRESH=10
GUI = 2
$end

$solvent
dielectric 4.90
$end
--------------------------------------------------------------

             Standard Nuclear Orientation (Angstroms)
    I     Atom           X                Y                Z
 ----------------------------------------------------------------
    1      C      -0.5183710000    -0.8519400000     0.9775640000
    2      S      -0.0655710000    -0.0686400000     2.4850640000
    3      C       0.7200290000     1.2936600000     1.6964640000
    4      C      -0.0654710000    -0.0690400000    -0.0903360000
    5      C       0.6275290000     1.1360600000     0.2911640000
    6      S      -0.1847710000    -0.2814400000    -1.8279360000
    7      C       0.6862290000     1.2383600000    -2.0769360000
    8      C       1.0382290000     1.8529600000    -0.8850360000
    9      F       1.7024290000     3.0129600000    -0.8415360000
   10      C       0.9119290000     1.6253600000    -3.4785360000
   11      O       0.5338290000     0.9546600000    -4.4289360000
   12      O       1.5806290000     2.7987600000    -3.5916360000
   13      C       1.8327290000     3.2248600000    -4.9386360000
   14      H       2.3772290000     4.1818600000    -4.8555360000
   15      H       0.8826290000     3.3654600000    -5.4926360000
   16      H       2.4440290000     2.4760600000    -5.4817360000
   17      C      -0.5183710000    -2.2871400000     0.9775640000
   18      H      -1.2182710000    -2.2951400000     0.1550640000
   19      H       0.1255290000    -2.9650400000     0.4369640000
   20      H      -1.2344710000    -2.8182400000     1.5871640000
   21      H       1.1809290000     2.0947600000     2.2840640000
 ----------------------------------------------------------------

   11   -1389.2550225572      4.63e-07  Convergence criterion met
 Total energy in the final basis set =    -1389.2550225572
        RIMP2         total energy =     -1391.7645601114 a.u.

                    Orbital Energies (a.u.)
 --------------------------------------------------------------

 Alpha MOs
 -- Occupied --
-92.0018 -91.9958 -26.3416 -20.6138 -20.5598 -11.4079 -11.3802 -11.3040
-11.2946 -11.2925 -11.2883 -11.2863 -11.2796 -11.2232  -9.0011  -8.9959
 -6.6819  -6.6811  -6.6808  -6.6769  -6.6762  -6.6751  -1.6587  -1.4662
 -1.3688  -1.2147  -1.1363  -1.0671  -1.0192  -0.9940  -0.9585  -0.9130
 -0.8639  -0.8059  -0.7893  -0.7594  -0.7300  -0.7236  -0.6946  -0.6836
 -0.6730  -0.6610  -0.6109  -0.5980  -0.5916  -0.5796  -0.5636  -0.5569
 -0.5361  -0.5298  -0.5076  -0.4915  -0.4744  -0.4719  -0.4689  -0.4494
 -0.3863  -0.3448  -0.2895

          Ground-State Mulliken Net Atomic Charges

     Atom                 Charge (a.u.)
  ----------------------------------------
      1 C                    -0.000117
      2 S                     0.080805
      3 C                    -0.194337
      4 C                    -0.023437
      5 C                    -0.090330
      6 S                     0.005414
      7 C                    -0.156814
      8 C                     0.388602
      9 F                    -0.207373
     10 C                     0.446570
     11 O                    -0.462853
     12 O                    -0.301124
     13 C                    -0.058436
     14 H                     0.121169
     15 H                     0.094799
     16 H                     0.094710
     17 C                    -0.372290
     18 H                     0.121778
     19 H                     0.158482
     20 H                     0.142452
     21 H                     0.212332
  ----------------------------------------
  Sum of atomic charges =     0.000000

                    Cartesian Multipole Moments
 -----------------------------------------------------------------
    Charge (ESU x 10^10)
                -0.0000
    Dipole Moment (Debye)
         X       0.8161      Y       0.6001      Z       2.6013
       Tot       2.7916
    Quadrupole Moments (Debye-Ang)
        XX     -93.5866     XY       6.0509     YY     -84.4666
        XZ      -4.5027     YZ      -7.3277     ZZ     -97.4602

 Total job time:  58.51s(wall), 2031.55s(cpu)
        *  Thank you very much for using Q-Chem.  Have a nice day.  *
