 Q-Chem 5.4, Q-Chem, Inc., Pleasanton, CA (2021)
 Q-Chem 5.4.0 for Intel X86 EM64T Linux

User input:
--------------------------------------------------------------
$molecule
0 1
C	-0.092304	-0.987267	0.974584
S	-0.013004	-0.085967	2.482084
C	0.123296	1.480633	1.693484
C	-0.012704	-0.086367	-0.093316
C	0.106096	1.298733	0.288184
S	-0.031104	-0.329267	-1.830916
C	0.115996	1.416233	-2.079916
C	0.175296	2.122133	-0.888016
F	0.286996	3.454033	-0.844516
C	0.156996	1.862433	-3.481516
O	0.097796	1.094833	-4.431916
O	0.267196	3.208433	-3.594616
C	0.315596	3.701233	-4.941616
H	0.404596	4.798633	-4.858516
H	-0.604904	3.427033	-5.495616
H	1.186096	3.280833	-5.484716
C	-0.092304	-2.422467	0.974584
H	0.739796	-2.430467	1.663084
H	-0.632504	-3.100367	1.618784
H	0.506996	-2.953567	0.249984
H	0.202496	2.401533	2.281084
$end

$rem
JOBTYPE		SP
EXCHANGE	HF
CORRELATION	pRIMP2
BASIS		cc-pvtz
METHOD		rimp2
AUX_BASIS	rimp2-cc-pvtz
SOLVENT_METHOD	PCM
PURECART	11111
SYMMETRY	false
MEM_TOTAL	110000
SCF_CONVERGENCE = 6
THRESH=10
GUI = 2
$end

$solvent
dielectric 4.90
$end
--------------------------------------------------------------

             Standard Nuclear Orientation (Angstroms)
    I     Atom           X                Y                Z
 ----------------------------------------------------------------
    1      C      -0.0923040000    -0.9872670000     0.9745840000
    2      S      -0.0130040000    -0.0859670000     2.4820840000
    3      C       0.1232960000     1.4806330000     1.6934840000
    4      C      -0.0127040000    -0.0863670000    -0.0933160000
    5      C       0.1060960000     1.2987330000     0.2881840000
    6      S      -0.0311040000    -0.3292670000    -1.8309160000
    7      C       0.1159960000     1.4162330000    -2.0799160000
    8      C       0.1752960000     2.1221330000    -0.8880160000
    9      F       0.2869960000     3.4540330000    -0.8445160000
   10      C       0.1569960000     1.8624330000    -3.4815160000
   11      O       0.0977960000     1.0948330000    -4.4319160000
   12      O       0.2671960000     3.2084330000    -3.5946160000
   13      C       0.3155960000     3.7012330000    -4.9416160000
   14      H       0.4045960000     4.7986330000    -4.8585160000
   15      H      -0.6049040000     3.4270330000    -5.4956160000
   16      H       1.1860960000     3.2808330000    -5.4847160000
   17      C      -0.0923040000    -2.4224670000     0.9745840000
   18      H       0.7397960000    -2.4304670000     1.6630840000
   19      H      -0.6325040000    -3.1003670000     1.6187840000
   20      H       0.5069960000    -2.9535670000     0.2499840000
   21      H       0.2024960000     2.4015330000     2.2810840000
 ----------------------------------------------------------------

   11   -1389.2719200201      5.18e-07  Convergence criterion met
 Total energy in the final basis set =    -1389.2719200201
        RIMP2         total energy =     -1391.7757138997 a.u.

                    Orbital Energies (a.u.)
 --------------------------------------------------------------

 Alpha MOs
 -- Occupied --
-92.0055 -91.9902 -26.3399 -20.6133 -20.5594 -11.4072 -11.3778 -11.2990
-11.2958 -11.2941 -11.2879 -11.2825 -11.2782 -11.2287  -9.0046  -8.9904
 -6.6854  -6.6848  -6.6843  -6.6715  -6.6708  -6.6697  -1.6572  -1.4656
 -1.3682  -1.2116  -1.1366  -1.0658  -1.0187  -0.9954  -0.9580  -0.9128
 -0.8630  -0.8053  -0.7879  -0.7579  -0.7311  -0.7221  -0.6914  -0.6830
 -0.6724  -0.6601  -0.6104  -0.5989  -0.5920  -0.5785  -0.5641  -0.5560
 -0.5354  -0.5294  -0.5110  -0.4934  -0.4725  -0.4707  -0.4701  -0.4583
 -0.3870  -0.3457  -0.2841

          Ground-State Mulliken Net Atomic Charges

     Atom                 Charge (a.u.)
  ----------------------------------------
      1 C                     0.045054
      2 S                     0.071797
      3 C                    -0.215858
      4 C                    -0.020062
      5 C                    -0.093985
      6 S                    -0.010412
      7 C                    -0.157220
      8 C                     0.389574
      9 F                    -0.208984
     10 C                     0.445418
     11 O                    -0.462124
     12 O                    -0.300730
     13 C                    -0.058712
     14 H                     0.121064
     15 H                     0.094801
     16 H                     0.094608
     17 C                    -0.383813
     18 H                     0.132000
     19 H                     0.156746
     20 H                     0.147280
     21 H                     0.213555
  ----------------------------------------
  Sum of atomic charges =     0.000000

                    Cartesian Multipole Moments
 -----------------------------------------------------------------
    Charge (ESU x 10^10)
                -0.0000
    Dipole Moment (Debye)
         X       0.7255      Y       0.2492      Z       3.6989
       Tot       3.7776
    Quadrupole Moments (Debye-Ang)
        XX     -96.7130     XY      -0.3651     YY     -80.7893
        XZ      -0.5402     YZ     -11.5758     ZZ     -95.7968

 Total job time:  108.64s(wall), 2669.82s(cpu)
        *  Thank you very much for using Q-Chem.  Have a nice day.  *
