 Q-Chem 5.4, Q-Chem, Inc., Pleasanton, CA (2021)
 Q-Chem 5.4.0 for Intel X86 EM64T Linux

User input:
--------------------------------------------------------------
$molecule
0 1
C	-0.901756	-0.471137	0.973641
S	-0.117956	-0.019137	2.481141
C	1.243544	0.767763	1.692541
C	-0.118056	-0.019537	-0.094259
C	1.084644	0.677463	0.287241
S	-0.327656	-0.143837	-1.831859
C	1.186644	0.736763	-2.080859
C	1.798744	1.093063	-0.888959
F	2.953944	1.765563	-0.845459
C	1.575544	0.959163	-3.482459
O	0.912844	0.567363	-4.432859
O	2.741444	1.640863	-3.595559
C	3.172744	1.883963	-4.942559
H	4.122844	2.440463	-4.859459
H	2.420244	2.480763	-5.496559
H	3.327744	0.929763	-5.485659
C	-0.901756	-1.906337	0.973641
H	-0.706856	-1.914337	2.035841
H	-1.729656	-2.584237	1.119941
H	0.023144	-2.437437	0.803841
H	2.043244	1.231163	2.280141
$end

$rem
JOBTYPE		SP
EXCHANGE	HF
CORRELATION	pRIMP2
BASIS		cc-pvtz
METHOD		rimp2
AUX_BASIS	rimp2-cc-pvtz
SOLVENT_METHOD	PCM
PURECART	11111
SYMMETRY	false
MEM_TOTAL	110000
SCF_CONVERGENCE = 6
THRESH=10
GUI = 2
$end

$solvent
dielectric 4.90
$end
--------------------------------------------------------------

             Standard Nuclear Orientation (Angstroms)
    I     Atom           X                Y                Z
 ----------------------------------------------------------------
    1      C      -0.9017560000    -0.4711370000     0.9736410000
    2      S      -0.1179560000    -0.0191370000     2.4811410000
    3      C       1.2435440000     0.7677630000     1.6925410000
    4      C      -0.1180560000    -0.0195370000    -0.0942590000
    5      C       1.0846440000     0.6774630000     0.2872410000
    6      S      -0.3276560000    -0.1438370000    -1.8318590000
    7      C       1.1866440000     0.7367630000    -2.0808590000
    8      C       1.7987440000     1.0930630000    -0.8889590000
    9      F       2.9539440000     1.7655630000    -0.8454590000
   10      C       1.5755440000     0.9591630000    -3.4824590000
   11      O       0.9128440000     0.5673630000    -4.4328590000
   12      O       2.7414440000     1.6408630000    -3.5955590000
   13      C       3.1727440000     1.8839630000    -4.9425590000
   14      H       4.1228440000     2.4404630000    -4.8594590000
   15      H       2.4202440000     2.4807630000    -5.4965590000
   16      H       3.3277440000     0.9297630000    -5.4856590000
   17      C      -0.9017560000    -1.9063370000     0.9736410000
   18      H      -0.7068560000    -1.9143370000     2.0358410000
   19      H      -1.7296560000    -2.5842370000     1.1199410000
   20      H       0.0231440000    -2.4374370000     0.8038410000
   21      H       2.0432440000     1.2311630000     2.2801410000
 ----------------------------------------------------------------

   11   -1389.1909890459      5.97e-07  Convergence criterion met
 Total energy in the final basis set =    -1389.1909890459
        RIMP2         total energy =     -1391.7074115619 a.u.

                    Orbital Energies (a.u.)
 --------------------------------------------------------------

 Alpha MOs
 -- Occupied --
-92.0026 -92.0024 -26.3438 -20.6137 -20.5595 -11.4079 -11.3838 -11.3272
-11.3080 -11.2933 -11.2885 -11.2801 -11.2571 -11.2128  -9.0029  -9.0024
 -6.6835  -6.6834  -6.6826  -6.6824  -6.6823  -6.6816  -1.6610  -1.4661
 -1.3688  -1.2237  -1.1463  -1.0693  -1.0247  -0.9900  -0.9619  -0.9029
 -0.8679  -0.8135  -0.7914  -0.7598  -0.7353  -0.7255  -0.6963  -0.6836
 -0.6732  -0.6623  -0.6090  -0.6080  -0.5932  -0.5733  -0.5657  -0.5602
 -0.5304  -0.5192  -0.5128  -0.4841  -0.4798  -0.4724  -0.4712  -0.4348
 -0.3859  -0.3378  -0.3000

          Ground-State Mulliken Net Atomic Charges

     Atom                 Charge (a.u.)
  ----------------------------------------
      1 C                    -0.134122
      2 S                     0.092447
      3 C                    -0.137725
      4 C                     0.079950
      5 C                    -0.115559
      6 S                     0.039001
      7 C                    -0.159347
      8 C                     0.393813
      9 F                    -0.206272
     10 C                     0.448030
     11 O                    -0.465116
     12 O                    -0.301870
     13 C                    -0.058325
     14 H                     0.120981
     15 H                     0.094906
     16 H                     0.094632
     17 C                    -0.364962
     18 H                     0.115397
     19 H                     0.126755
     20 H                     0.120033
     21 H                     0.217353
  ----------------------------------------
  Sum of atomic charges =     0.000000

                    Cartesian Multipole Moments
 -----------------------------------------------------------------
    Charge (ESU x 10^10)
                -0.0000
    Dipole Moment (Debye)
         X       3.3872      Y       0.6026      Z       3.4819
       Tot       4.8949
    Quadrupole Moments (Debye-Ang)
        XX     -89.8811     XY       4.8622     YY     -91.8461
        XZ      -5.5580     YZ      -5.6319     ZZ     -94.3686

 Total job time:  63.99s(wall), 1979.96s(cpu)
        *  Thank you very much for using Q-Chem.  Have a nice day.  *
