 Q-Chem 5.4, Q-Chem, Inc., Pleasanton, CA (2021)
 Q-Chem 5.4.0 for Intel X86 EM64T Linux

User input:
--------------------------------------------------------------
$molecule
0 1
C	-0.441874	-0.893839	0.975737
S	-0.059074	-0.074039	2.483237
C	0.604826	1.351461	1.694637
C	-0.058974	-0.074439	-0.092163
C	0.526426	1.186461	0.289337
S	-0.159274	-0.296439	-1.829763
C	0.575926	1.293461	-2.078763
C	0.873126	1.936461	-0.886863
F	1.433626	3.149961	-0.843363
C	0.767026	1.698761	-3.480363
O	0.448926	0.997661	-4.430763
O	1.331026	2.925861	-3.593463
C	1.545026	3.372361	-4.940463
H	2.003926	4.373161	-4.857363
H	0.586226	3.429561	-5.494463
H	2.219226	2.679661	-5.483563
C	-0.441874	-2.329039	0.975737
H	0.622926	-2.337039	1.155937
H	-0.587574	-3.006939	1.803737
H	-0.285174	-2.860139	0.048537
H	0.994126	2.189761	2.282237
$end

$rem
JOBTYPE		SP
EXCHANGE	HF
CORRELATION	pRIMP2
BASIS		cc-pvtz
METHOD		rimp2
AUX_BASIS	rimp2-cc-pvtz
SOLVENT_METHOD	PCM
PURECART	11111
SYMMETRY	false
MEM_TOTAL	110000
SCF_CONVERGENCE = 6
THRESH=10
GUI = 2
$end

$solvent
dielectric 4.90
$end
--------------------------------------------------------------

             Standard Nuclear Orientation (Angstroms)
    I     Atom           X                Y                Z
 ----------------------------------------------------------------
    1      C      -0.4418740000    -0.8938390000     0.9757370000
    2      S      -0.0590740000    -0.0740390000     2.4832370000
    3      C       0.6048260000     1.3514610000     1.6946370000
    4      C      -0.0589740000    -0.0744390000    -0.0921630000
    5      C       0.5264260000     1.1864610000     0.2893370000
    6      S      -0.1592740000    -0.2964390000    -1.8297630000
    7      C       0.5759260000     1.2934610000    -2.0787630000
    8      C       0.8731260000     1.9364610000    -0.8868630000
    9      F       1.4336260000     3.1499610000    -0.8433630000
   10      C       0.7670260000     1.6987610000    -3.4803630000
   11      O       0.4489260000     0.9976610000    -4.4307630000
   12      O       1.3310260000     2.9258610000    -3.5934630000
   13      C       1.5450260000     3.3723610000    -4.9404630000
   14      H       2.0039260000     4.3731610000    -4.8573630000
   15      H       0.5862260000     3.4295610000    -5.4944630000
   16      H       2.2192260000     2.6796610000    -5.4835630000
   17      C      -0.4418740000    -2.3290390000     0.9757370000
   18      H       0.6229260000    -2.3370390000     1.1559370000
   19      H      -0.5875740000    -3.0069390000     1.8037370000
   20      H      -0.2851740000    -2.8601390000     0.0485370000
   21      H       0.9941260000     2.1897610000     2.2822370000
 ----------------------------------------------------------------

   11   -1389.2633281290      5.42e-07  Convergence criterion met
 Total energy in the final basis set =    -1389.2633281290
        RIMP2         total energy =     -1391.7691457854 a.u.

                    Orbital Energies (a.u.)
 --------------------------------------------------------------

 Alpha MOs
 -- Occupied --
-92.0039 -91.9911 -26.3402 -20.6135 -20.5596 -11.4075 -11.3780 -11.3004
-11.2951 -11.2946 -11.2881 -11.2820 -11.2789 -11.2310  -9.0032  -8.9912
 -6.6840  -6.6834  -6.6829  -6.6723  -6.6716  -6.6705  -1.6574  -1.4659
 -1.3685  -1.2130  -1.1381  -1.0673  -1.0185  -0.9943  -0.9581  -0.9114
 -0.8632  -0.8051  -0.7882  -0.7585  -0.7311  -0.7223  -0.6925  -0.6832
 -0.6726  -0.6600  -0.6123  -0.5976  -0.5933  -0.5769  -0.5628  -0.5574
 -0.5316  -0.5261  -0.5185  -0.5002  -0.4725  -0.4714  -0.4705  -0.4577
 -0.3841  -0.3460  -0.2803

          Ground-State Mulliken Net Atomic Charges

     Atom                 Charge (a.u.)
  ----------------------------------------
      1 C                     0.054584
      2 S                     0.075964
      3 C                    -0.226175
      4 C                    -0.067965
      5 C                    -0.074799
      6 S                    -0.009462
      7 C                    -0.153733
      8 C                     0.388076
      9 F                    -0.208623
     10 C                     0.446304
     11 O                    -0.461717
     12 O                    -0.300886
     13 C                    -0.058516
     14 H                     0.121119
     15 H                     0.094850
     16 H                     0.094625
     17 C                    -0.380886
     18 H                     0.148661
     19 H                     0.161261
     20 H                     0.145056
     21 H                     0.212262
  ----------------------------------------
  Sum of atomic charges =     0.000000

                    Cartesian Multipole Moments
 -----------------------------------------------------------------
    Charge (ESU x 10^10)
                -0.0000
    Dipole Moment (Debye)
         X       1.5324      Y      -0.0300      Z       3.3262
       Tot       3.6623
    Quadrupole Moments (Debye-Ang)
        XX     -95.7866     XY       2.8934     YY     -82.7199
        XZ      -3.1456     YZ     -10.1381     ZZ     -96.2389

 Total job time:  61.04s(wall), 2010.51s(cpu)
        *  Thank you very much for using Q-Chem.  Have a nice day.  *
