 Q-Chem 5.4, Q-Chem, Inc., Pleasanton, CA (2021)
 Q-Chem 5.4.0 for Intel X86 EM64T Linux

User input:
--------------------------------------------------------------
$molecule
0 1
C	-0.519037	-0.851940	0.978043
S	-0.066237	-0.068640	2.485543
C	0.719363	1.293660	1.696943
C	-0.066137	-0.069040	-0.089857
C	0.626863	1.136060	0.291643
S	-0.185437	-0.281440	-1.827457
C	0.685563	1.238360	-2.076457
C	1.037563	1.852960	-0.884557
F	1.701763	3.012960	-0.841057
C	0.911263	1.625360	-3.478057
O	0.533163	0.954660	-4.428457
O	1.579963	2.798760	-3.591157
C	1.832063	3.224860	-4.938157
H	2.376563	4.181860	-4.855057
H	0.881963	3.365460	-5.492157
H	2.443363	2.476060	-5.481257
C	-0.519037	-2.287140	0.978043
H	-0.895437	-2.295140	-0.034257
H	0.270863	-2.965040	0.690243
H	-1.400437	-2.818240	1.305943
H	1.180263	2.094760	2.284543
$end

$rem
JOBTYPE		SP
EXCHANGE	HF
CORRELATION	pRIMP2
BASIS		cc-pvtz
METHOD		rimp2
AUX_BASIS	rimp2-cc-pvtz
SOLVENT_METHOD	PCM
PURECART	11111
SYMMETRY	false
MEM_TOTAL	110000
SCF_CONVERGENCE = 6
THRESH=10
GUI = 2
$end

$solvent
dielectric 4.90
$end
--------------------------------------------------------------

             Standard Nuclear Orientation (Angstroms)
    I     Atom           X                Y                Z
 ----------------------------------------------------------------
    1      C      -0.5190370000    -0.8519400000     0.9780430000
    2      S      -0.0662370000    -0.0686400000     2.4855430000
    3      C       0.7193630000     1.2936600000     1.6969430000
    4      C      -0.0661370000    -0.0690400000    -0.0898570000
    5      C       0.6268630000     1.1360600000     0.2916430000
    6      S      -0.1854370000    -0.2814400000    -1.8274570000
    7      C       0.6855630000     1.2383600000    -2.0764570000
    8      C       1.0375630000     1.8529600000    -0.8845570000
    9      F       1.7017630000     3.0129600000    -0.8410570000
   10      C       0.9112630000     1.6253600000    -3.4780570000
   11      O       0.5331630000     0.9546600000    -4.4284570000
   12      O       1.5799630000     2.7987600000    -3.5911570000
   13      C       1.8320630000     3.2248600000    -4.9381570000
   14      H       2.3765630000     4.1818600000    -4.8550570000
   15      H       0.8819630000     3.3654600000    -5.4921570000
   16      H       2.4433630000     2.4760600000    -5.4812570000
   17      C      -0.5190370000    -2.2871400000     0.9780430000
   18      H      -0.8954370000    -2.2951400000    -0.0342570000
   19      H       0.2708630000    -2.9650400000     0.6902430000
   20      H      -1.4004370000    -2.8182400000     1.3059430000
   21      H       1.1802630000     2.0947600000     2.2845430000
 ----------------------------------------------------------------

   11   -1389.2559471740      4.61e-07  Convergence criterion met
 Total energy in the final basis set =    -1389.2559471740
        RIMP2         total energy =     -1391.7653684691 a.u.

                    Orbital Energies (a.u.)
 --------------------------------------------------------------

 Alpha MOs
 -- Occupied --
-92.0012 -91.9964 -26.3420 -20.6139 -20.5599 -11.4081 -11.3808 -11.3066
-11.2950 -11.2947 -11.2884 -11.2843 -11.2796 -11.2228  -9.0007  -8.9965
 -6.6814  -6.6807  -6.6803  -6.6775  -6.6768  -6.6757  -1.6591  -1.4663
 -1.3689  -1.2155  -1.1364  -1.0680  -1.0195  -0.9937  -0.9587  -0.9131
 -0.8641  -0.8063  -0.7897  -0.7597  -0.7302  -0.7239  -0.6953  -0.6837
 -0.6731  -0.6614  -0.6093  -0.6011  -0.5920  -0.5818  -0.5642  -0.5569
 -0.5350  -0.5301  -0.5080  -0.4886  -0.4742  -0.4721  -0.4673  -0.4450
 -0.3909  -0.3449  -0.2933

          Ground-State Mulliken Net Atomic Charges

     Atom                 Charge (a.u.)
  ----------------------------------------
      1 C                    -0.009180
      2 S                     0.079802
      3 C                    -0.189979
      4 C                    -0.017517
      5 C                    -0.090651
      6 S                     0.004990
      7 C                    -0.157948
      8 C                     0.391408
      9 F                    -0.207068
     10 C                     0.446538
     11 O                    -0.463002
     12 O                    -0.301232
     13 C                    -0.058442
     14 H                     0.121180
     15 H                     0.094829
     16 H                     0.094724
     17 C                    -0.352691
     18 H                     0.109870
     19 H                     0.154478
     20 H                     0.136838
     21 H                     0.213055
  ----------------------------------------
  Sum of atomic charges =     0.000000

                    Cartesian Multipole Moments
 -----------------------------------------------------------------
    Charge (ESU x 10^10)
                -0.0000
    Dipole Moment (Debye)
         X       1.0929      Y       0.7503      Z       2.4834
       Tot       2.8151
    Quadrupole Moments (Debye-Ang)
        XX     -93.5877     XY       5.4578     YY     -84.5798
        XZ      -4.0205     YZ      -6.8867     ZZ     -97.7916

 Total job time:  61.07s(wall), 2096.44s(cpu)
        *  Thank you very much for using Q-Chem.  Have a nice day.  *
