 Q-Chem 5.4, Q-Chem, Inc., Pleasanton, CA (2021)
 Q-Chem 5.4.0 for Intel X86 EM64T Linux

User input:
--------------------------------------------------------------
$molecule
0 1
C	-0.181355	-0.975447	0.978067
S	-0.023755	-0.084547	2.485567
C	0.248545	1.464253	1.696967
C	-0.023555	-0.084847	-0.089833
C	0.215545	1.284553	0.291667
S	-0.063055	-0.325247	-1.827433
C	0.235645	1.400753	-2.076433
C	0.356245	2.098753	-0.884533
F	0.583645	3.415953	-0.841033
C	0.315345	1.841653	-3.478033
O	0.189545	1.082153	-4.428433
O	0.542545	3.172953	-3.591133
C	0.633645	3.659653	-4.938133
H	0.817945	4.745153	-4.855033
H	-0.307255	3.466753	-5.492133
H	1.464145	3.165053	-5.481233
C	-0.181355	-2.410647	0.978067
H	0.352145	-2.418647	0.039067
H	0.546845	-3.088547	1.398167
H	-0.999055	-2.941747	0.513667
H	0.407645	2.374753	2.284567
$end

$rem
JOBTYPE		SP
EXCHANGE	HF
CORRELATION	pRIMP2
BASIS		cc-pvtz
METHOD		rimp2
AUX_BASIS	rimp2-cc-pvtz
SOLVENT_METHOD	PCM
PURECART	11111
SYMMETRY	false
MEM_TOTAL	110000
SCF_CONVERGENCE = 6
THRESH=10
GUI = 2
$end

$solvent
dielectric 4.90
$end
--------------------------------------------------------------

             Standard Nuclear Orientation (Angstroms)
    I     Atom           X                Y                Z
 ----------------------------------------------------------------
    1      C      -0.1813550000    -0.9754470000     0.9780670000
    2      S      -0.0237550000    -0.0845470000     2.4855670000
    3      C       0.2485450000     1.4642530000     1.6969670000
    4      C      -0.0235550000    -0.0848470000    -0.0898330000
    5      C       0.2155450000     1.2845530000     0.2916670000
    6      S      -0.0630550000    -0.3252470000    -1.8274330000
    7      C       0.2356450000     1.4007530000    -2.0764330000
    8      C       0.3562450000     2.0987530000    -0.8845330000
    9      F       0.5836450000     3.4159530000    -0.8410330000
   10      C       0.3153450000     1.8416530000    -3.4780330000
   11      O       0.1895450000     1.0821530000    -4.4284330000
   12      O       0.5425450000     3.1729530000    -3.5911330000
   13      C       0.6336450000     3.6596530000    -4.9381330000
   14      H       0.8179450000     4.7451530000    -4.8550330000
   15      H      -0.3072550000     3.4667530000    -5.4921330000
   16      H       1.4641450000     3.1650530000    -5.4812330000
   17      C      -0.1813550000    -2.4106470000     0.9780670000
   18      H       0.3521450000    -2.4186470000     0.0390670000
   19      H       0.5468450000    -3.0885470000     1.3981670000
   20      H      -0.9990550000    -2.9417470000     0.5136670000
   21      H       0.4076450000     2.3747530000     2.2845670000
 ----------------------------------------------------------------

   11   -1389.2707294524      4.72e-07  Convergence criterion met
 Total energy in the final basis set =    -1389.2707294524
        RIMP2         total energy =     -1391.7769987794 a.u.

                    Orbital Energies (a.u.)
 --------------------------------------------------------------

 Alpha MOs
 -- Occupied --
-92.0042 -91.9937 -26.3411 -20.6137 -20.5597 -11.4077 -11.3795 -11.2977
-11.2964 -11.2946 -11.2882 -11.2873 -11.2789 -11.2270  -9.0031  -8.9938
 -6.6839  -6.6833  -6.6829  -6.6749  -6.6742  -6.6731  -1.6582  -1.4660
 -1.3687  -1.2132  -1.1356  -1.0680  -1.0186  -0.9950  -0.9582  -0.9138
 -0.8634  -0.8049  -0.7889  -0.7592  -0.7300  -0.7231  -0.6940  -0.6834
 -0.6728  -0.6609  -0.6085  -0.6014  -0.5914  -0.5848  -0.5656  -0.5574
 -0.5367  -0.5301  -0.5072  -0.4887  -0.4732  -0.4717  -0.4642  -0.4587
 -0.3888  -0.3444  -0.2899

          Ground-State Mulliken Net Atomic Charges

     Atom                 Charge (a.u.)
  ----------------------------------------
      1 C                     0.040717
      2 S                     0.074762
      3 C                    -0.208366
      4 C                    -0.014203
      5 C                    -0.097377
      6 S                    -0.008456
      7 C                    -0.157791
      8 C                     0.388401
      9 F                    -0.207804
     10 C                     0.445772
     11 O                    -0.462738
     12 O                    -0.300927
     13 C                    -0.058619
     14 H                     0.121150
     15 H                     0.094797
     16 H                     0.094700
     17 C                    -0.378587
     18 H                     0.120131
     19 H                     0.161412
     20 H                     0.140706
     21 H                     0.212320
  ----------------------------------------
  Sum of atomic charges =     0.000000

                    Cartesian Multipole Moments
 -----------------------------------------------------------------
    Charge (ESU x 10^10)
                -0.0000
    Dipole Moment (Debye)
         X       0.6899      Y       0.4626      Z       2.6600
       Tot       2.7867
    Quadrupole Moments (Debye-Ang)
        XX     -96.2174     XY       0.9826     YY     -81.3715
        XZ      -0.7113     YZ      -8.7596     ZZ     -97.7979

 Total job time:  59.43s(wall), 2058.79s(cpu)
        *  Thank you very much for using Q-Chem.  Have a nice day.  *
