 Q-Chem 5.4, Q-Chem, Inc., Pleasanton, CA (2021)
 Q-Chem 5.4.0 for Intel X86 EM64T Linux

User input:
--------------------------------------------------------------
$molecule
0 1
C	-0.275679	-0.956214	0.976149
S	-0.041079	-0.082414	2.483649
C	0.365221	1.436786	1.695049
C	-0.040879	-0.082814	-0.091751
C	0.316721	1.260586	0.289749
S	-0.101179	-0.318814	-1.829351
C	0.346921	1.374586	-2.078351
C	0.527821	2.059386	-0.886451
F	0.869121	3.351786	-0.842951
C	0.464621	1.806886	-3.479951
O	0.273121	1.061186	-4.430351
O	0.807021	3.113286	-3.593051
C	0.940121	3.590186	-4.940051
H	1.218421	4.655486	-4.856951
H	-0.013979	3.480086	-5.494051
H	1.724421	3.025086	-5.483151
C	-0.150579	-2.385914	0.976149
H	0.925921	-2.299814	0.968749
H	-0.091279	-3.061314	1.816849
H	-0.110979	-2.915614	0.035749
H	0.603021	2.329886	2.282649
$end

$rem
JOBTYPE		SP
EXCHANGE	HF
CORRELATION	pRIMP2
BASIS		cc-pvtz
METHOD		rimp2
AUX_BASIS	rimp2-cc-pvtz
SOLVENT_METHOD	PCM
PURECART	11111
SYMMETRY	false
MEM_TOTAL	110000
SCF_CONVERGENCE = 6
THRESH=10
GUI = 2
$end

$solvent
dielectric 4.90
$end
--------------------------------------------------------------

             Standard Nuclear Orientation (Angstroms)
    I     Atom           X                Y                Z
 ----------------------------------------------------------------
    1      C      -0.2756790000    -0.9562140000     0.9761490000
    2      S      -0.0410790000    -0.0824140000     2.4836490000
    3      C       0.3652210000     1.4367860000     1.6950490000
    4      C      -0.0408790000    -0.0828140000    -0.0917510000
    5      C       0.3167210000     1.2605860000     0.2897490000
    6      S      -0.1011790000    -0.3188140000    -1.8293510000
    7      C       0.3469210000     1.3745860000    -2.0783510000
    8      C       0.5278210000     2.0593860000    -0.8864510000
    9      F       0.8691210000     3.3517860000    -0.8429510000
   10      C       0.4646210000     1.8068860000    -3.4799510000
   11      O       0.2731210000     1.0611860000    -4.4303510000
   12      O       0.8070210000     3.1132860000    -3.5930510000
   13      C       0.9401210000     3.5901860000    -4.9400510000
   14      H       1.2184210000     4.6554860000    -4.8569510000
   15      H      -0.0139790000     3.4800860000    -5.4940510000
   16      H       1.7244210000     3.0250860000    -5.4831510000
   17      C      -0.1505790000    -2.3859140000     0.9761490000
   18      H       0.9259210000    -2.2998140000     0.9687490000
   19      H      -0.0912790000    -3.0613140000     1.8168490000
   20      H      -0.1109790000    -2.9156140000     0.0357490000
   21      H       0.6030210000     2.3298860000     2.2826490000
 ----------------------------------------------------------------

   11   -1389.2675866543      5.34e-07  Convergence criterion met
 Total energy in the final basis set =    -1389.2675866543
        RIMP2         total energy =     -1391.7726703611 a.u.

                    Orbital Energies (a.u.)
 --------------------------------------------------------------

 Alpha MOs
 -- Occupied --
-92.0050 -91.9907 -26.3399 -20.6135 -20.5596 -11.4074 -11.3777 -11.3027
-11.2945 -11.2924 -11.2881 -11.2804 -11.2787 -11.2321  -9.0040  -8.9909
 -6.6849  -6.6843  -6.6837  -6.6719  -6.6712  -6.6701  -1.6572  -1.4658
 -1.3684  -1.2122  -1.1375  -1.0674  -1.0181  -0.9948  -0.9579  -0.9120
 -0.8629  -0.8045  -0.7881  -0.7585  -0.7308  -0.7221  -0.6923  -0.6832
 -0.6726  -0.6599  -0.6122  -0.5961  -0.5930  -0.5802  -0.5620  -0.5590
 -0.5311  -0.5247  -0.5185  -0.5007  -0.4722  -0.4715  -0.4701  -0.4597
 -0.3838  -0.3454  -0.2800

          Ground-State Mulliken Net Atomic Charges

     Atom                 Charge (a.u.)
  ----------------------------------------
      1 C                     0.053756
      2 S                     0.078660
      3 C                    -0.232492
      4 C                    -0.057083
      5 C                    -0.079075
      6 S                    -0.013434
      7 C                    -0.154126
      8 C                     0.387847
      9 F                    -0.208831
     10 C                     0.446369
     11 O                    -0.461717
     12 O                    -0.300784
     13 C                    -0.058463
     14 H                     0.121095
     15 H                     0.094816
     16 H                     0.094595
     17 C                    -0.384619
     18 H                     0.151195
     19 H                     0.164452
     20 H                     0.145787
     21 H                     0.212052
  ----------------------------------------
  Sum of atomic charges =     0.000000

                    Cartesian Multipole Moments
 -----------------------------------------------------------------
    Charge (ESU x 10^10)
                -0.0000
    Dipole Moment (Debye)
         X       1.3514      Y       0.0080      Z       3.2519
       Tot       3.5215
    Quadrupole Moments (Debye-Ang)
        XX     -96.5818     XY       0.7716     YY     -81.5692
        XZ      -1.4164     YZ     -10.5328     ZZ     -96.4539

 Total job time:  63.21s(wall), 1990.43s(cpu)
        *  Thank you very much for using Q-Chem.  Have a nice day.  *
