 Q-Chem 5.4, Q-Chem, Inc., Pleasanton, CA (2021)
 Q-Chem 5.4.0 for Intel X86 EM64T Linux

User input:
--------------------------------------------------------------
$molecule
0 1
C	-0.798042	-0.619704	0.973787
S	-0.104642	-0.038504	2.481287
C	1.099458	0.972896	1.692687
C	-0.104742	-0.038904	-0.094113
C	0.958758	0.856396	0.287387
S	-0.289442	-0.197704	-1.831713
C	1.048858	0.932496	-2.080713
C	1.589858	1.389696	-0.888813
F	2.610658	2.252596	-0.845313
C	1.393258	1.219096	-3.482313
O	0.808658	0.718096	-4.432713
O	2.423058	2.092896	-3.595413
C	2.805658	2.407096	-4.942413
H	3.644558	3.120196	-4.859313
H	1.960958	2.864196	-5.496413
H	3.123958	1.494396	-5.485513
C	-0.798042	-2.054904	0.973787
H	-0.421642	-2.062904	1.986087
H	-1.587942	-2.732804	1.261587
H	0.083358	-2.586004	0.645887
H	1.806658	1.568096	2.280287
$end

$rem
JOBTYPE		SP
EXCHANGE	HF
CORRELATION	pRIMP2
BASIS		cc-pvtz
METHOD		rimp2
AUX_BASIS	rimp2-cc-pvtz
SOLVENT_METHOD	PCM
PURECART	11111
SYMMETRY	false
MEM_TOTAL	110000
SCF_CONVERGENCE = 6
THRESH=10
GUI = 2
$end

$solvent
dielectric 4.90
$end
--------------------------------------------------------------

             Standard Nuclear Orientation (Angstroms)
    I     Atom           X                Y                Z
 ----------------------------------------------------------------
    1      C      -0.7980420000    -0.6197040000     0.9737870000
    2      S      -0.1046420000    -0.0385040000     2.4812870000
    3      C       1.0994580000     0.9728960000     1.6926870000
    4      C      -0.1047420000    -0.0389040000    -0.0941130000
    5      C       0.9587580000     0.8563960000     0.2873870000
    6      S      -0.2894420000    -0.1977040000    -1.8317130000
    7      C       1.0488580000     0.9324960000    -2.0807130000
    8      C       1.5898580000     1.3896960000    -0.8888130000
    9      F       2.6106580000     2.2525960000    -0.8453130000
   10      C       1.3932580000     1.2190960000    -3.4823130000
   11      O       0.8086580000     0.7180960000    -4.4327130000
   12      O       2.4230580000     2.0928960000    -3.5954130000
   13      C       2.8056580000     2.4070960000    -4.9424130000
   14      H       3.6445580000     3.1201960000    -4.8593130000
   15      H       1.9609580000     2.8641960000    -5.4964130000
   16      H       3.1239580000     1.4943960000    -5.4855130000
   17      C      -0.7980420000    -2.0549040000     0.9737870000
   18      H      -0.4216420000    -2.0629040000     1.9860870000
   19      H      -1.5879420000    -2.7328040000     1.2615870000
   20      H       0.0833580000    -2.5860040000     0.6458870000
   21      H       1.8066580000     1.5680960000     2.2802870000
 ----------------------------------------------------------------

   11   -1389.2149242757      5.20e-07  Convergence criterion met
 Total energy in the final basis set =    -1389.2149242757
        RIMP2         total energy =     -1391.7289041432 a.u.

                    Orbital Energies (a.u.)
 --------------------------------------------------------------

 Alpha MOs
 -- Occupied --
-92.0022 -91.9988 -26.3428 -20.6137 -20.5596 -11.4078 -11.3822 -11.3184
-11.3005 -11.2937 -11.2884 -11.2797 -11.2696 -11.2152  -9.0024  -8.9987
 -6.6831  -6.6821  -6.6819  -6.6797  -6.6790  -6.6779  -1.6600  -1.4661
 -1.3687  -1.2197  -1.1431  -1.0674  -1.0229  -0.9908  -0.9608  -0.9057
 -0.8664  -0.8111  -0.7905  -0.7592  -0.7336  -0.7246  -0.6946  -0.6835
 -0.6730  -0.6614  -0.6085  -0.6054  -0.5931  -0.5729  -0.5641  -0.5596
 -0.5303  -0.5263  -0.5112  -0.4870  -0.4778  -0.4721  -0.4710  -0.4388
 -0.3872  -0.3420  -0.2945

          Ground-State Mulliken Net Atomic Charges

     Atom                 Charge (a.u.)
  ----------------------------------------
      1 C                    -0.073998
      2 S                     0.083770
      3 C                    -0.160610
      4 C                     0.031796
      5 C                    -0.098619
      6 S                     0.025446
      7 C                    -0.156821
      8 C                     0.390518
      9 F                    -0.206878
     10 C                     0.447341
     11 O                    -0.464027
     12 O                    -0.301568
     13 C                    -0.058416
     14 H                     0.120984
     15 H                     0.094861
     16 H                     0.094684
     17 C                    -0.372471
     18 H                     0.121329
     19 H                     0.131917
     20 H                     0.135046
     21 H                     0.215715
  ----------------------------------------
  Sum of atomic charges =     0.000000

                    Cartesian Multipole Moments
 -----------------------------------------------------------------
    Charge (ESU x 10^10)
                -0.0000
    Dipole Moment (Debye)
         X       2.7621      Y       0.7202      Z       3.5620
       Tot       4.5646
    Quadrupole Moments (Debye-Ang)
        XX     -91.2883     XY       5.0890     YY     -89.5775
        XZ      -5.4756     YZ      -7.1330     ZZ     -94.8022

 Total job time:  59.29s(wall), 2021.16s(cpu)
        *  Thank you very much for using Q-Chem.  Have a nice day.  *
