 Q-Chem 5.4, Q-Chem, Inc., Pleasanton, CA (2021)
 Q-Chem 5.4.0 for Intel X86 EM64T Linux

User input:
--------------------------------------------------------------
$molecule
0 1
C	-0.266748	-0.955820	0.975276
S	-0.032148	-0.082020	2.482776
C	0.374152	1.437180	1.694176
C	-0.031948	-0.082420	-0.092624
C	0.325652	1.260980	0.288876
S	-0.092248	-0.318420	-1.830224
C	0.355852	1.374980	-2.079224
C	0.536752	2.059780	-0.887324
F	0.878052	3.352180	-0.843824
C	0.473552	1.807280	-3.480824
O	0.282052	1.061580	-4.431224
O	0.815952	3.113680	-3.593924
C	0.949052	3.590580	-4.940924
H	1.227352	4.655880	-4.857824
H	-0.005048	3.480480	-5.494924
H	1.733352	3.025480	-5.484024
C	-0.266748	-2.391020	0.975276
H	-1.328948	-2.399020	1.170176
H	-0.413048	-3.068920	0.147376
H	-0.096948	-2.922120	1.900176
H	0.611952	2.330280	2.281776
$end

$rem
JOBTYPE		SP
EXCHANGE	HF
CORRELATION	pRIMP2
BASIS		cc-pvtz
METHOD		rimp2
AUX_BASIS	rimp2-cc-pvtz
SOLVENT_METHOD	PCM
PURECART	11111
SYMMETRY	false
MEM_TOTAL	110000
SCF_CONVERGENCE = 6
THRESH=10
GUI = 2
$end

$solvent
dielectric 4.90
$end
--------------------------------------------------------------

             Standard Nuclear Orientation (Angstroms)
    I     Atom           X                Y                Z
 ----------------------------------------------------------------
    1      C      -0.2667480000    -0.9558200000     0.9752760000
    2      S      -0.0321480000    -0.0820200000     2.4827760000
    3      C       0.3741520000     1.4371800000     1.6941760000
    4      C      -0.0319480000    -0.0824200000    -0.0926240000
    5      C       0.3256520000     1.2609800000     0.2888760000
    6      S      -0.0922480000    -0.3184200000    -1.8302240000
    7      C       0.3558520000     1.3749800000    -2.0792240000
    8      C       0.5367520000     2.0597800000    -0.8873240000
    9      F       0.8780520000     3.3521800000    -0.8438240000
   10      C       0.4735520000     1.8072800000    -3.4808240000
   11      O       0.2820520000     1.0615800000    -4.4312240000
   12      O       0.8159520000     3.1136800000    -3.5939240000
   13      C       0.9490520000     3.5905800000    -4.9409240000
   14      H       1.2273520000     4.6558800000    -4.8578240000
   15      H      -0.0050480000     3.4804800000    -5.4949240000
   16      H       1.7333520000     3.0254800000    -5.4840240000
   17      C      -0.2667480000    -2.3910200000     0.9752760000
   18      H      -1.3289480000    -2.3990200000     1.1701760000
   19      H      -0.4130480000    -3.0689200000     0.1473760000
   20      H      -0.0969480000    -2.9221200000     1.9001760000
   21      H       0.6119520000     2.3302800000     2.2817760000
 ----------------------------------------------------------------

   11   -1389.2659334883      5.13e-07  Convergence criterion met
 Total energy in the final basis set =    -1389.2659334883
        RIMP2         total energy =     -1391.7709720791 a.u.

                    Orbital Energies (a.u.)
 --------------------------------------------------------------

 Alpha MOs
 -- Occupied --
-92.0062 -91.9901 -26.3396 -20.6133 -20.5594 -11.4071 -11.3773 -11.3000
-11.2941 -11.2932 -11.2879 -11.2803 -11.2780 -11.2291  -9.0051  -8.9903
 -6.6859  -6.6853  -6.6848  -6.6714  -6.6707  -6.6695  -1.6569  -1.4656
 -1.3682  -1.2111  -1.1362  -1.0659  -1.0181  -0.9955  -0.9577  -0.9131
 -0.8627  -0.8044  -0.7877  -0.7580  -0.7302  -0.7218  -0.6919  -0.6830
 -0.6724  -0.6597  -0.6126  -0.5943  -0.5875  -0.5828  -0.5616  -0.5585
 -0.5320  -0.5263  -0.5152  -0.4991  -0.4721  -0.4717  -0.4704  -0.4591
 -0.3830  -0.3450  -0.2803

          Ground-State Mulliken Net Atomic Charges

     Atom                 Charge (a.u.)
  ----------------------------------------
      1 C                     0.029198
      2 S                     0.078613
      3 C                    -0.226136
      4 C                    -0.019649
      5 C                    -0.095142
      6 S                    -0.013293
      7 C                    -0.157693
      8 C                     0.392703
      9 F                    -0.209317
     10 C                     0.446104
     11 O                    -0.462019
     12 O                    -0.300704
     13 C                    -0.058535
     14 H                     0.121023
     15 H                     0.094662
     16 H                     0.094660
     17 C                    -0.386537
     18 H                     0.143491
     19 H                     0.168680
     20 H                     0.146660
     21 H                     0.213231
  ----------------------------------------
  Sum of atomic charges =     0.000000

                    Cartesian Multipole Moments
 -----------------------------------------------------------------
    Charge (ESU x 10^10)
                -0.0000
    Dipole Moment (Debye)
         X      -0.2356      Y       0.0240      Z       3.4292
       Tot       3.4373
    Quadrupole Moments (Debye-Ang)
        XX     -95.9314     XY       4.8147     YY     -81.3522
        XZ      -2.8548     YZ     -10.5695     ZZ     -96.1380

 Total job time:  80.84s(wall), 1944.09s(cpu)
        *  Thank you very much for using Q-Chem.  Have a nice day.  *
