 Q-Chem 5.4, Q-Chem, Inc., Pleasanton, CA (2021)
 Q-Chem 5.4.0 for Intel X86 EM64T Linux

User input:
--------------------------------------------------------------
$molecule
0 1
C	-0.666570	-0.747937	0.974891
S	-0.084670	-0.055137	2.482391
C	0.925630	1.149963	1.693791
C	-0.084670	-0.055537	-0.093009
C	0.807130	1.010863	0.288491
S	-0.238970	-0.244037	-1.830609
C	0.882730	1.101463	-2.079609
C	1.336130	1.645563	-0.887709
F	2.191630	2.672563	-0.844209
C	1.172130	1.443363	-3.481209
O	0.683430	0.848563	-4.431609
O	2.034530	2.482763	-3.594309
C	2.356730	2.858663	-4.941309
H	3.059130	3.706563	-4.858209
H	1.445530	3.162063	-5.495309
H	2.828730	2.015063	-5.484409
C	-0.666570	-2.183137	0.974891
H	-1.678870	-2.191137	1.351291
H	-0.954370	-2.861037	0.184991
H	-0.338670	-2.714237	1.856291
H	1.518630	1.858863	2.281391
$end

$rem
JOBTYPE		SP
EXCHANGE	HF
CORRELATION	pRIMP2
BASIS		cc-pvtz
METHOD		rimp2
AUX_BASIS	rimp2-cc-pvtz
SOLVENT_METHOD	PCM
PURECART	11111
SYMMETRY	false
MEM_TOTAL	110000
SCF_CONVERGENCE = 6
THRESH=10
GUI = 2
$end

$solvent
dielectric 4.90
$end
--------------------------------------------------------------

             Standard Nuclear Orientation (Angstroms)
    I     Atom           X                Y                Z
 ----------------------------------------------------------------
    1      C      -0.6665700000    -0.7479370000     0.9748910000
    2      S      -0.0846700000    -0.0551370000     2.4823910000
    3      C       0.9256300000     1.1499630000     1.6937910000
    4      C      -0.0846700000    -0.0555370000    -0.0930090000
    5      C       0.8071300000     1.0108630000     0.2884910000
    6      S      -0.2389700000    -0.2440370000    -1.8306090000
    7      C       0.8827300000     1.1014630000    -2.0796090000
    8      C       1.3361300000     1.6455630000    -0.8877090000
    9      F       2.1916300000     2.6725630000    -0.8442090000
   10      C       1.1721300000     1.4433630000    -3.4812090000
   11      O       0.6834300000     0.8485630000    -4.4316090000
   12      O       2.0345300000     2.4827630000    -3.5943090000
   13      C       2.3567300000     2.8586630000    -4.9413090000
   14      H       3.0591300000     3.7065630000    -4.8582090000
   15      H       1.4455300000     3.1620630000    -5.4953090000
   16      H       2.8287300000     2.0150630000    -5.4844090000
   17      C      -0.6665700000    -2.1831370000     0.9748910000
   18      H      -1.6788700000    -2.1911370000     1.3512910000
   19      H      -0.9543700000    -2.8610370000     0.1849910000
   20      H      -0.3386700000    -2.7142370000     1.8562910000
   21      H       1.5186300000     1.8588630000     2.2813910000
 ----------------------------------------------------------------

   11   -1389.2335536305      4.61e-07  Convergence criterion met
 Total energy in the final basis set =    -1389.2335536305
        RIMP2         total energy =     -1391.7455873300 a.u.

                    Orbital Energies (a.u.)
 --------------------------------------------------------------

 Alpha MOs
 -- Occupied --
-92.0045 -91.9949 -26.3410 -20.6135 -20.5595 -11.4075 -11.3795 -11.3064
-11.2940 -11.2899 -11.2881 -11.2813 -11.2789 -11.2195  -9.0038  -8.9949
 -6.6846  -6.6839  -6.6835  -6.6760  -6.6753  -6.6742  -1.6583  -1.4659
 -1.3685  -1.2145  -1.1381  -1.0651  -1.0199  -0.9929  -0.9588  -0.9110
 -0.8641  -0.8069  -0.7889  -0.7586  -0.7306  -0.7231  -0.6928  -0.6833
 -0.6727  -0.6598  -0.6119  -0.5953  -0.5886  -0.5785  -0.5633  -0.5599
 -0.5312  -0.5247  -0.5082  -0.4950  -0.4732  -0.4716  -0.4712  -0.4548
 -0.3794  -0.3444  -0.2837

          Ground-State Mulliken Net Atomic Charges

     Atom                 Charge (a.u.)
  ----------------------------------------
      1 C                    -0.054768
      2 S                     0.083204
      3 C                    -0.190915
      4 C                     0.022959
      5 C                    -0.093498
      6 S                     0.008514
      7 C                    -0.157453
      8 C                     0.391059
      9 F                    -0.208184
     10 C                     0.447294
     11 O                    -0.462969
     12 O                    -0.301179
     13 C                    -0.058481
     14 H                     0.121033
     15 H                     0.094815
     16 H                     0.094646
     17 C                    -0.387781
     18 H                     0.134616
     19 H                     0.159104
     20 H                     0.143547
     21 H                     0.214436
  ----------------------------------------
  Sum of atomic charges =     0.000000

                    Cartesian Multipole Moments
 -----------------------------------------------------------------
    Charge (ESU x 10^10)
                -0.0000
    Dipole Moment (Debye)
         X       1.0951      Y       0.4543      Z       3.3098
       Tot       3.5157
    Quadrupole Moments (Debye-Ang)
        XX     -92.1057     XY       7.1486     YY     -86.6564
        XZ      -5.3549     YZ      -7.8432     ZZ     -95.5776

 Total job time:  62.98s(wall), 1993.56s(cpu)
        *  Thank you very much for using Q-Chem.  Have a nice day.  *
