 Q-Chem 5.4, Q-Chem, Inc., Pleasanton, CA (2021)
 Q-Chem 5.4.0 for Intel X86 EM64T Linux

User input:
--------------------------------------------------------------
$molecule
0 1
C	-0.182657	-0.975447	0.976554
S	-0.025057	-0.084547	2.484054
C	0.247243	1.464253	1.695454
C	-0.024857	-0.084847	-0.091346
C	0.214243	1.284553	0.290154
S	-0.064357	-0.325247	-1.828946
C	0.234343	1.400753	-2.077946
C	0.354943	2.098753	-0.886046
F	0.582343	3.415953	-0.842546
C	0.314043	1.841653	-3.479546
O	0.188243	1.082153	-4.429946
O	0.541243	3.172953	-3.592646
C	0.632343	3.659653	-4.939646
H	0.816643	4.745153	-4.856546
H	-0.308557	3.466753	-5.493646
H	1.462843	3.165053	-5.482746
C	-0.182657	-2.410647	0.976554
H	0.879543	-2.418647	0.781654
H	-0.036357	-3.088547	1.804454
H	-0.352457	-2.941747	0.051654
H	0.406343	2.374753	2.283054
$end

$rem
JOBTYPE		SP
EXCHANGE	HF
CORRELATION	pRIMP2
BASIS		cc-pvtz
METHOD		rimp2
AUX_BASIS	rimp2-cc-pvtz
SOLVENT_METHOD	PCM
PURECART	11111
SYMMETRY	false
MEM_TOTAL	110000
SCF_CONVERGENCE = 6
THRESH=10
GUI = 2
$end

$solvent
dielectric 4.90
$end
--------------------------------------------------------------

             Standard Nuclear Orientation (Angstroms)
    I     Atom           X                Y                Z
 ----------------------------------------------------------------
    1      C      -0.1826570000    -0.9754470000     0.9765540000
    2      S      -0.0250570000    -0.0845470000     2.4840540000
    3      C       0.2472430000     1.4642530000     1.6954540000
    4      C      -0.0248570000    -0.0848470000    -0.0913460000
    5      C       0.2142430000     1.2845530000     0.2901540000
    6      S      -0.0643570000    -0.3252470000    -1.8289460000
    7      C       0.2343430000     1.4007530000    -2.0779460000
    8      C       0.3549430000     2.0987530000    -0.8860460000
    9      F       0.5823430000     3.4159530000    -0.8425460000
   10      C       0.3140430000     1.8416530000    -3.4795460000
   11      O       0.1882430000     1.0821530000    -4.4299460000
   12      O       0.5412430000     3.1729530000    -3.5926460000
   13      C       0.6323430000     3.6596530000    -4.9396460000
   14      H       0.8166430000     4.7451530000    -4.8565460000
   15      H      -0.3085570000     3.4667530000    -5.4936460000
   16      H       1.4628430000     3.1650530000    -5.4827460000
   17      C      -0.1826570000    -2.4106470000     0.9765540000
   18      H       0.8795430000    -2.4186470000     0.7816540000
   19      H      -0.0363570000    -3.0885470000     1.8044540000
   20      H      -0.3524570000    -2.9417470000     0.0516540000
   21      H       0.4063430000     2.3747530000     2.2830540000
 ----------------------------------------------------------------

   11   -1389.2724754330      5.25e-07  Convergence criterion met
 Total energy in the final basis set =    -1389.2724754330
        RIMP2         total energy =     -1391.7766352027 a.u.

                    Orbital Energies (a.u.)
 --------------------------------------------------------------

 Alpha MOs
 -- Occupied --
-92.0058 -91.9904 -26.3398 -20.6134 -20.5596 -11.4073 -11.3775 -11.3045
-11.2945 -11.2903 -11.2880 -11.2795 -11.2784 -11.2324  -9.0046  -8.9906
 -6.6854  -6.6848  -6.6843  -6.6716  -6.6709  -6.6698  -1.6570  -1.4658
 -1.3684  -1.2114  -1.1365  -1.0675  -1.0178  -0.9955  -0.9577  -0.9129
 -0.8627  -0.8039  -0.7879  -0.7584  -0.7305  -0.7220  -0.6921  -0.6831
 -0.6725  -0.6599  -0.6120  -0.5951  -0.5912  -0.5845  -0.5609  -0.5603
 -0.5315  -0.5270  -0.5145  -0.5004  -0.4722  -0.4714  -0.4696  -0.4610
 -0.3838  -0.3450  -0.2804

          Ground-State Mulliken Net Atomic Charges

     Atom                 Charge (a.u.)
  ----------------------------------------
      1 C                     0.054449
      2 S                     0.078558
      3 C                    -0.233733
      4 C                    -0.037504
      5 C                    -0.088018
      6 S                    -0.017666
      7 C                    -0.155482
      8 C                     0.387151
      9 F                    -0.209001
     10 C                     0.446253
     11 O                    -0.461897
     12 O                    -0.300710
     13 C                    -0.058648
     14 H                     0.121117
     15 H                     0.094796
     16 H                     0.094629
     17 C                    -0.391491
     18 H                     0.149665
     19 H                     0.167248
     20 H                     0.148383
     21 H                     0.211902
  ----------------------------------------
  Sum of atomic charges =     0.000000

                    Cartesian Multipole Moments
 -----------------------------------------------------------------
    Charge (ESU x 10^10)
                -0.0000
    Dipole Moment (Debye)
         X       1.0166      Y      -0.1399      Z       3.1745
       Tot       3.3362
    Quadrupole Moments (Debye-Ang)
        XX     -96.9523     XY       0.1922     YY     -80.6323
        XZ      -0.6949     YZ     -10.6539     ZZ     -96.7192

 Total job time:  58.08s(wall), 2030.45s(cpu)
        *  Thank you very much for using Q-Chem.  Have a nice day.  *
