 Q-Chem 5.4, Q-Chem, Inc., Pleasanton, CA (2021)
 Q-Chem 5.4.0 for Intel X86 EM64T Linux

User input:
--------------------------------------------------------------
$molecule
0 1
C	-0.355794	-0.928548	0.978269
S	-0.045894	-0.078548	2.485769
C	0.491206	1.399452	1.697169
C	-0.045794	-0.078948	-0.089631
C	0.427506	1.228152	0.291869
S	-0.126394	-0.308748	-1.827231
C	0.467506	1.339152	-2.076231
C	0.707506	2.005552	-0.884331
F	1.160106	3.263252	-0.840831
C	0.622506	1.759552	-3.477831
O	0.366706	1.033352	-4.428231
O	1.077406	3.031152	-3.590931
C	1.251706	3.494552	-4.937931
H	1.621706	4.531652	-4.854831
H	0.291606	3.468052	-5.491931
H	1.983706	2.863252	-5.481031
C	-0.355794	-2.363748	0.978269
H	-0.175594	-2.371748	-0.086531
H	0.472206	-3.041648	1.123969
H	-1.282994	-2.894848	0.821569
H	0.806006	2.268452	2.284769
$end

$rem
JOBTYPE		SP
EXCHANGE	HF
CORRELATION	pRIMP2
BASIS		cc-pvtz
METHOD		rimp2
AUX_BASIS	rimp2-cc-pvtz
SOLVENT_METHOD	PCM
PURECART	11111
SYMMETRY	false
MEM_TOTAL	110000
SCF_CONVERGENCE = 6
THRESH=10
GUI = 2
$end

$solvent
dielectric 4.90
$end
--------------------------------------------------------------

             Standard Nuclear Orientation (Angstroms)
    I     Atom           X                Y                Z
 ----------------------------------------------------------------
    1      C      -0.3557940000    -0.9285480000     0.9782690000
    2      S      -0.0458940000    -0.0785480000     2.4857690000
    3      C       0.4912060000     1.3994520000     1.6971690000
    4      C      -0.0457940000    -0.0789480000    -0.0896310000
    5      C       0.4275060000     1.2281520000     0.2918690000
    6      S      -0.1263940000    -0.3087480000    -1.8272310000
    7      C       0.4675060000     1.3391520000    -2.0762310000
    8      C       0.7075060000     2.0055520000    -0.8843310000
    9      F       1.1601060000     3.2632520000    -0.8408310000
   10      C       0.6225060000     1.7595520000    -3.4778310000
   11      O       0.3667060000     1.0333520000    -4.4282310000
   12      O       1.0774060000     3.0311520000    -3.5909310000
   13      C       1.2517060000     3.4945520000    -4.9379310000
   14      H       1.6217060000     4.5316520000    -4.8548310000
   15      H       0.2916060000     3.4680520000    -5.4919310000
   16      H       1.9837060000     2.8632520000    -5.4810310000
   17      C      -0.3557940000    -2.3637480000     0.9782690000
   18      H      -0.1755940000    -2.3717480000    -0.0865310000
   19      H       0.4722060000    -3.0416480000     1.1239690000
   20      H      -1.2829940000    -2.8948480000     0.8215690000
   21      H       0.8060060000     2.2684520000     2.2847690000
 ----------------------------------------------------------------

   11   -1389.2644669537      4.61e-07  Convergence criterion met
 Total energy in the final basis set =    -1389.2644669537
        RIMP2         total energy =     -1391.7721928754 a.u.

                    Orbital Energies (a.u.)
 --------------------------------------------------------------

 Alpha MOs
 -- Occupied --
-92.0028 -91.9951 -26.3416 -20.6138 -20.5598 -11.4079 -11.3804 -11.3026
-11.2947 -11.2919 -11.2903 -11.2883 -11.2791 -11.2245  -9.0020  -8.9952
 -6.6827  -6.6821  -6.6817  -6.6763  -6.6756  -6.6744  -1.6588  -1.4662
 -1.3688  -1.2145  -1.1359  -1.0683  -1.0191  -0.9942  -0.9585  -0.9136
 -0.8638  -0.8058  -0.7894  -0.7595  -0.7301  -0.7236  -0.6949  -0.6836
 -0.6730  -0.6613  -0.6058  -0.6051  -0.5918  -0.5843  -0.5655  -0.5571
 -0.5358  -0.5302  -0.5076  -0.4871  -0.4736  -0.4719  -0.4650  -0.4502
 -0.3920  -0.3445  -0.2933

          Ground-State Mulliken Net Atomic Charges

     Atom                 Charge (a.u.)
  ----------------------------------------
      1 C                     0.014759
      2 S                     0.077259
      3 C                    -0.198491
      4 C                    -0.019361
      5 C                    -0.090842
      6 S                    -0.003569
      7 C                    -0.157582
      8 C                     0.390146
      9 F                    -0.207264
     10 C                     0.445404
     11 O                    -0.462975
     12 O                    -0.301162
     13 C                    -0.058442
     14 H                     0.121102
     15 H                     0.094815
     16 H                     0.094733
     17 C                    -0.356444
     18 H                     0.113911
     19 H                     0.156517
     20 H                     0.134799
     21 H                     0.212688
  ----------------------------------------
  Sum of atomic charges =     0.000000

                    Cartesian Multipole Moments
 -----------------------------------------------------------------
    Charge (ESU x 10^10)
                -0.0000
    Dipole Moment (Debye)
         X       0.9296      Y       0.6885      Z       2.5360
       Tot       2.7874
    Quadrupole Moments (Debye-Ang)
        XX     -95.1231     XY       3.2651     YY     -82.7652
        XZ      -2.3180     YZ      -7.7489     ZZ     -97.9556

 Total job time:  56.12s(wall), 1948.24s(cpu)
        *  Thank you very much for using Q-Chem.  Have a nice day.  *
