 Q-Chem 5.4, Q-Chem, Inc., Pleasanton, CA (2021)
 Q-Chem 5.4.0 for Intel X86 EM64T Linux

User input:
--------------------------------------------------------------
$molecule
0 1
C	-0.669722	-0.747937	0.973787
S	-0.087822	-0.055137	2.481287
C	0.922478	1.149963	1.692687
C	-0.087822	-0.055537	-0.094113
C	0.803978	1.010863	0.287387
S	-0.242122	-0.244037	-1.831713
C	0.879578	1.101463	-2.080713
C	1.332978	1.645563	-0.888813
F	2.188478	2.672563	-0.845313
C	1.168978	1.443363	-3.482313
O	0.680278	0.848563	-4.432713
O	2.031378	2.482763	-3.595413
C	2.353578	2.858663	-4.942413
H	3.055978	3.706563	-4.859313
H	1.442378	3.162063	-5.496413
H	2.825578	2.015063	-5.485513
C	-0.669722	-2.183137	0.973787
H	-0.293322	-2.191137	1.986087
H	-1.459622	-2.861037	1.261587
H	0.211678	-2.714237	0.645887
H	1.515478	1.858863	2.280287
$end

$rem
JOBTYPE		SP
EXCHANGE	HF
CORRELATION	pRIMP2
BASIS		cc-pvtz
METHOD		rimp2
AUX_BASIS	rimp2-cc-pvtz
SOLVENT_METHOD	PCM
PURECART	11111
SYMMETRY	false
MEM_TOTAL	110000
SCF_CONVERGENCE = 6
THRESH=10
GUI = 2
$end

$solvent
dielectric 4.90
$end
--------------------------------------------------------------

             Standard Nuclear Orientation (Angstroms)
    I     Atom           X                Y                Z
 ----------------------------------------------------------------
    1      C      -0.6697220000    -0.7479370000     0.9737870000
    2      S      -0.0878220000    -0.0551370000     2.4812870000
    3      C       0.9224780000     1.1499630000     1.6926870000
    4      C      -0.0878220000    -0.0555370000    -0.0941130000
    5      C       0.8039780000     1.0108630000     0.2873870000
    6      S      -0.2421220000    -0.2440370000    -1.8317130000
    7      C       0.8795780000     1.1014630000    -2.0807130000
    8      C       1.3329780000     1.6455630000    -0.8888130000
    9      F       2.1884780000     2.6725630000    -0.8453130000
   10      C       1.1689780000     1.4433630000    -3.4823130000
   11      O       0.6802780000     0.8485630000    -4.4327130000
   12      O       2.0313780000     2.4827630000    -3.5954130000
   13      C       2.3535780000     2.8586630000    -4.9424130000
   14      H       3.0559780000     3.7065630000    -4.8593130000
   15      H       1.4423780000     3.1620630000    -5.4964130000
   16      H       2.8255780000     2.0150630000    -5.4855130000
   17      C      -0.6697220000    -2.1831370000     0.9737870000
   18      H      -0.2933220000    -2.1911370000     1.9860870000
   19      H      -1.4596220000    -2.8610370000     1.2615870000
   20      H       0.2116780000    -2.7142370000     0.6458870000
   21      H       1.5154780000     1.8588630000     2.2802870000
 ----------------------------------------------------------------

   11   -1389.2360749450      4.95e-07  Convergence criterion met
 Total energy in the final basis set =    -1389.2360749450
        RIMP2         total energy =     -1391.7471091095 a.u.

                    Orbital Energies (a.u.)
 --------------------------------------------------------------

 Alpha MOs
 -- Occupied --
-92.0037 -91.9960 -26.3419 -20.6135 -20.5595 -11.4076 -11.3807 -11.3110
-11.2944 -11.2938 -11.2882 -11.2792 -11.2788 -11.2189  -9.0035  -8.9960
 -6.6842  -6.6834  -6.6830  -6.6770  -6.6763  -6.6752  -1.6591  -1.4659
 -1.3686  -1.2166  -1.1406  -1.0661  -1.0216  -0.9920  -0.9598  -0.9082
 -0.8653  -0.8093  -0.7896  -0.7586  -0.7324  -0.7238  -0.6931  -0.6834
 -0.6728  -0.6608  -0.6077  -0.6042  -0.5927  -0.5737  -0.5643  -0.5586
 -0.5321  -0.5299  -0.5096  -0.4851  -0.4764  -0.4717  -0.4705  -0.4447
 -0.3889  -0.3438  -0.2926

          Ground-State Mulliken Net Atomic Charges

     Atom                 Charge (a.u.)
  ----------------------------------------
      1 C                    -0.025985
      2 S                     0.079108
      3 C                    -0.181586
      4 C                    -0.005091
      5 C                    -0.084953
      6 S                     0.014105
      7 C                    -0.156221
      8 C                     0.388727
      9 F                    -0.207482
     10 C                     0.446795
     11 O                    -0.463216
     12 O                    -0.301408
     13 C                    -0.058470
     14 H                     0.120979
     15 H                     0.094886
     16 H                     0.094619
     17 C                    -0.370743
     18 H                     0.121240
     19 H                     0.137817
     20 H                     0.142045
     21 H                     0.214834
  ----------------------------------------
  Sum of atomic charges =     0.000000

                    Cartesian Multipole Moments
 -----------------------------------------------------------------
    Charge (ESU x 10^10)
                -0.0000
    Dipole Moment (Debye)
         X       2.1050      Y       0.7353      Z       3.6543
       Tot       4.2809
    Quadrupole Moments (Debye-Ang)
        XX     -92.7076     XY       5.0299     YY     -87.1083
        XZ      -4.9987     YZ      -8.5444     ZZ     -95.1038

 Total job time:  61.34s(wall), 2145.66s(cpu)
        *  Thank you very much for using Q-Chem.  Have a nice day.  *
