 Q-Chem 5.4, Q-Chem, Inc., Pleasanton, CA (2021)
 Q-Chem 5.4.0 for Intel X86 EM64T Linux

User input:
--------------------------------------------------------------
$molecule
0 1
C	-0.440103	-0.893839	0.978203
S	-0.057303	-0.074039	2.485703
C	0.606597	1.351461	1.697103
C	-0.057203	-0.074439	-0.089697
C	0.528197	1.186461	0.291803
S	-0.157503	-0.296439	-1.827297
C	0.577697	1.293461	-2.076297
C	0.874897	1.936461	-0.884397
F	1.435397	3.149961	-0.840897
C	0.768797	1.698761	-3.477897
O	0.450697	0.997661	-4.428297
O	1.332797	2.925861	-3.590997
C	1.546797	3.372361	-4.937997
H	2.005697	4.373161	-4.854897
H	0.587997	3.429561	-5.491997
H	2.220997	2.679661	-5.481097
C	-0.440103	-2.329039	0.978203
H	-0.077703	-2.337039	-0.039197
H	0.349997	-3.006939	1.265503
H	-1.326003	-2.860139	0.662803
H	0.995897	2.189761	2.284703
$end

$rem
JOBTYPE		SP
EXCHANGE	HF
CORRELATION	pRIMP2
BASIS		cc-pvtz
METHOD		rimp2
AUX_BASIS	rimp2-cc-pvtz
SOLVENT_METHOD	PCM
PURECART	11111
SYMMETRY	false
MEM_TOTAL	110000
SCF_CONVERGENCE = 6
THRESH=10
GUI = 2
$end

$solvent
dielectric 4.90
$end
--------------------------------------------------------------

             Standard Nuclear Orientation (Angstroms)
    I     Atom           X                Y                Z
 ----------------------------------------------------------------
    1      C      -0.4401030000    -0.8938390000     0.9782030000
    2      S      -0.0573030000    -0.0740390000     2.4857030000
    3      C       0.6065970000     1.3514610000     1.6971030000
    4      C      -0.0572030000    -0.0744390000    -0.0896970000
    5      C       0.5281970000     1.1864610000     0.2918030000
    6      S      -0.1575030000    -0.2964390000    -1.8272970000
    7      C       0.5776970000     1.2934610000    -2.0762970000
    8      C       0.8748970000     1.9364610000    -0.8843970000
    9      F       1.4353970000     3.1499610000    -0.8408970000
   10      C       0.7687970000     1.6987610000    -3.4778970000
   11      O       0.4506970000     0.9976610000    -4.4282970000
   12      O       1.3327970000     2.9258610000    -3.5909970000
   13      C       1.5467970000     3.3723610000    -4.9379970000
   14      H       2.0056970000     4.3731610000    -4.8548970000
   15      H       0.5879970000     3.4295610000    -5.4919970000
   16      H       2.2209970000     2.6796610000    -5.4810970000
   17      C      -0.4401030000    -2.3290390000     0.9782030000
   18      H      -0.0777030000    -2.3370390000    -0.0391970000
   19      H       0.3499970000    -3.0069390000     1.2655030000
   20      H      -1.3260030000    -2.8601390000     0.6628030000
   21      H       0.9958970000     2.1897610000     2.2847030000
 ----------------------------------------------------------------

   11   -1389.2591684656      4.67e-07  Convergence criterion met
 Total energy in the final basis set =    -1389.2591684656
        RIMP2         total energy =     -1391.7680534317 a.u.

                    Orbital Energies (a.u.)
 --------------------------------------------------------------

 Alpha MOs
 -- Occupied --
-92.0035 -91.9957 -26.3417 -20.6138 -20.5598 -11.4079 -11.3805 -11.3028
-11.2947 -11.2913 -11.2893 -11.2883 -11.2792 -11.2235  -9.0026  -8.9958
 -6.6834  -6.6827  -6.6823  -6.6769  -6.6762  -6.6750  -1.6589  -1.4662
 -1.3688  -1.2149  -1.1365  -1.0684  -1.0192  -0.9937  -0.9586  -0.9127
 -0.8639  -0.8059  -0.7895  -0.7596  -0.7300  -0.7237  -0.6949  -0.6836
 -0.6730  -0.6611  -0.6065  -0.6034  -0.5917  -0.5855  -0.5651  -0.5582
 -0.5328  -0.5302  -0.5080  -0.4874  -0.4735  -0.4720  -0.4651  -0.4526
 -0.3894  -0.3440  -0.2930

          Ground-State Mulliken Net Atomic Charges

     Atom                 Charge (a.u.)
  ----------------------------------------
      1 C                     0.004871
      2 S                     0.079528
      3 C                    -0.198583
      4 C                    -0.016841
      5 C                    -0.087736
      6 S                     0.000647
      7 C                    -0.157697
      8 C                     0.388594
      9 F                    -0.207131
     10 C                     0.446290
     11 O                    -0.462976
     12 O                    -0.301196
     13 C                    -0.058476
     14 H                     0.121176
     15 H                     0.094840
     16 H                     0.094707
     17 C                    -0.364702
     18 H                     0.117661
     19 H                     0.160585
     20 H                     0.133987
     21 H                     0.212453
  ----------------------------------------
  Sum of atomic charges =     0.000000

                    Cartesian Multipole Moments
 -----------------------------------------------------------------
    Charge (ESU x 10^10)
                -0.0000
    Dipole Moment (Debye)
         X       1.2500      Y       0.6588      Z       2.5506
       Tot       2.9159
    Quadrupole Moments (Debye-Ang)
        XX     -94.7071     XY       3.6595     YY     -83.6528
        XZ      -2.7037     YZ      -7.5502     ZZ     -97.7355

 Total job time:  61.18s(wall), 1985.15s(cpu)
        *  Thank you very much for using Q-Chem.  Have a nice day.  *
