 Q-Chem 5.4, Q-Chem, Inc., Pleasanton, CA (2021)
 Q-Chem 5.4.0 for Intel X86 EM64T Linux

User input:
--------------------------------------------------------------
$molecule
0 1
C	-0.520238	-0.851940	0.978269
S	-0.067438	-0.068640	2.485769
C	0.718162	1.293660	1.697169
C	-0.067338	-0.069040	-0.089631
C	0.625662	1.136060	0.291869
S	-0.186638	-0.281440	-1.827231
C	0.684362	1.238360	-2.076231
C	1.036362	1.852960	-0.884331
F	1.700562	3.012960	-0.840831
C	0.910062	1.625360	-3.477831
O	0.531962	0.954660	-4.428231
O	1.578762	2.798760	-3.590931
C	1.830862	3.224860	-4.937931
H	2.375362	4.181860	-4.854831
H	0.880762	3.365460	-5.491931
H	2.442162	2.476060	-5.481031
C	-0.520238	-2.287140	0.978269
H	-0.340038	-2.295140	-0.086531
H	0.307762	-2.965040	1.123969
H	-1.447438	-2.818240	0.821569
H	1.179062	2.094760	2.284769
$end

$rem
JOBTYPE		SP
EXCHANGE	HF
CORRELATION	pRIMP2
BASIS		cc-pvtz
METHOD		rimp2
AUX_BASIS	rimp2-cc-pvtz
SOLVENT_METHOD	PCM
PURECART	11111
SYMMETRY	false
MEM_TOTAL	110000
SCF_CONVERGENCE = 6
THRESH=10
GUI = 2
$end

$solvent
dielectric 4.90
$end
--------------------------------------------------------------

             Standard Nuclear Orientation (Angstroms)
    I     Atom           X                Y                Z
 ----------------------------------------------------------------
    1      C      -0.5202380000    -0.8519400000     0.9782690000
    2      S      -0.0674380000    -0.0686400000     2.4857690000
    3      C       0.7181620000     1.2936600000     1.6971690000
    4      C      -0.0673380000    -0.0690400000    -0.0896310000
    5      C       0.6256620000     1.1360600000     0.2918690000
    6      S      -0.1866380000    -0.2814400000    -1.8272310000
    7      C       0.6843620000     1.2383600000    -2.0762310000
    8      C       1.0363620000     1.8529600000    -0.8843310000
    9      F       1.7005620000     3.0129600000    -0.8408310000
   10      C       0.9100620000     1.6253600000    -3.4778310000
   11      O       0.5319620000     0.9546600000    -4.4282310000
   12      O       1.5787620000     2.7987600000    -3.5909310000
   13      C       1.8308620000     3.2248600000    -4.9379310000
   14      H       2.3753620000     4.1818600000    -4.8548310000
   15      H       0.8807620000     3.3654600000    -5.4919310000
   16      H       2.4421620000     2.4760600000    -5.4810310000
   17      C      -0.5202380000    -2.2871400000     0.9782690000
   18      H      -0.3400380000    -2.2951400000    -0.0865310000
   19      H       0.3077620000    -2.9650400000     1.1239690000
   20      H      -1.4474380000    -2.8182400000     0.8215690000
   21      H       1.1790620000     2.0947600000     2.2847690000
 ----------------------------------------------------------------

   11   -1389.2539111796      4.65e-07  Convergence criterion met
 Total energy in the final basis set =    -1389.2539111796
        RIMP2         total energy =     -1391.7638315921 a.u.

                    Orbital Energies (a.u.)
 --------------------------------------------------------------

 Alpha MOs
 -- Occupied --
-92.0025 -91.9967 -26.3421 -20.6139 -20.5599 -11.4081 -11.3811 -11.3061
-11.2947 -11.2940 -11.2884 -11.2852 -11.2794 -11.2221  -9.0018  -8.9968
 -6.6825  -6.6818  -6.6815  -6.6778  -6.6771  -6.6760  -1.6592  -1.4663
 -1.3689  -1.2158  -1.1368  -1.0687  -1.0196  -0.9932  -0.9588  -0.9125
 -0.8642  -0.8064  -0.7898  -0.7598  -0.7302  -0.7240  -0.6955  -0.6837
 -0.6731  -0.6613  -0.6058  -0.6047  -0.5919  -0.5849  -0.5648  -0.5582
 -0.5317  -0.5304  -0.5084  -0.4872  -0.4738  -0.4722  -0.4659  -0.4469
 -0.3909  -0.3441  -0.2948

          Ground-State Mulliken Net Atomic Charges

     Atom                 Charge (a.u.)
  ----------------------------------------
      1 C                    -0.014700
      2 S                     0.080576
      3 C                    -0.191048
      4 C                    -0.012514
      5 C                    -0.086259
      6 S                     0.003836
      7 C                    -0.157369
      8 C                     0.389687
      9 F                    -0.206884
     10 C                     0.446314
     11 O                    -0.463127
     12 O                    -0.301296
     13 C                    -0.058435
     14 H                     0.121179
     15 H                     0.094844
     16 H                     0.094720
     17 C                    -0.352449
     18 H                     0.112732
     19 H                     0.157859
     20 H                     0.129491
     21 H                     0.212842
  ----------------------------------------
  Sum of atomic charges =     0.000000

                    Cartesian Multipole Moments
 -----------------------------------------------------------------
    Charge (ESU x 10^10)
                -0.0000
    Dipole Moment (Debye)
         X       1.4274      Y       0.7615      Z       2.4809
       Tot       2.9618
    Quadrupole Moments (Debye-Ang)
        XX     -93.8787     XY       4.4909     YY     -84.6957
        XZ      -3.3502     YZ      -6.8880     ZZ     -97.7732

 Total job time:  65.80s(wall), 2124.41s(cpu)
        *  Thank you very much for using Q-Chem.  Have a nice day.  *
