 Q-Chem 5.4, Q-Chem, Inc., Pleasanton, CA (2021)
 Q-Chem 5.4.0 for Intel X86 EM64T Linux

User input:
--------------------------------------------------------------
$molecule
0 1
C	-0.666343	-0.747937	0.976092
S	-0.084443	-0.055137	2.483592
C	0.925857	1.149963	1.694992
C	-0.084443	-0.055537	-0.091808
C	0.807357	1.010863	0.289692
S	-0.238743	-0.244037	-1.829408
C	0.882957	1.101463	-2.078408
C	1.336357	1.645563	-0.886508
F	2.191857	2.672563	-0.843008
C	1.172357	1.443363	-3.480008
O	0.683657	0.848563	-4.430408
O	2.034757	2.482763	-3.593108
C	2.356957	2.858663	-4.940108
H	3.059357	3.706563	-4.857008
H	1.445757	3.162063	-5.494108
H	2.828957	2.015063	-5.483208
C	-0.666343	-2.183137	0.976092
H	-1.731143	-2.191137	0.795892
H	-0.520643	-2.861037	0.148092
H	-0.823043	-2.714237	1.903292
H	1.518857	1.858863	2.282592
$end

$rem
JOBTYPE		SP
EXCHANGE	HF
CORRELATION	pRIMP2
BASIS		cc-pvtz
METHOD		rimp2
AUX_BASIS	rimp2-cc-pvtz
SOLVENT_METHOD	PCM
PURECART	11111
SYMMETRY	false
MEM_TOTAL	110000
SCF_CONVERGENCE = 6
THRESH=10
GUI = 2
$end

$solvent
dielectric 4.90
$end
--------------------------------------------------------------

             Standard Nuclear Orientation (Angstroms)
    I     Atom           X                Y                Z
 ----------------------------------------------------------------
    1      C      -0.6663430000    -0.7479370000     0.9760920000
    2      S      -0.0844430000    -0.0551370000     2.4835920000
    3      C       0.9258570000     1.1499630000     1.6949920000
    4      C      -0.0844430000    -0.0555370000    -0.0918080000
    5      C       0.8073570000     1.0108630000     0.2896920000
    6      S      -0.2387430000    -0.2440370000    -1.8294080000
    7      C       0.8829570000     1.1014630000    -2.0784080000
    8      C       1.3363570000     1.6455630000    -0.8865080000
    9      F       2.1918570000     2.6725630000    -0.8430080000
   10      C       1.1723570000     1.4433630000    -3.4800080000
   11      O       0.6836570000     0.8485630000    -4.4304080000
   12      O       2.0347570000     2.4827630000    -3.5931080000
   13      C       2.3569570000     2.8586630000    -4.9401080000
   14      H       3.0593570000     3.7065630000    -4.8570080000
   15      H       1.4457570000     3.1620630000    -5.4941080000
   16      H       2.8289570000     2.0150630000    -5.4832080000
   17      C      -0.6663430000    -2.1831370000     0.9760920000
   18      H      -1.7311430000    -2.1911370000     0.7958920000
   19      H      -0.5206430000    -2.8610370000     0.1480920000
   20      H      -0.8230430000    -2.7142370000     1.9032920000
   21      H       1.5188570000     1.8588630000     2.2825920000
 ----------------------------------------------------------------

   11   -1389.2337594748      4.67e-07  Convergence criterion met
 Total energy in the final basis set =    -1389.2337594748
        RIMP2         total energy =     -1391.7465533993 a.u.

                    Orbital Energies (a.u.)
 --------------------------------------------------------------

 Alpha MOs
 -- Occupied --
-92.0026 -91.9957 -26.3413 -20.6136 -20.5596 -11.4077 -11.3798 -11.3048
-11.2941 -11.2910 -11.2882 -11.2824 -11.2792 -11.2200  -9.0020  -8.9957
 -6.6828  -6.6820  -6.6816  -6.6768  -6.6760  -6.6750  -1.6585  -1.4660
 -1.3686  -1.2147  -1.1375  -1.0659  -1.0194  -0.9931  -0.9586  -0.9115
 -0.8640  -0.8064  -0.7891  -0.7589  -0.7301  -0.7233  -0.6937  -0.6834
 -0.6728  -0.6601  -0.6122  -0.5949  -0.5902  -0.5753  -0.5624  -0.5592
 -0.5328  -0.5271  -0.5057  -0.5009  -0.4745  -0.4717  -0.4710  -0.4512
 -0.3785  -0.3443  -0.2827

          Ground-State Mulliken Net Atomic Charges

     Atom                 Charge (a.u.)
  ----------------------------------------
      1 C                    -0.027564
      2 S                     0.087787
      3 C                    -0.196599
      4 C                    -0.007865
      5 C                    -0.087935
      6 S                     0.009020
      7 C                    -0.157716
      8 C                     0.392293
      9 F                    -0.207626
     10 C                     0.447331
     11 O                    -0.463142
     12 O                    -0.301182
     13 C                    -0.058455
     14 H                     0.121079
     15 H                     0.094825
     16 H                     0.094645
     17 C                    -0.391439
     18 H                     0.137875
     19 H                     0.160140
     20 H                     0.142160
     21 H                     0.212369
  ----------------------------------------
  Sum of atomic charges =     0.000000

                    Cartesian Multipole Moments
 -----------------------------------------------------------------
    Charge (ESU x 10^10)
                -0.0000
    Dipole Moment (Debye)
         X       0.9943      Y       0.3868      Z       2.9780
       Tot       3.1633
    Quadrupole Moments (Debye-Ang)
        XX     -92.0838     XY       7.2222     YY     -86.6161
        XZ      -5.7025     YZ      -7.3301     ZZ     -96.2103

 Total job time:  59.78s(wall), 1993.85s(cpu)
        *  Thank you very much for using Q-Chem.  Have a nice day.  *
