 Q-Chem 5.4, Q-Chem, Inc., Pleasanton, CA (2021)
 Q-Chem 5.4.0 for Intel X86 EM64T Linux

User input:
--------------------------------------------------------------
$molecule
0 1
C	-0.903390	-0.471137	0.976554
S	-0.119590	-0.019137	2.484054
C	1.241910	0.767763	1.695454
C	-0.119690	-0.019537	-0.091346
C	1.083010	0.677463	0.290154
S	-0.329290	-0.143837	-1.828946
C	1.185010	0.736763	-2.077946
C	1.797110	1.093063	-0.886046
F	2.952310	1.765563	-0.842546
C	1.573910	0.959163	-3.479546
O	0.911210	0.567363	-4.429946
O	2.739810	1.640863	-3.592646
C	3.171110	1.883963	-4.939646
H	4.121210	2.440463	-4.856546
H	2.418610	2.480763	-5.493646
H	3.326110	0.929763	-5.482746
C	-0.903390	-1.906337	0.976554
H	0.158810	-1.914337	0.781654
H	-0.757090	-2.584237	1.804454
H	-1.073190	-2.437437	0.051654
H	2.041610	1.231163	2.283054
$end

$rem
JOBTYPE		SP
EXCHANGE	HF
CORRELATION	pRIMP2
BASIS		cc-pvtz
METHOD		rimp2
AUX_BASIS	rimp2-cc-pvtz
SOLVENT_METHOD	PCM
PURECART	11111
SYMMETRY	false
MEM_TOTAL	110000
SCF_CONVERGENCE = 6
THRESH=10
GUI = 2
$end

$solvent
dielectric 4.90
$end
--------------------------------------------------------------

             Standard Nuclear Orientation (Angstroms)
    I     Atom           X                Y                Z
 ----------------------------------------------------------------
    1      C      -0.9033900000    -0.4711370000     0.9765540000
    2      S      -0.1195900000    -0.0191370000     2.4840540000
    3      C       1.2419100000     0.7677630000     1.6954540000
    4      C      -0.1196900000    -0.0195370000    -0.0913460000
    5      C       1.0830100000     0.6774630000     0.2901540000
    6      S      -0.3292900000    -0.1438370000    -1.8289460000
    7      C       1.1850100000     0.7367630000    -2.0779460000
    8      C       1.7971100000     1.0930630000    -0.8860460000
    9      F       2.9523100000     1.7655630000    -0.8425460000
   10      C       1.5739100000     0.9591630000    -3.4795460000
   11      O       0.9112100000     0.5673630000    -4.4299460000
   12      O       2.7398100000     1.6408630000    -3.5926460000
   13      C       3.1711100000     1.8839630000    -4.9396460000
   14      H       4.1212100000     2.4404630000    -4.8565460000
   15      H       2.4186100000     2.4807630000    -5.4936460000
   16      H       3.3261100000     0.9297630000    -5.4827460000
   17      C      -0.9033900000    -1.9063370000     0.9765540000
   18      H       0.1588100000    -1.9143370000     0.7816540000
   19      H      -0.7570900000    -2.5842370000     1.8044540000
   20      H      -1.0731900000    -2.4374370000     0.0516540000
   21      H       2.0416100000     1.2311630000     2.2830540000
 ----------------------------------------------------------------

   11   -1389.1975312437      5.56e-07  Convergence criterion met
 Total energy in the final basis set =    -1389.1975312437
        RIMP2         total energy =     -1391.7173762730 a.u.

                    Orbital Energies (a.u.)
 --------------------------------------------------------------

 Alpha MOs
 -- Occupied --
-92.0048 -92.0030 -26.3437 -20.6146 -20.5606 -11.4091 -11.3830 -11.3207
-11.3004 -11.2958 -11.2889 -11.2836 -11.2695 -11.2214  -9.0045  -9.0027
 -6.6852  -6.6843  -6.6841  -6.6837  -6.6829  -6.6819  -1.6608  -1.4670
 -1.3697  -1.2252  -1.1464  -1.0725  -1.0228  -0.9911  -0.9610  -0.9043
 -0.8670  -0.8102  -0.7919  -0.7612  -0.7347  -0.7256  -0.6985  -0.6845
 -0.6738  -0.6627  -0.6150  -0.6020  -0.5966  -0.5710  -0.5653  -0.5614
 -0.5315  -0.5228  -0.5074  -0.5024  -0.4761  -0.4734  -0.4721  -0.4498
 -0.3796  -0.3437  -0.2870

          Ground-State Mulliken Net Atomic Charges

     Atom                 Charge (a.u.)
  ----------------------------------------
      1 C                    -0.128842
      2 S                     0.104580
      3 C                    -0.162820
      4 C                     0.081707
      5 C                    -0.121027
      6 S                     0.037146
      7 C                    -0.155127
      8 C                     0.392047
      9 F                    -0.206587
     10 C                     0.449450
     11 O                    -0.463128
     12 O                    -0.301279
     13 C                    -0.058248
     14 H                     0.121267
     15 H                     0.095129
     16 H                     0.094788
     17 C                    -0.368752
     18 H                     0.097171
     19 H                     0.151179
     20 H                     0.125683
     21 H                     0.215663
  ----------------------------------------
  Sum of atomic charges =     0.000000

                    Cartesian Multipole Moments
 -----------------------------------------------------------------
    Charge (ESU x 10^10)
                -0.0000
    Dipole Moment (Debye)
         X       3.4188      Y       0.2955      Z       2.7228
       Tot       4.3805
    Quadrupole Moments (Debye-Ang)
        XX     -91.0184     XY       4.6108     YY     -91.2716
        XZ      -5.1017     YZ      -4.7009     ZZ     -95.0272

 Total job time:  62.29s(wall), 2434.94s(cpu)
        *  Thank you very much for using Q-Chem.  Have a nice day.  *
