 Q-Chem 5.4, Q-Chem, Inc., Pleasanton, CA (2021)
 Q-Chem 5.4.0 for Intel X86 EM64T Linux

User input:
--------------------------------------------------------------
$molecule
0 1
C	-0.899468	-0.471137	0.974225
S	-0.115668	-0.019137	2.481725
C	1.245832	0.767763	1.693125
C	-0.115768	-0.019537	-0.093675
C	1.086932	0.677463	0.287825
S	-0.325368	-0.143837	-1.831275
C	1.188932	0.736763	-2.080275
C	1.801032	1.093063	-0.888375
F	2.956232	1.765563	-0.844875
C	1.577832	0.959163	-3.481875
O	0.915132	0.567363	-4.432275
O	2.743732	1.640863	-3.594975
C	3.175032	1.883963	-4.941975
H	4.125132	2.440463	-4.858875
H	2.422532	2.480763	-5.495975
H	3.330032	0.929763	-5.485075
C	-0.899468	-1.906337	0.974225
H	-1.721968	-1.914337	1.674125
H	-1.440068	-2.584237	0.330325
H	-0.289868	-2.437437	1.690325
H	2.045532	1.231163	2.280725
$end

$rem
JOBTYPE		SP
EXCHANGE	HF
CORRELATION	pRIMP2
BASIS		cc-pvtz
METHOD		rimp2
AUX_BASIS	rimp2-cc-pvtz
SOLVENT_METHOD	PCM
PURECART	11111
SYMMETRY	false
MEM_TOTAL	110000
SCF_CONVERGENCE = 6
THRESH=10
GUI = 2
$end

$solvent
dielectric 4.90
$end
--------------------------------------------------------------

             Standard Nuclear Orientation (Angstroms)
    I     Atom           X                Y                Z
 ----------------------------------------------------------------
    1      C      -0.8994680000    -0.4711370000     0.9742250000
    2      S      -0.1156680000    -0.0191370000     2.4817250000
    3      C       1.2458320000     0.7677630000     1.6931250000
    4      C      -0.1157680000    -0.0195370000    -0.0936750000
    5      C       1.0869320000     0.6774630000     0.2878250000
    6      S      -0.3253680000    -0.1438370000    -1.8312750000
    7      C       1.1889320000     0.7367630000    -2.0802750000
    8      C       1.8010320000     1.0930630000    -0.8883750000
    9      F       2.9562320000     1.7655630000    -0.8448750000
   10      C       1.5778320000     0.9591630000    -3.4818750000
   11      O       0.9151320000     0.5673630000    -4.4322750000
   12      O       2.7437320000     1.6408630000    -3.5949750000
   13      C       3.1750320000     1.8839630000    -4.9419750000
   14      H       4.1251320000     2.4404630000    -4.8588750000
   15      H       2.4225320000     2.4807630000    -5.4959750000
   16      H       3.3300320000     0.9297630000    -5.4850750000
   17      C      -0.8994680000    -1.9063370000     0.9742250000
   18      H      -1.7219680000    -1.9143370000     1.6741250000
   19      H      -1.4400680000    -2.5842370000     0.3303250000
   20      H      -0.2898680000    -2.4374370000     1.6903250000
   21      H       2.0455320000     1.2311630000     2.2807250000
 ----------------------------------------------------------------

   11   -1389.1956789003      6.08e-07  Convergence criterion met
 Total energy in the final basis set =    -1389.1956789003
        RIMP2         total energy =     -1391.7111405194 a.u.

                    Orbital Energies (a.u.)
 --------------------------------------------------------------

 Alpha MOs
 -- Occupied --
-92.0038 -92.0030 -26.3434 -20.6141 -20.5600 -11.4084 -11.3832 -11.3268
-11.3056 -11.2945 -11.2886 -11.2810 -11.2538 -11.2126  -9.0036  -9.0028
 -6.6843  -6.6837  -6.6834  -6.6832  -6.6830  -6.6820  -1.6606  -1.4665
 -1.3692  -1.2219  -1.1434  -1.0678  -1.0234  -0.9908  -0.9611  -0.9064
 -0.8670  -0.8116  -0.7911  -0.7601  -0.7339  -0.7253  -0.6960  -0.6840
 -0.6734  -0.6612  -0.6135  -0.5994  -0.5914  -0.5748  -0.5673  -0.5610
 -0.5310  -0.5222  -0.5092  -0.4835  -0.4739  -0.4718  -0.4672  -0.4509
 -0.3765  -0.3426  -0.2944

          Ground-State Mulliken Net Atomic Charges

     Atom                 Charge (a.u.)
  ----------------------------------------
      1 C                    -0.171136
      2 S                     0.091678
      3 C                    -0.129816
      4 C                     0.121641
      5 C                    -0.127075
      6 S                     0.040783
      7 C                    -0.159761
      8 C                     0.392394
      9 F                    -0.206591
     10 C                     0.448497
     11 O                    -0.464135
     12 O                    -0.301543
     13 C                    -0.058285
     14 H                     0.121136
     15 H                     0.094971
     16 H                     0.094748
     17 C                    -0.389819
     18 H                     0.118656
     19 H                     0.144085
     20 H                     0.121742
     21 H                     0.217827
  ----------------------------------------
  Sum of atomic charges =     0.000000

                    Cartesian Multipole Moments
 -----------------------------------------------------------------
    Charge (ESU x 10^10)
                -0.0000
    Dipole Moment (Debye)
         X       2.9056      Y       0.6296      Z       3.0769
       Tot       4.2786
    Quadrupole Moments (Debye-Ang)
        XX     -89.2177     XY       6.1515     YY     -91.6336
        XZ      -5.3692     YZ      -4.8062     ZZ     -94.6708

 Total job time:  56.25s(wall), 1937.08s(cpu)
        *  Thank you very much for using Q-Chem.  Have a nice day.  *
