 Q-Chem 5.4, Q-Chem, Inc., Pleasanton, CA (2021)
 Q-Chem 5.4.0 for Intel X86 EM64T Linux

User input:
--------------------------------------------------------------
$molecule
0 1
C	-0.180618	-0.975447	0.973565
S	-0.023018	-0.084547	2.481065
C	0.249282	1.464253	1.692465
C	-0.022818	-0.084847	-0.094335
C	0.216282	1.284553	0.287165
S	-0.062318	-0.325247	-1.831935
C	0.236382	1.400753	-2.080935
C	0.356982	2.098753	-0.889035
F	0.584382	3.415953	-0.845535
C	0.316082	1.841653	-3.482535
O	0.190282	1.082153	-4.432935
O	0.543282	3.172953	-3.595635
C	0.634382	3.659653	-4.942635
H	0.818682	4.745153	-4.859535
H	-0.306518	3.466753	-5.496635
H	1.464882	3.165053	-5.485735
C	-0.180618	-2.410647	0.973565
H	-0.173218	-2.418647	2.053465
H	-1.021318	-3.088547	0.973865
H	0.759782	-2.941747	0.966865
H	0.408382	2.374753	2.280065
$end

$rem
JOBTYPE		SP
EXCHANGE	HF
CORRELATION	pRIMP2
BASIS		cc-pvtz
METHOD		rimp2
AUX_BASIS	rimp2-cc-pvtz
SOLVENT_METHOD	PCM
PURECART	11111
SYMMETRY	false
MEM_TOTAL	110000
SCF_CONVERGENCE = 6
THRESH=10
GUI = 2
$end

$solvent
dielectric 4.90
$end
--------------------------------------------------------------

             Standard Nuclear Orientation (Angstroms)
    I     Atom           X                Y                Z
 ----------------------------------------------------------------
    1      C      -0.1806180000    -0.9754470000     0.9735650000
    2      S      -0.0230180000    -0.0845470000     2.4810650000
    3      C       0.2492820000     1.4642530000     1.6924650000
    4      C      -0.0228180000    -0.0848470000    -0.0943350000
    5      C       0.2162820000     1.2845530000     0.2871650000
    6      S      -0.0623180000    -0.3252470000    -1.8319350000
    7      C       0.2363820000     1.4007530000    -2.0809350000
    8      C       0.3569820000     2.0987530000    -0.8890350000
    9      F       0.5843820000     3.4159530000    -0.8455350000
   10      C       0.3160820000     1.8416530000    -3.4825350000
   11      O       0.1902820000     1.0821530000    -4.4329350000
   12      O       0.5432820000     3.1729530000    -3.5956350000
   13      C       0.6343820000     3.6596530000    -4.9426350000
   14      H       0.8186820000     4.7451530000    -4.8595350000
   15      H      -0.3065180000     3.4667530000    -5.4966350000
   16      H       1.4648820000     3.1650530000    -5.4857350000
   17      C      -0.1806180000    -2.4106470000     0.9735650000
   18      H      -0.1732180000    -2.4186470000     2.0534650000
   19      H      -1.0213180000    -3.0885470000     0.9738650000
   20      H       0.7597820000    -2.9417470000     0.9668650000
   21      H       0.4083820000     2.3747530000     2.2800650000
 ----------------------------------------------------------------

   11   -1389.2684644874      4.78e-07  Convergence criterion met
 Total energy in the final basis set =    -1389.2684644874
        RIMP2         total energy =     -1391.7740150569 a.u.

                    Orbital Energies (a.u.)
 --------------------------------------------------------------

 Alpha MOs
 -- Occupied --
-92.0085 -91.9922 -26.3404 -20.6133 -20.5594 -11.4073 -11.3784 -11.3006
-11.2941 -11.2913 -11.2880 -11.2856 -11.2786 -11.2251  -9.0073  -8.9924
 -6.6881  -6.6875  -6.6870  -6.6734  -6.6727  -6.6716  -1.6577  -1.4657
 -1.3683  -1.2124  -1.1371  -1.0647  -1.0199  -0.9949  -0.9587  -0.9123
 -0.8639  -0.8068  -0.7884  -0.7579  -0.7313  -0.7226  -0.6913  -0.6831
 -0.6725  -0.6606  -0.6067  -0.6031  -0.5919  -0.5766  -0.5662  -0.5568
 -0.5398  -0.5299  -0.5075  -0.4791  -0.4734  -0.4712  -0.4656  -0.4602
 -0.3921  -0.3450  -0.2918

          Ground-State Mulliken Net Atomic Charges

     Atom                 Charge (a.u.)
  ----------------------------------------
      1 C                     0.030653
      2 S                     0.076570
      3 C                    -0.210327
      4 C                    -0.009752
      5 C                    -0.090830
      6 S                    -0.002991
      7 C                    -0.157826
      8 C                     0.391601
      9 F                    -0.208746
     10 C                     0.445207
     11 O                    -0.462360
     12 O                    -0.300896
     13 C                    -0.058635
     14 H                     0.121007
     15 H                     0.094767
     16 H                     0.094698
     17 C                    -0.366725
     18 H                     0.110686
     19 H                     0.152698
     20 H                     0.136423
     21 H                     0.214780
  ----------------------------------------
  Sum of atomic charges =     0.000000

                    Cartesian Multipole Moments
 -----------------------------------------------------------------
    Charge (ESU x 10^10)
                -0.0000
    Dipole Moment (Debye)
         X       0.4161      Y       0.6997      Z       3.8273
       Tot       3.9129
    Quadrupole Moments (Debye-Ang)
        XX     -95.9257     XY       2.0223     YY     -81.7714
        XZ      -1.4763     YZ     -11.2408     ZZ     -95.4387

 Total job time:  62.62s(wall), 2396.48s(cpu)
        *  Thank you very much for using Q-Chem.  Have a nice day.  *
