 Q-Chem 5.4, Q-Chem, Inc., Pleasanton, CA (2021)
 Q-Chem 5.4.0 for Intel X86 EM64T Linux

User input:
--------------------------------------------------------------
$molecule
0 1
C	-0.088066	-0.987267	0.976498
S	-0.008766	-0.085967	2.483998
C	0.127534	1.480633	1.695398
C	-0.008466	-0.086367	-0.091402
C	0.110334	1.298733	0.290098
S	-0.026866	-0.329267	-1.829002
C	0.120234	1.416233	-2.078002
C	0.179534	2.122133	-0.886102
F	0.291234	3.454033	-0.842602
C	0.161234	1.862433	-3.479602
O	0.102034	1.094833	-4.430002
O	0.271434	3.208433	-3.592702
C	0.319834	3.701233	-4.939702
H	0.408834	4.798633	-4.856602
H	-0.600666	3.427033	-5.493702
H	1.190334	3.280833	-5.482802
C	-0.088066	-2.422467	0.976498
H	-1.105466	-2.430467	0.614098
H	0.199234	-3.100367	0.186398
H	-0.403466	-2.953567	1.862398
H	0.206734	2.401533	2.282998
$end

$rem
JOBTYPE		SP
EXCHANGE	HF
CORRELATION	pRIMP2
BASIS		cc-pvtz
METHOD		rimp2
AUX_BASIS	rimp2-cc-pvtz
SOLVENT_METHOD	PCM
PURECART	11111
SYMMETRY	false
MEM_TOTAL	110000
SCF_CONVERGENCE = 6
THRESH=10
GUI = 2
$end

$solvent
dielectric 4.90
$end
--------------------------------------------------------------

             Standard Nuclear Orientation (Angstroms)
    I     Atom           X                Y                Z
 ----------------------------------------------------------------
    1      C      -0.0880660000    -0.9872670000     0.9764980000
    2      S      -0.0087660000    -0.0859670000     2.4839980000
    3      C       0.1275340000     1.4806330000     1.6953980000
    4      C      -0.0084660000    -0.0863670000    -0.0914020000
    5      C       0.1103340000     1.2987330000     0.2900980000
    6      S      -0.0268660000    -0.3292670000    -1.8290020000
    7      C       0.1202340000     1.4162330000    -2.0780020000
    8      C       0.1795340000     2.1221330000    -0.8861020000
    9      F       0.2912340000     3.4540330000    -0.8426020000
   10      C       0.1612340000     1.8624330000    -3.4796020000
   11      O       0.1020340000     1.0948330000    -4.4300020000
   12      O       0.2714340000     3.2084330000    -3.5927020000
   13      C       0.3198340000     3.7012330000    -4.9397020000
   14      H       0.4088340000     4.7986330000    -4.8566020000
   15      H      -0.6006660000     3.4270330000    -5.4937020000
   16      H       1.1903340000     3.2808330000    -5.4828020000
   17      C      -0.0880660000    -2.4224670000     0.9764980000
   18      H      -1.1054660000    -2.4304670000     0.6140980000
   19      H       0.1992340000    -3.1003670000     0.1863980000
   20      H      -0.4034660000    -2.9535670000     1.8623980000
   21      H       0.2067340000     2.4015330000     2.2829980000
 ----------------------------------------------------------------

   11   -1389.2723111762      5.13e-07  Convergence criterion met
 Total energy in the final basis set =    -1389.2723111762
        RIMP2         total energy =     -1391.7767428114 a.u.

                    Orbital Energies (a.u.)
 --------------------------------------------------------------

 Alpha MOs
 -- Occupied --
-92.0063 -91.9908 -26.3399 -20.6134 -20.5595 -11.4073 -11.3776 -11.3023
-11.2943 -11.2914 -11.2880 -11.2802 -11.2783 -11.2306  -9.0050  -8.9910
 -6.6858  -6.6853  -6.6847  -6.6720  -6.6713  -6.6702  -1.6571  -1.4658
 -1.3683  -1.2111  -1.1358  -1.0668  -1.0179  -0.9958  -0.9577  -0.9134
 -0.8627  -0.8041  -0.7879  -0.7584  -0.7300  -0.7220  -0.6928  -0.6831
 -0.6725  -0.6601  -0.6128  -0.5945  -0.5880  -0.5831  -0.5618  -0.5593
 -0.5348  -0.5289  -0.5106  -0.4989  -0.4727  -0.4712  -0.4701  -0.4602
 -0.3838  -0.3447  -0.2817

          Ground-State Mulliken Net Atomic Charges

     Atom                 Charge (a.u.)
  ----------------------------------------
      1 C                     0.052849
      2 S                     0.081050
      3 C                    -0.228660
      4 C                    -0.035438
      5 C                    -0.087930
      6 S                    -0.016594
      7 C                    -0.156250
      8 C                     0.386773
      9 F                    -0.208947
     10 C                     0.445247
     11 O                    -0.462251
     12 O                    -0.300635
     13 C                    -0.058698
     14 H                     0.121145
     15 H                     0.094714
     16 H                     0.094694
     17 C                    -0.388113
     18 H                     0.142725
     19 H                     0.166370
     20 H                     0.145979
     21 H                     0.211970
  ----------------------------------------
  Sum of atomic charges =     0.000000

                    Cartesian Multipole Moments
 -----------------------------------------------------------------
    Charge (ESU x 10^10)
                -0.0000
    Dipole Moment (Debye)
         X      -0.5410      Y      -0.0022      Z       3.0786
       Tot       3.1258
    Quadrupole Moments (Debye-Ang)
        XX     -96.7359     XY       2.8130     YY     -80.5366
        XZ      -1.6220     YZ     -10.1379     ZZ     -96.8921

 Total job time:  54.26s(wall), 1941.00s(cpu)
        *  Thank you very much for using Q-Chem.  Have a nice day.  *
