 Q-Chem 5.4, Q-Chem, Inc., Pleasanton, CA (2021)
 Q-Chem 5.4.0 for Intel X86 EM64T Linux

User input:
--------------------------------------------------------------
$molecule
0 1
C	-0.092506	-0.987267	0.974943
S	-0.013206	-0.085967	2.482443
C	0.123094	1.480633	1.693843
C	-0.012906	-0.086367	-0.092957
C	0.105894	1.298733	0.288543
S	-0.031306	-0.329267	-1.830557
C	0.115794	1.416233	-2.079557
C	0.175094	2.122133	-0.887657
F	0.286794	3.454033	-0.844157
C	0.156794	1.862433	-3.481157
O	0.097594	1.094833	-4.431557
O	0.266994	3.208433	-3.594257
C	0.315394	3.701233	-4.941257
H	0.404394	4.798633	-4.858157
H	-0.605106	3.427033	-5.495257
H	1.185894	3.280833	-5.484357
C	-0.092506	-2.422467	0.974943
H	0.846494	-2.430467	1.508443
H	-0.512606	-3.100367	1.703143
H	0.371894	-2.953567	0.157243
H	0.202294	2.401533	2.281443
$end

$rem
JOBTYPE		SP
EXCHANGE	HF
CORRELATION	pRIMP2
BASIS		cc-pvtz
METHOD		rimp2
AUX_BASIS	rimp2-cc-pvtz
SOLVENT_METHOD	PCM
PURECART	11111
SYMMETRY	false
MEM_TOTAL	110000
SCF_CONVERGENCE = 6
THRESH=10
GUI = 2
$end

$solvent
dielectric 4.90
$end
--------------------------------------------------------------

             Standard Nuclear Orientation (Angstroms)
    I     Atom           X                Y                Z
 ----------------------------------------------------------------
    1      C      -0.0925060000    -0.9872670000     0.9749430000
    2      S      -0.0132060000    -0.0859670000     2.4824430000
    3      C       0.1230940000     1.4806330000     1.6938430000
    4      C      -0.0129060000    -0.0863670000    -0.0929570000
    5      C       0.1058940000     1.2987330000     0.2885430000
    6      S      -0.0313060000    -0.3292670000    -1.8305570000
    7      C       0.1157940000     1.4162330000    -2.0795570000
    8      C       0.1750940000     2.1221330000    -0.8876570000
    9      F       0.2867940000     3.4540330000    -0.8441570000
   10      C       0.1567940000     1.8624330000    -3.4811570000
   11      O       0.0975940000     1.0948330000    -4.4315570000
   12      O       0.2669940000     3.2084330000    -3.5942570000
   13      C       0.3153940000     3.7012330000    -4.9412570000
   14      H       0.4043940000     4.7986330000    -4.8581570000
   15      H      -0.6051060000     3.4270330000    -5.4952570000
   16      H       1.1858940000     3.2808330000    -5.4843570000
   17      C      -0.0925060000    -2.4224670000     0.9749430000
   18      H       0.8464940000    -2.4304670000     1.5084430000
   19      H      -0.5126060000    -3.1003670000     1.7031430000
   20      H       0.3718940000    -2.9535670000     0.1572430000
   21      H       0.2022940000     2.4015330000     2.2814430000
 ----------------------------------------------------------------

   11   -1389.2726100001      5.27e-07  Convergence criterion met
 Total energy in the final basis set =    -1389.2726100001
        RIMP2         total energy =     -1391.7760820950 a.u.

                    Orbital Energies (a.u.)
 --------------------------------------------------------------

 Alpha MOs
 -- Occupied --
-92.0051 -91.9898 -26.3398 -20.6133 -20.5594 -11.4071 -11.3775 -11.3012
-11.2941 -11.2941 -11.2879 -11.2813 -11.2781 -11.2301  -9.0042  -8.9900
 -6.6851  -6.6845  -6.6839  -6.6711  -6.6704  -6.6692  -1.6571  -1.4656
 -1.3682  -1.2113  -1.1365  -1.0662  -1.0183  -0.9955  -0.9578  -0.9129
 -0.8628  -0.8049  -0.7878  -0.7580  -0.7310  -0.7220  -0.6914  -0.6830
 -0.6724  -0.6599  -0.6112  -0.5978  -0.5919  -0.5795  -0.5634  -0.5564
 -0.5334  -0.5289  -0.5136  -0.4964  -0.4723  -0.4708  -0.4701  -0.4587
 -0.3859  -0.3456  -0.2822

          Ground-State Mulliken Net Atomic Charges

     Atom                 Charge (a.u.)
  ----------------------------------------
      1 C                     0.048377
      2 S                     0.070640
      3 C                    -0.220313
      4 C                    -0.025192
      5 C                    -0.093600
      6 S                    -0.012901
      7 C                    -0.157005
      8 C                     0.389667
      9 F                    -0.209108
     10 C                     0.445406
     11 O                    -0.462035
     12 O                    -0.300701
     13 C                    -0.058719
     14 H                     0.121079
     15 H                     0.094802
     16 H                     0.094599
     17 C                    -0.385719
     18 H                     0.139181
     19 H                     0.160301
     20 H                     0.147970
     21 H                     0.213270
  ----------------------------------------
  Sum of atomic charges =     0.000000

                    Cartesian Multipole Moments
 -----------------------------------------------------------------
    Charge (ESU x 10^10)
                -0.0000
    Dipole Moment (Debye)
         X       0.7974      Y       0.1013      Z       3.6264
       Tot       3.7144
    Quadrupole Moments (Debye-Ang)
        XX     -96.8591     XY      -0.5618     YY     -80.5730
        XZ      -0.4233     YZ     -11.5566     ZZ     -95.9499

 Total job time:  54.07s(wall), 1966.28s(cpu)
        *  Thank you very much for using Q-Chem.  Have a nice day.  *
