 Q-Chem 5.4, Q-Chem, Inc., Pleasanton, CA (2021)
 Q-Chem 5.4.0 for Intel X86 EM64T Linux

User input:
--------------------------------------------------------------
$molecule
0 1
C	-0.902141	-0.471137	0.973787
S	-0.118341	-0.019137	2.481287
C	1.243159	0.767763	1.692687
C	-0.118441	-0.019537	-0.094113
C	1.084259	0.677463	0.287387
S	-0.328041	-0.143837	-1.831713
C	1.186259	0.736763	-2.080713
C	1.798359	1.093063	-0.888813
F	2.953559	1.765563	-0.845313
C	1.575159	0.959163	-3.482313
O	0.912459	0.567363	-4.432713
O	2.741059	1.640863	-3.595413
C	3.172359	1.883963	-4.942413
H	4.122459	2.440463	-4.859313
H	2.419859	2.480763	-5.496413
H	3.327359	0.929763	-5.485513
C	-0.902141	-1.906337	0.973787
H	-0.525741	-1.914337	1.986087
H	-1.692041	-2.584237	1.261587
H	-0.020741	-2.437437	0.645887
H	2.042859	1.231163	2.280287
$end

$rem
JOBTYPE		SP
EXCHANGE	HF
CORRELATION	pRIMP2
BASIS		cc-pvtz
METHOD		rimp2
AUX_BASIS	rimp2-cc-pvtz
SOLVENT_METHOD	PCM
PURECART	11111
SYMMETRY	false
MEM_TOTAL	110000
SCF_CONVERGENCE = 6
THRESH=10
GUI = 2
$end

$solvent
dielectric 4.90
$end
--------------------------------------------------------------

             Standard Nuclear Orientation (Angstroms)
    I     Atom           X                Y                Z
 ----------------------------------------------------------------
    1      C      -0.9021410000    -0.4711370000     0.9737870000
    2      S      -0.1183410000    -0.0191370000     2.4812870000
    3      C       1.2431590000     0.7677630000     1.6926870000
    4      C      -0.1184410000    -0.0195370000    -0.0941130000
    5      C       1.0842590000     0.6774630000     0.2873870000
    6      S      -0.3280410000    -0.1438370000    -1.8317130000
    7      C       1.1862590000     0.7367630000    -2.0807130000
    8      C       1.7983590000     1.0930630000    -0.8888130000
    9      F       2.9535590000     1.7655630000    -0.8453130000
   10      C       1.5751590000     0.9591630000    -3.4823130000
   11      O       0.9124590000     0.5673630000    -4.4327130000
   12      O       2.7410590000     1.6408630000    -3.5954130000
   13      C       3.1723590000     1.8839630000    -4.9424130000
   14      H       4.1224590000     2.4404630000    -4.8593130000
   15      H       2.4198590000     2.4807630000    -5.4964130000
   16      H       3.3273590000     0.9297630000    -5.4855130000
   17      C      -0.9021410000    -1.9063370000     0.9737870000
   18      H      -0.5257410000    -1.9143370000     1.9860870000
   19      H      -1.6920410000    -2.5842370000     1.2615870000
   20      H      -0.0207410000    -2.4374370000     0.6458870000
   21      H       2.0428590000     1.2311630000     2.2802870000
 ----------------------------------------------------------------

   11   -1389.1875595068      5.90e-07  Convergence criterion met
 Total energy in the final basis set =    -1389.1875595068
        RIMP2         total energy =     -1391.7043732042 a.u.

                    Orbital Energies (a.u.)
 --------------------------------------------------------------

 Alpha MOs
 -- Occupied --
-92.0023 -92.0011 -26.3440 -20.6138 -20.5596 -11.4080 -11.3840 -11.3274
-11.3084 -11.2935 -11.2885 -11.2803 -11.2584 -11.2115  -9.0021  -9.0019
 -6.6831  -6.6825  -6.6823  -6.6813  -6.6813  -6.6813  -1.6611  -1.4662
 -1.3688  -1.2241  -1.1467  -1.0696  -1.0248  -0.9899  -0.9620  -0.9025
 -0.8680  -0.8137  -0.7916  -0.7599  -0.7355  -0.7257  -0.6966  -0.6837
 -0.6732  -0.6623  -0.6101  -0.6071  -0.5936  -0.5722  -0.5650  -0.5596
 -0.5305  -0.5201  -0.5137  -0.4900  -0.4795  -0.4725  -0.4714  -0.4328
 -0.3842  -0.3388  -0.2970

          Ground-State Mulliken Net Atomic Charges

     Atom                 Charge (a.u.)
  ----------------------------------------
      1 C                    -0.129684
      2 S                     0.090110
      3 C                    -0.135368
      4 C                     0.077675
      5 C                    -0.118307
      6 S                     0.039438
      7 C                    -0.158522
      8 C                     0.393607
      9 F                    -0.206153
     10 C                     0.448008
     11 O                    -0.464947
     12 O                    -0.301843
     13 C                    -0.058329
     14 H                     0.120991
     15 H                     0.094924
     16 H                     0.094633
     17 C                    -0.374750
     18 H                     0.120819
     19 H                     0.126277
     20 H                     0.124152
     21 H                     0.217270
  ----------------------------------------
  Sum of atomic charges =     0.000000

                    Cartesian Multipole Moments
 -----------------------------------------------------------------
    Charge (ESU x 10^10)
                -0.0000
    Dipole Moment (Debye)
         X       3.4994      Y       0.5804      Z       3.4683
       Tot       4.9610
    Quadrupole Moments (Debye-Ang)
        XX     -90.0829     XY       4.5884     YY     -91.9190
        XZ      -5.5308     YZ      -5.7162     ZZ     -94.3749

 Total job time:  54.22s(wall), 1933.82s(cpu)
        *  Thank you very much for using Q-Chem.  Have a nice day.  *
