 Q-Chem 5.4, Q-Chem, Inc., Pleasanton, CA (2021)
 Q-Chem 5.4.0 for Intel X86 EM64T Linux

User input:
--------------------------------------------------------------
$molecule
0 1
C	-0.669281	-0.747937	0.978203
S	-0.087381	-0.055137	2.485703
C	0.922919	1.149963	1.697103
C	-0.087381	-0.055537	-0.089697
C	0.804419	1.010863	0.291803
S	-0.241681	-0.244037	-1.827297
C	0.880019	1.101463	-2.076297
C	1.333419	1.645563	-0.884397
F	2.188919	2.672563	-0.840897
C	1.169419	1.443363	-3.477897
O	0.680719	0.848563	-4.428297
O	2.031819	2.482763	-3.590997
C	2.354019	2.858663	-4.937997
H	3.056419	3.706563	-4.854897
H	1.442819	3.162063	-5.491997
H	2.826019	2.015063	-5.481097
C	-0.669281	-2.183137	0.978203
H	-0.306881	-2.191137	-0.039197
H	0.120819	-2.861037	1.265503
H	-1.555181	-2.714237	0.662803
H	1.515919	1.858863	2.284703
$end

$rem
JOBTYPE		SP
EXCHANGE	HF
CORRELATION	pRIMP2
BASIS		cc-pvtz
METHOD		rimp2
AUX_BASIS	rimp2-cc-pvtz
SOLVENT_METHOD	PCM
PURECART	11111
SYMMETRY	false
MEM_TOTAL	110000
SCF_CONVERGENCE = 6
THRESH=10
GUI = 2
$end

$solvent
dielectric 4.90
$end
--------------------------------------------------------------

             Standard Nuclear Orientation (Angstroms)
    I     Atom           X                Y                Z
 ----------------------------------------------------------------
    1      C      -0.6692810000    -0.7479370000     0.9782030000
    2      S      -0.0873810000    -0.0551370000     2.4857030000
    3      C       0.9229190000     1.1499630000     1.6971030000
    4      C      -0.0873810000    -0.0555370000    -0.0896970000
    5      C       0.8044190000     1.0108630000     0.2918030000
    6      S      -0.2416810000    -0.2440370000    -1.8272970000
    7      C       0.8800190000     1.1014630000    -2.0762970000
    8      C       1.3334190000     1.6455630000    -0.8843970000
    9      F       2.1889190000     2.6725630000    -0.8408970000
   10      C       1.1694190000     1.4433630000    -3.4778970000
   11      O       0.6807190000     0.8485630000    -4.4282970000
   12      O       2.0318190000     2.4827630000    -3.5909970000
   13      C       2.3540190000     2.8586630000    -4.9379970000
   14      H       3.0564190000     3.7065630000    -4.8548970000
   15      H       1.4428190000     3.1620630000    -5.4919970000
   16      H       2.8260190000     2.0150630000    -5.4810970000
   17      C      -0.6692810000    -2.1831370000     0.9782030000
   18      H      -0.3068810000    -2.1911370000    -0.0391970000
   19      H       0.1208190000    -2.8610370000     1.2655030000
   20      H      -1.5551810000    -2.7142370000     0.6628030000
   21      H       1.5159190000     1.8588630000     2.2847030000
 ----------------------------------------------------------------

   11   -1389.2374872957      4.83e-07  Convergence criterion met
 Total energy in the final basis set =    -1389.2374872957
        RIMP2         total energy =     -1391.7506188042 a.u.

                    Orbital Energies (a.u.)
 --------------------------------------------------------------

 Alpha MOs
 -- Occupied --
-92.0032 -91.9990 -26.3426 -20.6140 -20.5600 -11.4083 -11.3820 -11.3097
-11.2958 -11.2948 -11.2886 -11.2799 -11.2792 -11.2188  -9.0025  -8.9990
 -6.6832  -6.6825  -6.6822  -6.6800  -6.6793  -6.6783  -1.6598  -1.4665
 -1.3691  -1.2177  -1.1385  -1.0696  -1.0202  -0.9921  -0.9592  -0.9104
 -0.8648  -0.8072  -0.7904  -0.7602  -0.7305  -0.7245  -0.6963  -0.6839
 -0.6733  -0.6614  -0.6071  -0.6028  -0.5920  -0.5857  -0.5643  -0.5601
 -0.5306  -0.5258  -0.5097  -0.4875  -0.4741  -0.4724  -0.4669  -0.4468
 -0.3869  -0.3427  -0.2958

          Ground-State Mulliken Net Atomic Charges

     Atom                 Charge (a.u.)
  ----------------------------------------
      1 C                    -0.047207
      2 S                     0.086117
      3 C                    -0.181537
      4 C                     0.009189
      5 C                    -0.089729
      6 S                     0.014470
      7 C                    -0.157771
      8 C                     0.388643
      9 F                    -0.206445
     10 C                     0.447592
     11 O                    -0.463452
     12 O                    -0.301400
     13 C                    -0.058385
     14 H                     0.121159
     15 H                     0.094944
     16 H                     0.094683
     17 C                    -0.361440
     18 H                     0.115430
     19 H                     0.157031
     20 H                     0.125045
     21 H                     0.213062
  ----------------------------------------
  Sum of atomic charges =     0.000000

                    Cartesian Multipole Moments
 -----------------------------------------------------------------
    Charge (ESU x 10^10)
                -0.0000
    Dipole Moment (Debye)
         X       2.0707      Y       0.7610      Z       2.4426
       Tot       3.2914
    Quadrupole Moments (Debye-Ang)
        XX     -92.6318     XY       4.8483     YY     -87.0642
        XZ      -3.9592     YZ      -5.9638     ZZ     -97.3274

 Total job time:  59.04s(wall), 2051.51s(cpu)
        *  Thank you very much for using Q-Chem.  Have a nice day.  *
