 Q-Chem 5.4, Q-Chem, Inc., Pleasanton, CA (2021)
 Q-Chem 5.4.0 for Intel X86 EM64T Linux

User input:
--------------------------------------------------------------
$molecule
0 1
C	0.001675	-0.991205	0.973964
S	0.002175	-0.086405	2.481464
C	0.001375	1.486095	1.692864
C	0.002475	-0.086805	-0.093936
C	0.000075	1.303395	0.287564
S	0.005275	-0.330305	-1.831536
C	-0.000225	1.421295	-2.080536
C	-0.002725	2.129695	-0.888636
F	-0.007525	3.466295	-0.845136
C	0.001675	1.869395	-3.482136
O	0.009575	1.099495	-4.432536
O	-0.005825	3.219895	-3.595236
C	-0.000625	3.714995	-4.942236
H	-0.007625	4.815995	-4.859136
H	-0.893725	3.361695	-5.496236
H	0.903175	3.372095	-5.485336
C	0.001675	-2.426405	0.973964
H	-0.686825	-2.434405	1.806064
H	-0.642525	-3.104305	0.433764
H	0.726275	-2.957505	1.573264
H	-0.000025	2.410395	2.280464
$end

$rem
JOBTYPE		SP
EXCHANGE	HF
CORRELATION	pRIMP2
BASIS		cc-pvtz
METHOD		rimp2
AUX_BASIS	rimp2-cc-pvtz
SOLVENT_METHOD	PCM
PURECART	11111
SYMMETRY	false
MEM_TOTAL	110000
SCF_CONVERGENCE = 6
THRESH=10
GUI = 2
$end

$solvent
dielectric 4.90
$end
--------------------------------------------------------------

             Standard Nuclear Orientation (Angstroms)
    I     Atom           X                Y                Z
 ----------------------------------------------------------------
    1      C       0.0016750000    -0.9912050000     0.9739640000
    2      S       0.0021750000    -0.0864050000     2.4814640000
    3      C       0.0013750000     1.4860950000     1.6928640000
    4      C       0.0024750000    -0.0868050000    -0.0939360000
    5      C       0.0000750000     1.3033950000     0.2875640000
    6      S       0.0052750000    -0.3303050000    -1.8315360000
    7      C      -0.0002250000     1.4212950000    -2.0805360000
    8      C      -0.0027250000     2.1296950000    -0.8886360000
    9      F      -0.0075250000     3.4662950000    -0.8451360000
   10      C       0.0016750000     1.8693950000    -3.4821360000
   11      O       0.0095750000     1.0994950000    -4.4325360000
   12      O      -0.0058250000     3.2198950000    -3.5952360000
   13      C      -0.0006250000     3.7149950000    -4.9422360000
   14      H      -0.0076250000     4.8159950000    -4.8591360000
   15      H      -0.8937250000     3.3616950000    -5.4962360000
   16      H       0.9031750000     3.3720950000    -5.4853360000
   17      C       0.0016750000    -2.4264050000     0.9739640000
   18      H      -0.6868250000    -2.4344050000     1.8060640000
   19      H      -0.6425250000    -3.1043050000     0.4337640000
   20      H       0.7262750000    -2.9575050000     1.5732640000
   21      H      -0.0000250000     2.4103950000     2.2804640000
 ----------------------------------------------------------------

   11   -1389.2711267455      5.08e-07  Convergence criterion met
 Total energy in the final basis set =    -1389.2711267455
        RIMP2         total energy =     -1391.7751894384 a.u.

                    Orbital Energies (a.u.)
 --------------------------------------------------------------

 Alpha MOs
 -- Occupied --
-92.0070 -91.9905 -26.3399 -20.6133 -20.5594 -11.4072 -11.3778 -11.2972
-11.2968 -11.2941 -11.2879 -11.2826 -11.2782 -11.2273  -9.0060  -8.9907
 -6.6868  -6.6862  -6.6857  -6.6718  -6.6711  -6.6699  -1.6572  -1.4656
 -1.3682  -1.2116  -1.1366  -1.0652  -1.0190  -0.9954  -0.9582  -0.9128
 -0.8632  -0.8056  -0.7879  -0.7578  -0.7310  -0.7221  -0.6914  -0.6830
 -0.6724  -0.6603  -0.6106  -0.5982  -0.5915  -0.5778  -0.5649  -0.5557
 -0.5382  -0.5297  -0.5093  -0.4883  -0.4730  -0.4708  -0.4700  -0.4590
 -0.3881  -0.3456  -0.2860

          Ground-State Mulliken Net Atomic Charges

     Atom                 Charge (a.u.)
  ----------------------------------------
      1 C                     0.033282
      2 S                     0.074141
      3 C                    -0.211699
      4 C                    -0.008011
      5 C                    -0.096552
      6 S                    -0.009763
      7 C                    -0.157505
      8 C                     0.390100
      9 F                    -0.209093
     10 C                     0.445217
     11 O                    -0.462223
     12 O                    -0.300691
     13 C                    -0.058714
     14 H                     0.121045
     15 H                     0.094709
     16 H                     0.094711
     17 C                    -0.380474
     18 H                     0.124023
     19 H                     0.163938
     20 H                     0.139369
     21 H                     0.214190
  ----------------------------------------
  Sum of atomic charges =     0.000000

                    Cartesian Multipole Moments
 -----------------------------------------------------------------
    Charge (ESU x 10^10)
                -0.0000
    Dipole Moment (Debye)
         X      -0.4495      Y       0.3941      Z       3.7782
       Tot       3.8252
    Quadrupole Moments (Debye-Ang)
        XX     -96.5523     XY       1.2930     YY     -80.8803
        XZ      -0.0257     YZ     -11.4628     ZZ     -95.6304

 Total job time:  54.14s(wall), 1891.91s(cpu)
        *  Thank you very much for using Q-Chem.  Have a nice day.  *
