 Q-Chem 5.4, Q-Chem, Inc., Pleasanton, CA (2021)
 Q-Chem 5.4.0 for Intel X86 EM64T Linux

User input:
--------------------------------------------------------------
$molecule
0 1
C	-0.178034	-0.975447	0.975680
S	-0.020434	-0.084547	2.483180
C	0.251866	1.464253	1.694580
C	-0.020234	-0.084847	-0.092220
C	0.218866	1.284553	0.289280
S	-0.059734	-0.325247	-1.829820
C	0.238966	1.400753	-2.078820
C	0.359566	2.098753	-0.886920
F	0.586966	3.415953	-0.843420
C	0.318666	1.841653	-3.480420
O	0.192866	1.082153	-4.430820
O	0.545866	3.172953	-3.593520
C	0.636966	3.659653	-4.940520
H	0.821266	4.745153	-4.857420
H	-0.303934	3.466753	-5.494520
H	1.467466	3.165053	-5.483620
C	-0.178034	-2.410647	0.975680
H	-1.257934	-2.418647	0.983080
H	-0.178334	-3.088547	0.134980
H	-0.171334	-2.941747	1.916080
H	0.410966	2.374753	2.282180
$end

$rem
JOBTYPE		SP
EXCHANGE	HF
CORRELATION	pRIMP2
BASIS		cc-pvtz
METHOD		rimp2
AUX_BASIS	rimp2-cc-pvtz
SOLVENT_METHOD	PCM
PURECART	11111
SYMMETRY	false
MEM_TOTAL	110000
SCF_CONVERGENCE = 6
THRESH=10
GUI = 2
$end

$solvent
dielectric 4.90
$end
--------------------------------------------------------------

             Standard Nuclear Orientation (Angstroms)
    I     Atom           X                Y                Z
 ----------------------------------------------------------------
    1      C      -0.1780340000    -0.9754470000     0.9756800000
    2      S      -0.0204340000    -0.0845470000     2.4831800000
    3      C       0.2518660000     1.4642530000     1.6945800000
    4      C      -0.0202340000    -0.0848470000    -0.0922200000
    5      C       0.2188660000     1.2845530000     0.2892800000
    6      S      -0.0597340000    -0.3252470000    -1.8298200000
    7      C       0.2389660000     1.4007530000    -2.0788200000
    8      C       0.3595660000     2.0987530000    -0.8869200000
    9      F       0.5869660000     3.4159530000    -0.8434200000
   10      C       0.3186660000     1.8416530000    -3.4804200000
   11      O       0.1928660000     1.0821530000    -4.4308200000
   12      O       0.5458660000     3.1729530000    -3.5935200000
   13      C       0.6369660000     3.6596530000    -4.9405200000
   14      H       0.8212660000     4.7451530000    -4.8574200000
   15      H      -0.3039340000     3.4667530000    -5.4945200000
   16      H       1.4674660000     3.1650530000    -5.4836200000
   17      C      -0.1780340000    -2.4106470000     0.9756800000
   18      H      -1.2579340000    -2.4186470000     0.9830800000
   19      H      -0.1783340000    -3.0885470000     0.1349800000
   20      H      -0.1713340000    -2.9417470000     1.9160800000
   21      H       0.4109660000     2.3747530000     2.2821800000
 ----------------------------------------------------------------

   11   -1389.2695618998      5.21e-07  Convergence criterion met
 Total energy in the final basis set =    -1389.2695618998
        RIMP2         total energy =     -1391.7738997347 a.u.

                    Orbital Energies (a.u.)
 --------------------------------------------------------------

 Alpha MOs
 -- Occupied --
-92.0063 -91.9900 -26.3395 -20.6133 -20.5594 -11.4072 -11.3772 -11.3022
-11.2942 -11.2915 -11.2879 -11.2794 -11.2780 -11.2305  -9.0051  -8.9901
 -6.6860  -6.6854  -6.6848  -6.6712  -6.6705  -6.6694  -1.6568  -1.4656
 -1.3682  -1.2109  -1.1361  -1.0664  -1.0179  -0.9958  -0.9576  -0.9133
 -0.8626  -0.8041  -0.7877  -0.7581  -0.7302  -0.7218  -0.6922  -0.6830
 -0.6724  -0.6598  -0.6129  -0.5941  -0.5875  -0.5831  -0.5608  -0.5593
 -0.5325  -0.5269  -0.5156  -0.4999  -0.4723  -0.4716  -0.4703  -0.4595
 -0.3831  -0.3449  -0.2800

          Ground-State Mulliken Net Atomic Charges

     Atom                 Charge (a.u.)
  ----------------------------------------
      1 C                     0.042901
      2 S                     0.081112
      3 C                    -0.231339
      4 C                    -0.029208
      5 C                    -0.092759
      6 S                    -0.016146
      7 C                    -0.157798
      8 C                     0.392026
      9 F                    -0.209324
     10 C                     0.445765
     11 O                    -0.462020
     12 O                    -0.300664
     13 C                    -0.058672
     14 H                     0.121067
     15 H                     0.094669
     16 H                     0.094706
     17 C                    -0.389131
     18 H                     0.146481
     19 H                     0.169745
     20 H                     0.145954
     21 H                     0.212635
  ----------------------------------------
  Sum of atomic charges =     0.000000

                    Cartesian Multipole Moments
 -----------------------------------------------------------------
    Charge (ESU x 10^10)
                -0.0000
    Dipole Moment (Debye)
         X      -0.4347      Y      -0.0593      Z       3.3275
       Tot       3.3563
    Quadrupole Moments (Debye-Ang)
        XX     -96.4542     XY       3.9410     YY     -80.7488
        XZ      -2.2394     YZ     -10.6193     ZZ     -96.3910

 Total job time:  57.17s(wall), 1938.60s(cpu)
        *  Thank you very much for using Q-Chem.  Have a nice day.  *
