 Q-Chem 5.4, Q-Chem, Inc., Pleasanton, CA (2021)
 Q-Chem 5.4.0 for Intel X86 EM64T Linux

User input:
--------------------------------------------------------------
$molecule
0 1
C	-0.902089	-0.471137	0.978067
S	-0.118289	-0.019137	2.485567
C	1.243211	0.767763	1.696967
C	-0.118389	-0.019537	-0.089833
C	1.084311	0.677463	0.291667
S	-0.327989	-0.143837	-1.827433
C	1.186311	0.736763	-2.076433
C	1.798411	1.093063	-0.884533
F	2.953611	1.765563	-0.841033
C	1.575211	0.959163	-3.478033
O	0.912511	0.567363	-4.428433
O	2.741111	1.640863	-3.591133
C	3.172411	1.883963	-4.938133
H	4.122511	2.440463	-4.855033
H	2.419911	2.480763	-5.492133
H	3.327411	0.929763	-5.481233
C	-0.902089	-1.906337	0.978067
H	-0.368589	-1.914337	0.039067
H	-0.173889	-2.584237	1.398167
H	-1.719789	-2.437437	0.513667
H	2.042911	1.231163	2.284567
$end

$rem
JOBTYPE		SP
EXCHANGE	HF
CORRELATION	pRIMP2
BASIS		cc-pvtz
METHOD		rimp2
AUX_BASIS	rimp2-cc-pvtz
SOLVENT_METHOD	PCM
PURECART	11111
SYMMETRY	false
MEM_TOTAL	110000
SCF_CONVERGENCE = 6
THRESH=10
GUI = 2
$end

$solvent
dielectric 4.90
$end
--------------------------------------------------------------

             Standard Nuclear Orientation (Angstroms)
    I     Atom           X                Y                Z
 ----------------------------------------------------------------
    1      C      -0.9020890000    -0.4711370000     0.9780670000
    2      S      -0.1182890000    -0.0191370000     2.4855670000
    3      C       1.2432110000     0.7677630000     1.6969670000
    4      C      -0.1183890000    -0.0195370000    -0.0898330000
    5      C       1.0843110000     0.6774630000     0.2916670000
    6      S      -0.3279890000    -0.1438370000    -1.8274330000
    7      C       1.1863110000     0.7367630000    -2.0764330000
    8      C       1.7984110000     1.0930630000    -0.8845330000
    9      F       2.9536110000     1.7655630000    -0.8410330000
   10      C       1.5752110000     0.9591630000    -3.4780330000
   11      O       0.9125110000     0.5673630000    -4.4284330000
   12      O       2.7411110000     1.6408630000    -3.5911330000
   13      C       3.1724110000     1.8839630000    -4.9381330000
   14      H       4.1225110000     2.4404630000    -4.8550330000
   15      H       2.4199110000     2.4807630000    -5.4921330000
   16      H       3.3274110000     0.9297630000    -5.4812330000
   17      C      -0.9020890000    -1.9063370000     0.9780670000
   18      H      -0.3685890000    -1.9143370000     0.0390670000
   19      H      -0.1738890000    -2.5842370000     1.3981670000
   20      H      -1.7197890000    -2.4374370000     0.5136670000
   21      H       2.0429110000     1.2311630000     2.2845670000
 ----------------------------------------------------------------

   11   -1389.1876022831      6.67e-07  Convergence criterion met
 Total energy in the final basis set =    -1389.1876022831
        RIMP2         total energy =     -1391.7079096539 a.u.

                    Orbital Energies (a.u.)
 --------------------------------------------------------------

 Alpha MOs
 -- Occupied --
-92.0060 -92.0047 -26.3446 -20.6145 -20.5603 -11.4090 -11.3849 -11.3237
-11.3067 -11.2950 -11.2889 -11.2814 -11.2584 -11.2116  -9.0058  -9.0041
 -6.6867  -6.6859  -6.6850  -6.6847  -6.6838  -6.6837  -1.6617  -1.4669
 -1.3696  -1.2254  -1.1441  -1.0741  -1.0227  -0.9906  -0.9608  -0.9048
 -0.8668  -0.8102  -0.7924  -0.7618  -0.7330  -0.7263  -0.7001  -0.6844
 -0.6739  -0.6625  -0.6110  -0.6028  -0.5939  -0.5818  -0.5665  -0.5620
 -0.5311  -0.5172  -0.5131  -0.4885  -0.4756  -0.4728  -0.4698  -0.4404
 -0.3803  -0.3358  -0.2999

          Ground-State Mulliken Net Atomic Charges

     Atom                 Charge (a.u.)
  ----------------------------------------
      1 C                    -0.142004
      2 S                     0.103297
      3 C                    -0.146925
      4 C                     0.087556
      5 C                    -0.124149
      6 S                     0.043479
      7 C                    -0.160882
      8 C                     0.396143
      9 F                    -0.205439
     10 C                     0.448878
     11 O                    -0.464829
     12 O                    -0.301652
     13 C                    -0.058196
     14 H                     0.121225
     15 H                     0.095039
     16 H                     0.094740
     17 C                    -0.365706
     18 H                     0.110049
     19 H                     0.140315
     20 H                     0.112937
     21 H                     0.216124
  ----------------------------------------
  Sum of atomic charges =     0.000000

                    Cartesian Multipole Moments
 -----------------------------------------------------------------
    Charge (ESU x 10^10)
                -0.0000
    Dipole Moment (Debye)
         X       3.5389      Y       0.6020      Z       2.2934
       Tot       4.2598
    Quadrupole Moments (Debye-Ang)
        XX     -90.2959     XY       4.1932     YY     -91.8877
        XZ      -4.2928     YZ      -3.5811     ZZ     -96.1448

 Total job time:  54.20s(wall), 1925.11s(cpu)
        *  Thank you very much for using Q-Chem.  Have a nice day.  *
