 Q-Chem 5.4, Q-Chem, Inc., Pleasanton, CA (2021)
 Q-Chem 5.4.0 for Intel X86 EM64T Linux

User input:
--------------------------------------------------------------
$molecule
0 1
C	-0.090588	-0.987267	0.973565
S	-0.011288	-0.085967	2.481065
C	0.125012	1.480633	1.692465
C	-0.010988	-0.086367	-0.094335
C	0.107812	1.298733	0.287165
S	-0.029388	-0.329267	-1.831935
C	0.117712	1.416233	-2.080935
C	0.177012	2.122133	-0.889035
F	0.288712	3.454033	-0.845535
C	0.158712	1.862433	-3.482535
O	0.099512	1.094833	-4.432935
O	0.268912	3.208433	-3.595635
C	0.317312	3.701233	-4.942635
H	0.406312	4.798633	-4.859535
H	-0.603188	3.427033	-5.496635
H	1.187812	3.280833	-5.485735
C	-0.090588	-2.422467	0.973565
H	-0.083188	-2.430467	2.053465
H	-0.931288	-3.100367	0.973865
H	0.849812	-2.953567	0.966865
H	0.204212	2.401533	2.280065
$end

$rem
JOBTYPE		SP
EXCHANGE	HF
CORRELATION	pRIMP2
BASIS		cc-pvtz
METHOD		rimp2
AUX_BASIS	rimp2-cc-pvtz
SOLVENT_METHOD	PCM
PURECART	11111
SYMMETRY	false
MEM_TOTAL	110000
SCF_CONVERGENCE = 6
THRESH=10
GUI = 2
$end

$solvent
dielectric 4.90
$end
--------------------------------------------------------------

             Standard Nuclear Orientation (Angstroms)
    I     Atom           X                Y                Z
 ----------------------------------------------------------------
    1      C      -0.0905880000    -0.9872670000     0.9735650000
    2      S      -0.0112880000    -0.0859670000     2.4810650000
    3      C       0.1250120000     1.4806330000     1.6924650000
    4      C      -0.0109880000    -0.0863670000    -0.0943350000
    5      C       0.1078120000     1.2987330000     0.2871650000
    6      S      -0.0293880000    -0.3292670000    -1.8319350000
    7      C       0.1177120000     1.4162330000    -2.0809350000
    8      C       0.1770120000     2.1221330000    -0.8890350000
    9      F       0.2887120000     3.4540330000    -0.8455350000
   10      C       0.1587120000     1.8624330000    -3.4825350000
   11      O       0.0995120000     1.0948330000    -4.4329350000
   12      O       0.2689120000     3.2084330000    -3.5956350000
   13      C       0.3173120000     3.7012330000    -4.9426350000
   14      H       0.4063120000     4.7986330000    -4.8595350000
   15      H      -0.6031880000     3.4270330000    -5.4966350000
   16      H       1.1878120000     3.2808330000    -5.4857350000
   17      C      -0.0905880000    -2.4224670000     0.9735650000
   18      H      -0.0831880000    -2.4304670000     2.0534650000
   19      H      -0.9312880000    -3.1003670000     0.9738650000
   20      H       0.8498120000    -2.9535670000     0.9668650000
   21      H       0.2042120000     2.4015330000     2.2800650000
 ----------------------------------------------------------------

   11   -1389.2698239989      4.79e-07  Convergence criterion met
 Total energy in the final basis set =    -1389.2698239989
        RIMP2         total energy =     -1391.7750685414 a.u.

                    Orbital Energies (a.u.)
 --------------------------------------------------------------

 Alpha MOs
 -- Occupied --
-92.0086 -91.9920 -26.3404 -20.6133 -20.5594 -11.4073 -11.3783 -11.3001
-11.2941 -11.2919 -11.2880 -11.2852 -11.2786 -11.2253  -9.0074  -8.9922
 -6.6881  -6.6876  -6.6871  -6.6732  -6.6725  -6.6714  -1.6577  -1.4657
 -1.3683  -1.2122  -1.1369  -1.0647  -1.0199  -0.9951  -0.9587  -0.9124
 -0.8638  -0.8067  -0.7884  -0.7579  -0.7313  -0.7225  -0.6912  -0.6831
 -0.6725  -0.6606  -0.6067  -0.6030  -0.5919  -0.5769  -0.5662  -0.5567
 -0.5401  -0.5299  -0.5074  -0.4791  -0.4734  -0.4711  -0.4651  -0.4610
 -0.3921  -0.3451  -0.2917

          Ground-State Mulliken Net Atomic Charges

     Atom                 Charge (a.u.)
  ----------------------------------------
      1 C                     0.033720
      2 S                     0.076196
      3 C                    -0.210851
      4 C                    -0.004440
      5 C                    -0.093712
      6 S                    -0.004134
      7 C                    -0.158227
      8 C                     0.392193
      9 F                    -0.208775
     10 C                     0.445043
     11 O                    -0.462397
     12 O                    -0.300820
     13 C                    -0.058687
     14 H                     0.121043
     15 H                     0.094789
     16 H                     0.094670
     17 C                    -0.369368
     18 H                     0.110964
     19 H                     0.151671
     20 H                     0.136305
     21 H                     0.214821
  ----------------------------------------
  Sum of atomic charges =     0.000000

                    Cartesian Multipole Moments
 -----------------------------------------------------------------
    Charge (ESU x 10^10)
                -0.0000
    Dipole Moment (Debye)
         X       0.2102      Y       0.6935      Z       3.8378
       Tot       3.9056
    Quadrupole Moments (Debye-Ang)
        XX     -96.1495     XY       1.0749     YY     -81.4494
        XZ      -0.7106     YZ     -11.3943     ZZ     -95.4553

 Total job time:  73.22s(wall), 1973.71s(cpu)
        *  Thank you very much for using Q-Chem.  Have a nice day.  *
