 Q-Chem 5.4, Q-Chem, Inc., Pleasanton, CA (2021)
 Q-Chem 5.4.0 for Intel X86 EM64T Linux

User input:
--------------------------------------------------------------
$molecule
0 1
C	-0.179052	-0.975447	0.973964
S	-0.021452	-0.084547	2.481464
C	0.250848	1.464253	1.692864
C	-0.021252	-0.084847	-0.093936
C	0.217848	1.284553	0.287564
S	-0.060752	-0.325247	-1.831536
C	0.237948	1.400753	-2.080536
C	0.358548	2.098753	-0.888636
F	0.585948	3.415953	-0.845136
C	0.317648	1.841653	-3.482136
O	0.191848	1.082153	-4.432536
O	0.544848	3.172953	-3.595236
C	0.635948	3.659653	-4.942236
H	0.820248	4.745153	-4.859136
H	-0.304952	3.466753	-5.496236
H	1.466448	3.165053	-5.485336
C	-0.179052	-2.410647	0.973964
H	-0.867552	-2.418647	1.806064
H	-0.823252	-3.088547	0.433764
H	0.545548	-2.941747	1.573264
H	0.409948	2.374753	2.280464
$end

$rem
JOBTYPE		SP
EXCHANGE	HF
CORRELATION	pRIMP2
BASIS		cc-pvtz
METHOD		rimp2
AUX_BASIS	rimp2-cc-pvtz
SOLVENT_METHOD	PCM
PURECART	11111
SYMMETRY	false
MEM_TOTAL	110000
SCF_CONVERGENCE = 6
THRESH=10
GUI = 2
$end

$solvent
dielectric 4.90
$end
--------------------------------------------------------------

             Standard Nuclear Orientation (Angstroms)
    I     Atom           X                Y                Z
 ----------------------------------------------------------------
    1      C      -0.1790520000    -0.9754470000     0.9739640000
    2      S      -0.0214520000    -0.0845470000     2.4814640000
    3      C       0.2508480000     1.4642530000     1.6928640000
    4      C      -0.0212520000    -0.0848470000    -0.0939360000
    5      C       0.2178480000     1.2845530000     0.2875640000
    6      S      -0.0607520000    -0.3252470000    -1.8315360000
    7      C       0.2379480000     1.4007530000    -2.0805360000
    8      C       0.3585480000     2.0987530000    -0.8886360000
    9      F       0.5859480000     3.4159530000    -0.8451360000
   10      C       0.3176480000     1.8416530000    -3.4821360000
   11      O       0.1918480000     1.0821530000    -4.4325360000
   12      O       0.5448480000     3.1729530000    -3.5952360000
   13      C       0.6359480000     3.6596530000    -4.9422360000
   14      H       0.8202480000     4.7451530000    -4.8591360000
   15      H      -0.3049520000     3.4667530000    -5.4962360000
   16      H       1.4664480000     3.1650530000    -5.4853360000
   17      C      -0.1790520000    -2.4106470000     0.9739640000
   18      H      -0.8675520000    -2.4186470000     1.8060640000
   19      H      -0.8232520000    -3.0885470000     0.4337640000
   20      H       0.5455480000    -2.9417470000     1.5732640000
   21      H       0.4099480000     2.3747530000     2.2804640000
 ----------------------------------------------------------------

   11   -1389.2690239432      4.95e-07  Convergence criterion met
 Total energy in the final basis set =    -1389.2690239432
        RIMP2         total energy =     -1391.7737461222 a.u.

                    Orbital Energies (a.u.)
 --------------------------------------------------------------

 Alpha MOs
 -- Occupied --
-92.0074 -91.9909 -26.3400 -20.6133 -20.5594 -11.4072 -11.3779 -11.2980
-11.2953 -11.2941 -11.2879 -11.2830 -11.2783 -11.2267  -9.0063  -8.9911
 -6.6871  -6.6866  -6.6860  -6.6722  -6.6715  -6.6703  -1.6573  -1.4656
 -1.3683  -1.2117  -1.1367  -1.0650  -1.0191  -0.9953  -0.9583  -0.9128
 -0.8633  -0.8057  -0.7880  -0.7579  -0.7310  -0.7222  -0.6913  -0.6830
 -0.6724  -0.6602  -0.6106  -0.5979  -0.5910  -0.5789  -0.5647  -0.5565
 -0.5364  -0.5296  -0.5092  -0.4873  -0.4727  -0.4709  -0.4697  -0.4601
 -0.3878  -0.3454  -0.2865

          Ground-State Mulliken Net Atomic Charges

     Atom                 Charge (a.u.)
  ----------------------------------------
      1 C                     0.011686
      2 S                     0.074239
      3 C                    -0.207538
      4 C                     0.007117
      5 C                    -0.100926
      6 S                    -0.008776
      7 C                    -0.158421
      8 C                     0.391180
      9 F                    -0.209169
     10 C                     0.445435
     11 O                    -0.462167
     12 O                    -0.300769
     13 C                    -0.058678
     14 H                     0.121012
     15 H                     0.094717
     16 H                     0.094717
     17 C                    -0.376070
     18 H                     0.122916
     19 H                     0.165803
     20 H                     0.139546
     21 H                     0.214149
  ----------------------------------------
  Sum of atomic charges =     0.000000

                    Cartesian Multipole Moments
 -----------------------------------------------------------------
    Charge (ESU x 10^10)
                -0.0000
    Dipole Moment (Debye)
         X      -0.0671      Y       0.4352      Z       3.7515
       Tot       3.7773
    Quadrupole Moments (Debye-Ang)
        XX     -96.0834     XY       3.2436     YY     -81.3433
        XZ      -1.5753     YZ     -11.1984     ZZ     -95.6006

 Total job time:  55.95s(wall), 1977.13s(cpu)
        *  Thank you very much for using Q-Chem.  Have a nice day.  *
