 Q-Chem 5.4, Q-Chem, Inc., Pleasanton, CA (2021)
 Q-Chem 5.4.0 for Intel X86 EM64T Linux

User input:
--------------------------------------------------------------
$molecule
0 1
C	-0.267104	-0.955820	0.974537
S	-0.032504	-0.082020	2.482037
C	0.373796	1.437180	1.693437
C	-0.032304	-0.082420	-0.093363
C	0.325296	1.260980	0.288137
S	-0.092604	-0.318420	-1.830963
C	0.355496	1.374980	-2.079963
C	0.536396	2.059780	-0.888063
F	0.877696	3.352180	-0.844563
C	0.473196	1.807280	-3.481563
O	0.281696	1.061580	-4.431963
O	0.815596	3.113680	-3.594663
C	0.948696	3.590580	-4.941663
H	1.226996	4.655880	-4.858563
H	-0.005404	3.480480	-5.495663
H	1.732996	3.025480	-5.484763
C	-0.267104	-2.391020	0.974537
H	-1.198604	-2.399020	1.520937
H	-0.687704	-3.068920	0.246637
H	0.208796	-2.922120	1.785537
H	0.611596	2.330280	2.281037
$end

$rem
JOBTYPE		SP
EXCHANGE	HF
CORRELATION	pRIMP2
BASIS		cc-pvtz
METHOD		rimp2
AUX_BASIS	rimp2-cc-pvtz
SOLVENT_METHOD	PCM
PURECART	11111
SYMMETRY	false
MEM_TOTAL	110000
SCF_CONVERGENCE = 6
THRESH=10
GUI = 2
$end

$solvent
dielectric 4.90
$end
--------------------------------------------------------------

             Standard Nuclear Orientation (Angstroms)
    I     Atom           X                Y                Z
 ----------------------------------------------------------------
    1      C      -0.2671040000    -0.9558200000     0.9745370000
    2      S      -0.0325040000    -0.0820200000     2.4820370000
    3      C       0.3737960000     1.4371800000     1.6934370000
    4      C      -0.0323040000    -0.0824200000    -0.0933630000
    5      C       0.3252960000     1.2609800000     0.2881370000
    6      S      -0.0926040000    -0.3184200000    -1.8309630000
    7      C       0.3554960000     1.3749800000    -2.0799630000
    8      C       0.5363960000     2.0597800000    -0.8880630000
    9      F       0.8776960000     3.3521800000    -0.8445630000
   10      C       0.4731960000     1.8072800000    -3.4815630000
   11      O       0.2816960000     1.0615800000    -4.4319630000
   12      O       0.8155960000     3.1136800000    -3.5946630000
   13      C       0.9486960000     3.5905800000    -4.9416630000
   14      H       1.2269960000     4.6558800000    -4.8585630000
   15      H      -0.0054040000     3.4804800000    -5.4956630000
   16      H       1.7329960000     3.0254800000    -5.4847630000
   17      C      -0.2671040000    -2.3910200000     0.9745370000
   18      H      -1.1986040000    -2.3990200000     1.5209370000
   19      H      -0.6877040000    -3.0689200000     0.2466370000
   20      H       0.2087960000    -2.9221200000     1.7855370000
   21      H       0.6115960000     2.3302800000     2.2810370000
 ----------------------------------------------------------------

   11   -1389.2660494575      5.03e-07  Convergence criterion met
 Total energy in the final basis set =    -1389.2660494575
        RIMP2         total energy =     -1391.7710578633 a.u.

                    Orbital Energies (a.u.)
 --------------------------------------------------------------

 Alpha MOs
 -- Occupied --
-92.0066 -91.9904 -26.3397 -20.6133 -20.5594 -11.4071 -11.3775 -11.2974
-11.2959 -11.2940 -11.2879 -11.2816 -11.2781 -11.2276  -9.0055  -8.9906
 -6.6864  -6.6858  -6.6853  -6.6716  -6.6709  -6.6698  -1.6570  -1.4656
 -1.3682  -1.2114  -1.1365  -1.0654  -1.0186  -0.9953  -0.9580  -0.9129
 -0.8630  -0.8051  -0.7878  -0.7579  -0.7306  -0.7219  -0.6916  -0.6830
 -0.6724  -0.6599  -0.6119  -0.5954  -0.5894  -0.5811  -0.5632  -0.5573
 -0.5326  -0.5284  -0.5120  -0.4946  -0.4721  -0.4712  -0.4706  -0.4595
 -0.3847  -0.3453  -0.2827

          Ground-State Mulliken Net Atomic Charges

     Atom                 Charge (a.u.)
  ----------------------------------------
      1 C                     0.008575
      2 S                     0.072699
      3 C                    -0.212699
      4 C                     0.003740
      5 C                    -0.100757
      6 S                    -0.010876
      7 C                    -0.157364
      8 C                     0.390600
      9 F                    -0.209312
     10 C                     0.445972
     11 O                    -0.462055
     12 O                    -0.300737
     13 C                    -0.058548
     14 H                     0.120999
     15 H                     0.094680
     16 H                     0.094668
     17 C                    -0.382184
     18 H                     0.135483
     19 H                     0.167584
     20 H                     0.145552
     21 H                     0.213982
  ----------------------------------------
  Sum of atomic charges =     0.000000

                    Cartesian Multipole Moments
 -----------------------------------------------------------------
    Charge (ESU x 10^10)
                -0.0000
    Dipole Moment (Debye)
         X      -0.0924      Y       0.2130      Z       3.6173
       Tot       3.6247
    Quadrupole Moments (Debye-Ang)
        XX     -95.8079     XY       4.5774     YY     -81.5602
        XZ      -2.5534     YZ     -10.8381     ZZ     -95.7929

 Total job time:  57.19s(wall), 1943.92s(cpu)
        *  Thank you very much for using Q-Chem.  Have a nice day.  *
