 Q-Chem 5.4, Q-Chem, Inc., Pleasanton, CA (2021)
 Q-Chem 5.4.0 for Intel X86 EM64T Linux

User input:
--------------------------------------------------------------
$molecule
0 1
C	0.002294	-0.991205	0.977246
S	0.002794	-0.086405	2.484746
C	0.001994	1.486095	1.696146
C	0.003094	-0.086805	-0.090654
C	0.000694	1.303395	0.290846
S	0.005894	-0.330305	-1.828254
C	0.000394	1.421295	-2.077254
C	-0.002106	2.129695	-0.885354
F	-0.006906	3.466295	-0.841854
C	0.002294	1.869395	-3.478854
O	0.010194	1.099495	-4.429254
O	-0.005206	3.219895	-3.591954
C	-0.000006	3.714995	-4.938954
H	-0.007006	4.815995	-4.855854
H	-0.893106	3.361695	-5.492954
H	0.903794	3.372095	-5.482054
C	0.002294	-2.426405	0.977246
H	-0.829806	-2.434405	0.288746
H	0.542494	-3.104305	0.333046
H	-0.597006	-2.957505	1.701846
H	0.000594	2.410395	2.283746
$end

$rem
JOBTYPE		SP
EXCHANGE	HF
CORRELATION	pRIMP2
BASIS		cc-pvtz
METHOD		rimp2
AUX_BASIS	rimp2-cc-pvtz
SOLVENT_METHOD	PCM
PURECART	11111
SYMMETRY	false
MEM_TOTAL	110000
SCF_CONVERGENCE = 6
THRESH=10
GUI = 2
$end

$solvent
dielectric 4.90
$end
--------------------------------------------------------------

             Standard Nuclear Orientation (Angstroms)
    I     Atom           X                Y                Z
 ----------------------------------------------------------------
    1      C       0.0022940000    -0.9912050000     0.9772460000
    2      S       0.0027940000    -0.0864050000     2.4847460000
    3      C       0.0019940000     1.4860950000     1.6961460000
    4      C       0.0030940000    -0.0868050000    -0.0906540000
    5      C       0.0006940000     1.3033950000     0.2908460000
    6      S       0.0058940000    -0.3303050000    -1.8282540000
    7      C       0.0003940000     1.4212950000    -2.0772540000
    8      C      -0.0021060000     2.1296950000    -0.8853540000
    9      F      -0.0069060000     3.4662950000    -0.8418540000
   10      C       0.0022940000     1.8693950000    -3.4788540000
   11      O       0.0101940000     1.0994950000    -4.4292540000
   12      O      -0.0052060000     3.2198950000    -3.5919540000
   13      C      -0.0000060000     3.7149950000    -4.9389540000
   14      H      -0.0070060000     4.8159950000    -4.8558540000
   15      H      -0.8931060000     3.3616950000    -5.4929540000
   16      H       0.9037940000     3.3720950000    -5.4820540000
   17      C       0.0022940000    -2.4264050000     0.9772460000
   18      H      -0.8298060000    -2.4344050000     0.2887460000
   19      H       0.5424940000    -3.1043050000     0.3330460000
   20      H      -0.5970060000    -2.9575050000     1.7018460000
   21      H       0.0005940000     2.4103950000     2.2837460000
 ----------------------------------------------------------------

   11   -1389.2734225345      4.92e-07  Convergence criterion met
 Total energy in the final basis set =    -1389.2734225345
        RIMP2         total energy =     -1391.7784575129 a.u.

                    Orbital Energies (a.u.)
 --------------------------------------------------------------

 Alpha MOs
 -- Occupied --
-92.0057 -91.9922 -26.3404 -20.6136 -20.5596 -11.4075 -11.3785 -11.2999
-11.2945 -11.2940 -11.2881 -11.2831 -11.2786 -11.2290  -9.0044  -8.9923
 -6.6852  -6.6846  -6.6841  -6.6733  -6.6726  -6.6715  -1.6576  -1.4659
 -1.3685  -1.2119  -1.1356  -1.0672  -1.0182  -0.9956  -0.9579  -0.9136
 -0.8630  -0.8044  -0.7884  -0.7587  -0.7300  -0.7225  -0.6935  -0.6833
 -0.6727  -0.6605  -0.6121  -0.5961  -0.5898  -0.5825  -0.5644  -0.5579
 -0.5374  -0.5297  -0.5077  -0.4934  -0.4731  -0.4713  -0.4682  -0.4607
 -0.3858  -0.3445  -0.2855

          Ground-State Mulliken Net Atomic Charges

     Atom                 Charge (a.u.)
  ----------------------------------------
      1 C                     0.056342
      2 S                     0.075443
      3 C                    -0.218403
      4 C                    -0.025820
      5 C                    -0.092230
      6 S                    -0.013091
      7 C                    -0.155949
      8 C                     0.384970
      9 F                    -0.208422
     10 C                     0.445631
     11 O                    -0.462576
     12 O                    -0.300704
     13 C                    -0.058671
     14 H                     0.121161
     15 H                     0.094713
     16 H                     0.094726
     17 C                    -0.385095
     18 H                     0.129052
     19 H                     0.158901
     20 H                     0.147758
     21 H                     0.212263
  ----------------------------------------
  Sum of atomic charges =     0.000000

                    Cartesian Multipole Moments
 -----------------------------------------------------------------
    Charge (ESU x 10^10)
                -0.0000
    Dipole Moment (Debye)
         X      -0.5550      Y       0.2219      Z       2.8512
       Tot       2.9132
    Quadrupole Moments (Debye-Ang)
        XX     -96.6976     XY       1.4300     YY     -80.7124
        XZ      -0.8368     YZ      -9.4407     ZZ     -97.3793

 Total job time:  55.21s(wall), 1973.04s(cpu)
        *  Thank you very much for using Q-Chem.  Have a nice day.  *
