 Q-Chem 5.4, Q-Chem, Inc., Pleasanton, CA (2021)
 Q-Chem 5.4.0 for Intel X86 EM64T Linux

User input:
--------------------------------------------------------------
$molecule
0 1
C	-0.795328	-0.619704	0.977564
S	-0.101928	-0.038504	2.485064
C	1.102172	0.972896	1.696464
C	-0.102028	-0.038904	-0.090336
C	0.961472	0.856396	0.291164
S	-0.286728	-0.197704	-1.827936
C	1.051572	0.932496	-2.076936
C	1.592572	1.389696	-0.885036
F	2.613372	2.252596	-0.841536
C	1.395972	1.219096	-3.478536
O	0.811372	0.718096	-4.428936
O	2.425772	2.092896	-3.591636
C	2.808372	2.407096	-4.938636
H	3.647272	3.120196	-4.855536
H	1.963672	2.864196	-5.492636
H	3.126672	1.494396	-5.481736
C	-0.795328	-2.054904	0.977564
H	-1.495228	-2.062904	0.155064
H	-0.151428	-2.732804	0.436964
H	-1.511428	-2.586004	1.587164
H	1.809372	1.568096	2.284064
$end

$rem
JOBTYPE		SP
EXCHANGE	HF
CORRELATION	pRIMP2
BASIS		cc-pvtz
METHOD		rimp2
AUX_BASIS	rimp2-cc-pvtz
SOLVENT_METHOD	PCM
PURECART	11111
SYMMETRY	false
MEM_TOTAL	110000
SCF_CONVERGENCE = 6
THRESH=10
GUI = 2
$end

$solvent
dielectric 4.90
$end
--------------------------------------------------------------

             Standard Nuclear Orientation (Angstroms)
    I     Atom           X                Y                Z
 ----------------------------------------------------------------
    1      C      -0.7953280000    -0.6197040000     0.9775640000
    2      S      -0.1019280000    -0.0385040000     2.4850640000
    3      C       1.1021720000     0.9728960000     1.6964640000
    4      C      -0.1020280000    -0.0389040000    -0.0903360000
    5      C       0.9614720000     0.8563960000     0.2911640000
    6      S      -0.2867280000    -0.1977040000    -1.8279360000
    7      C       1.0515720000     0.9324960000    -2.0769360000
    8      C       1.5925720000     1.3896960000    -0.8850360000
    9      F       2.6133720000     2.2525960000    -0.8415360000
   10      C       1.3959720000     1.2190960000    -3.4785360000
   11      O       0.8113720000     0.7180960000    -4.4289360000
   12      O       2.4257720000     2.0928960000    -3.5916360000
   13      C       2.8083720000     2.4070960000    -4.9386360000
   14      H       3.6472720000     3.1201960000    -4.8555360000
   15      H       1.9636720000     2.8641960000    -5.4926360000
   16      H       3.1266720000     1.4943960000    -5.4817360000
   17      C      -0.7953280000    -2.0549040000     0.9775640000
   18      H      -1.4952280000    -2.0629040000     0.1550640000
   19      H      -0.1514280000    -2.7328040000     0.4369640000
   20      H      -1.5114280000    -2.5860040000     1.5871640000
   21      H       1.8093720000     1.5680960000     2.2840640000
 ----------------------------------------------------------------

   11   -1389.2234477030      5.18e-07  Convergence criterion met
 Total energy in the final basis set =    -1389.2234477030
        RIMP2         total energy =     -1391.7379193742 a.u.

                    Orbital Energies (a.u.)
 --------------------------------------------------------------

 Alpha MOs
 -- Occupied --
-92.0015 -91.9991 -26.3432 -20.6142 -20.5602 -11.4086 -11.3826 -11.3171
-11.3031 -11.2950 -11.2887 -11.2812 -11.2674 -11.2170  -9.0013  -8.9990
 -6.6823  -6.6815  -6.6805  -6.6797  -6.6787  -6.6785  -1.6604  -1.4667
 -1.3693  -1.2194  -1.1393  -1.0688  -1.0209  -0.9920  -0.9596  -0.9103
 -0.8655  -0.8082  -0.7909  -0.7605  -0.7313  -0.7251  -0.6968  -0.6841
 -0.6735  -0.6617  -0.6114  -0.5995  -0.5928  -0.5772  -0.5625  -0.5582
 -0.5316  -0.5270  -0.5086  -0.4931  -0.4764  -0.4726  -0.4701  -0.4382
 -0.3823  -0.3450  -0.2935

          Ground-State Mulliken Net Atomic Charges

     Atom                 Charge (a.u.)
  ----------------------------------------
      1 C                    -0.083525
      2 S                     0.087204
      3 C                    -0.157747
      4 C                     0.039003
      5 C                    -0.110059
      6 S                     0.029082
      7 C                    -0.157699
      8 C                     0.392870
      9 F                    -0.206304
     10 C                     0.447625
     11 O                    -0.463733
     12 O                    -0.301383
     13 C                    -0.058349
     14 H                     0.121212
     15 H                     0.094930
     16 H                     0.094794
     17 C                    -0.381925
     18 H                     0.115582
     19 H                     0.148941
     20 H                     0.135970
     21 H                     0.213511
  ----------------------------------------
  Sum of atomic charges =     0.000000

                    Cartesian Multipole Moments
 -----------------------------------------------------------------
    Charge (ESU x 10^10)
                -0.0000
    Dipole Moment (Debye)
         X       2.1090      Y       0.7325      Z       2.3756
       Tot       3.2601
    Quadrupole Moments (Debye-Ang)
        XX     -90.3792     XY       6.5633     YY     -89.2772
        XZ      -5.5979     YZ      -4.8768     ZZ     -96.9032

 Total job time:  64.37s(wall), 2051.16s(cpu)
        *  Thank you very much for using Q-Chem.  Have a nice day.  *
