 Q-Chem 5.4, Q-Chem, Inc., Pleasanton, CA (2021)
 Q-Chem 5.4.0 for Intel X86 EM64T Linux

User input:
--------------------------------------------------------------
$molecule
0 1
C	-0.267071	-0.955820	0.977246
S	-0.032471	-0.082020	2.484746
C	0.373829	1.437180	1.696146
C	-0.032271	-0.082420	-0.090654
C	0.325329	1.260980	0.290846
S	-0.092571	-0.318420	-1.828254
C	0.355529	1.374980	-2.077254
C	0.536429	2.059780	-0.885354
F	0.877729	3.352180	-0.841854
C	0.473229	1.807280	-3.478854
O	0.281729	1.061580	-4.429254
O	0.815629	3.113680	-3.591954
C	0.948729	3.590580	-4.938954
H	1.227029	4.655880	-4.855854
H	-0.005371	3.480480	-5.492954
H	1.733029	3.025480	-5.482054
C	-0.267071	-2.391020	0.977246
H	-1.099171	-2.399020	0.288746
H	0.273129	-3.068920	0.333046
H	-0.866371	-2.922120	1.701846
H	0.611629	2.330280	2.283746
$end

$rem
JOBTYPE		SP
EXCHANGE	HF
CORRELATION	pRIMP2
BASIS		cc-pvtz
METHOD		rimp2
AUX_BASIS	rimp2-cc-pvtz
SOLVENT_METHOD	PCM
PURECART	11111
SYMMETRY	false
MEM_TOTAL	110000
SCF_CONVERGENCE = 6
THRESH=10
GUI = 2
$end

$solvent
dielectric 4.90
$end
--------------------------------------------------------------

             Standard Nuclear Orientation (Angstroms)
    I     Atom           X                Y                Z
 ----------------------------------------------------------------
    1      C      -0.2670710000    -0.9558200000     0.9772460000
    2      S      -0.0324710000    -0.0820200000     2.4847460000
    3      C       0.3738290000     1.4371800000     1.6961460000
    4      C      -0.0322710000    -0.0824200000    -0.0906540000
    5      C       0.3253290000     1.2609800000     0.2908460000
    6      S      -0.0925710000    -0.3184200000    -1.8282540000
    7      C       0.3555290000     1.3749800000    -2.0772540000
    8      C       0.5364290000     2.0597800000    -0.8853540000
    9      F       0.8777290000     3.3521800000    -0.8418540000
   10      C       0.4732290000     1.8072800000    -3.4788540000
   11      O       0.2817290000     1.0615800000    -4.4292540000
   12      O       0.8156290000     3.1136800000    -3.5919540000
   13      C       0.9487290000     3.5905800000    -4.9389540000
   14      H       1.2270290000     4.6558800000    -4.8558540000
   15      H      -0.0053710000     3.4804800000    -5.4929540000
   16      H       1.7330290000     3.0254800000    -5.4820540000
   17      C      -0.2670710000    -2.3910200000     0.9772460000
   18      H      -1.0991710000    -2.3990200000     0.2887460000
   19      H       0.2731290000    -3.0689200000     0.3330460000
   20      H      -0.8663710000    -2.9221200000     1.7018460000
   21      H       0.6116290000     2.3302800000     2.2837460000
 ----------------------------------------------------------------

   11   -1389.2681808865      4.81e-07  Convergence criterion met
 Total energy in the final basis set =    -1389.2681808865
        RIMP2         total energy =     -1391.7745538003 a.u.

                    Orbital Energies (a.u.)
 --------------------------------------------------------------

 Alpha MOs
 -- Occupied --
-92.0043 -91.9930 -26.3407 -20.6136 -20.5596 -11.4076 -11.3788 -11.2965
-11.2963 -11.2945 -11.2882 -11.2856 -11.2788 -11.2273  -9.0033  -8.9931
 -6.6841  -6.6834  -6.6829  -6.6741  -6.6734  -6.6723  -1.6578  -1.4659
 -1.3685  -1.2125  -1.1356  -1.0669  -1.0184  -0.9953  -0.9580  -0.9137
 -0.8632  -0.8047  -0.7886  -0.7588  -0.7299  -0.7227  -0.6936  -0.6833
 -0.6727  -0.6606  -0.6119  -0.5962  -0.5902  -0.5810  -0.5639  -0.5574
 -0.5378  -0.5296  -0.5074  -0.4937  -0.4736  -0.4714  -0.4690  -0.4569
 -0.3856  -0.3446  -0.2859

          Ground-State Mulliken Net Atomic Charges

     Atom                 Charge (a.u.)
  ----------------------------------------
      1 C                     0.041482
      2 S                     0.078654
      3 C                    -0.213157
      4 C                    -0.038752
      5 C                    -0.086560
      6 S                    -0.007747
      7 C                    -0.155389
      8 C                     0.385303
      9 F                    -0.208200
     10 C                     0.445564
     11 O                    -0.462514
     12 O                    -0.300833
     13 C                    -0.058473
     14 H                     0.121111
     15 H                     0.094723
     16 H                     0.094687
     17 C                    -0.378329
     18 H                     0.129744
     19 H                     0.159796
     20 H                     0.146952
     21 H                     0.211937
  ----------------------------------------
  Sum of atomic charges =     0.000000

                    Cartesian Multipole Moments
 -----------------------------------------------------------------
    Charge (ESU x 10^10)
                -0.0000
    Dipole Moment (Debye)
         X      -0.0086      Y       0.3213      Z       2.8009
       Tot       2.8193
    Quadrupole Moments (Debye-Ang)
        XX     -95.7025     XY       4.3085     YY     -81.7135
        XZ      -2.9784     YZ      -8.9376     ZZ     -97.3662

 Total job time:  55.20s(wall), 1916.10s(cpu)
        *  Thank you very much for using Q-Chem.  Have a nice day.  *
