 Q-Chem 5.4, Q-Chem, Inc., Pleasanton, CA (2021)
 Q-Chem 5.4.0 for Intel X86 EM64T Linux

User input:
--------------------------------------------------------------
$molecule
0 1
C	-0.517773	-0.851940	0.976498
S	-0.064973	-0.068640	2.483998
C	0.720627	1.293660	1.695398
C	-0.064873	-0.069040	-0.091402
C	0.628127	1.136060	0.290098
S	-0.184173	-0.281440	-1.829002
C	0.686827	1.238360	-2.078002
C	1.038827	1.852960	-0.886102
F	1.703027	3.012960	-0.842602
C	0.912527	1.625360	-3.479602
O	0.534427	0.954660	-4.430002
O	1.581227	2.798760	-3.592702
C	1.833327	3.224860	-4.939702
H	2.377827	4.181860	-4.856602
H	0.883227	3.365460	-5.493702
H	2.444627	2.476060	-5.482802
C	-0.517773	-2.287140	0.976498
H	-1.535173	-2.295140	0.614098
H	-0.230473	-2.965040	0.186398
H	-0.833173	-2.818240	1.862398
H	1.181527	2.094760	2.282998
$end

$rem
JOBTYPE		SP
EXCHANGE	HF
CORRELATION	pRIMP2
BASIS		cc-pvtz
METHOD		rimp2
AUX_BASIS	rimp2-cc-pvtz
SOLVENT_METHOD	PCM
PURECART	11111
SYMMETRY	false
MEM_TOTAL	110000
SCF_CONVERGENCE = 6
THRESH=10
GUI = 2
$end

$solvent
dielectric 4.90
$end
--------------------------------------------------------------

             Standard Nuclear Orientation (Angstroms)
    I     Atom           X                Y                Z
 ----------------------------------------------------------------
    1      C      -0.5177730000    -0.8519400000     0.9764980000
    2      S      -0.0649730000    -0.0686400000     2.4839980000
    3      C       0.7206270000     1.2936600000     1.6953980000
    4      C      -0.0648730000    -0.0690400000    -0.0914020000
    5      C       0.6281270000     1.1360600000     0.2900980000
    6      S      -0.1841730000    -0.2814400000    -1.8290020000
    7      C       0.6868270000     1.2383600000    -2.0780020000
    8      C       1.0388270000     1.8529600000    -0.8861020000
    9      F       1.7030270000     3.0129600000    -0.8426020000
   10      C       0.9125270000     1.6253600000    -3.4796020000
   11      O       0.5344270000     0.9546600000    -4.4300020000
   12      O       1.5812270000     2.7987600000    -3.5927020000
   13      C       1.8333270000     3.2248600000    -4.9397020000
   14      H       2.3778270000     4.1818600000    -4.8566020000
   15      H       0.8832270000     3.3654600000    -5.4937020000
   16      H       2.4446270000     2.4760600000    -5.4828020000
   17      C      -0.5177730000    -2.2871400000     0.9764980000
   18      H      -1.5351730000    -2.2951400000     0.6140980000
   19      H      -0.2304730000    -2.9650400000     0.1863980000
   20      H      -0.8331730000    -2.8182400000     1.8623980000
   21      H       1.1815270000     2.0947600000     2.2829980000
 ----------------------------------------------------------------

   11   -1389.2510925075      4.77e-07  Convergence criterion met
 Total energy in the final basis set =    -1389.2510925075
        RIMP2         total energy =     -1391.7607122868 a.u.

                    Orbital Energies (a.u.)
 --------------------------------------------------------------

 Alpha MOs
 -- Occupied --
-92.0036 -91.9939 -26.3408 -20.6136 -20.5596 -11.4076 -11.3790 -11.2993
-11.2943 -11.2907 -11.2881 -11.2870 -11.2789 -11.2241  -9.0027  -8.9939
 -6.6835  -6.6828  -6.6823  -6.6750  -6.6743  -6.6732  -1.6580  -1.4659
 -1.3685  -1.2132  -1.1364  -1.0661  -1.0187  -0.9943  -0.9582  -0.9127
 -0.8634  -0.8053  -0.7886  -0.7587  -0.7298  -0.7228  -0.6933  -0.6833
 -0.6727  -0.6601  -0.6122  -0.5949  -0.5899  -0.5781  -0.5621  -0.5588
 -0.5343  -0.5284  -0.5075  -0.4990  -0.4740  -0.4714  -0.4706  -0.4540
 -0.3814  -0.3445  -0.2830

          Ground-State Mulliken Net Atomic Charges

     Atom                 Charge (a.u.)
  ----------------------------------------
      1 C                     0.007220
      2 S                     0.086043
      3 C                    -0.210265
      4 C                    -0.032185
      5 C                    -0.082911
      6 S                    -0.000687
      7 C                    -0.156328
      8 C                     0.390189
      9 F                    -0.208016
     10 C                     0.446405
     11 O                    -0.462691
     12 O                    -0.301000
     13 C                    -0.058464
     14 H                     0.121121
     15 H                     0.094740
     16 H                     0.094685
     17 C                    -0.386491
     18 H                     0.139611
     19 H                     0.163999
     20 H                     0.143447
     21 H                     0.211579
  ----------------------------------------
  Sum of atomic charges =     0.000000

                    Cartesian Multipole Moments
 -----------------------------------------------------------------
    Charge (ESU x 10^10)
                -0.0000
    Dipole Moment (Debye)
         X       0.4698      Y       0.2974      Z       2.9457
       Tot       2.9977
    Quadrupole Moments (Debye-Ang)
        XX     -93.7320     XY       6.6417     YY     -84.2293
        XZ      -4.9118     YZ      -8.3212     ZZ     -96.6918

 Total job time:  58.37s(wall), 2025.77s(cpu)
        *  Thank you very much for using Q-Chem.  Have a nice day.  *
