 Q-Chem 5.4, Q-Chem, Inc., Pleasanton, CA (2021)
 Q-Chem 5.4.0 for Intel X86 EM64T Linux

User input:
--------------------------------------------------------------
$molecule
0 1
C	-0.670388	-0.747937	0.974266
S	-0.088488	-0.055137	2.481766
C	0.921812	1.149963	1.693166
C	-0.088488	-0.055537	-0.093634
C	0.803312	1.010863	0.287866
S	-0.242788	-0.244037	-1.831234
C	0.878912	1.101463	-2.080234
C	1.332312	1.645563	-0.888334
F	2.187812	2.672563	-0.844834
C	1.168312	1.443363	-3.481834
O	0.679612	0.848563	-4.432234
O	2.030712	2.482763	-3.594934
C	2.352912	2.858663	-4.941934
H	3.055312	3.706563	-4.858834
H	1.441712	3.162063	-5.495934
H	2.824912	2.015063	-5.485034
C	-0.670388	-2.183137	0.974266
H	0.029512	-2.191137	1.796766
H	-1.314288	-2.861037	1.514866
H	0.045712	-2.714237	0.364666
H	1.514812	1.858863	2.280766
$end

$rem
JOBTYPE		SP
EXCHANGE	HF
CORRELATION	pRIMP2
BASIS		cc-pvtz
METHOD		rimp2
AUX_BASIS	rimp2-cc-pvtz
SOLVENT_METHOD	PCM
PURECART	11111
SYMMETRY	false
MEM_TOTAL	110000
SCF_CONVERGENCE = 6
THRESH=10
GUI = 2
$end

$solvent
dielectric 4.90
$end
--------------------------------------------------------------

             Standard Nuclear Orientation (Angstroms)
    I     Atom           X                Y                Z
 ----------------------------------------------------------------
    1      C      -0.6703880000    -0.7479370000     0.9742660000
    2      S      -0.0884880000    -0.0551370000     2.4817660000
    3      C       0.9218120000     1.1499630000     1.6931660000
    4      C      -0.0884880000    -0.0555370000    -0.0936340000
    5      C       0.8033120000     1.0108630000     0.2878660000
    6      S      -0.2427880000    -0.2440370000    -1.8312340000
    7      C       0.8789120000     1.1014630000    -2.0802340000
    8      C       1.3323120000     1.6455630000    -0.8883340000
    9      F       2.1878120000     2.6725630000    -0.8448340000
   10      C       1.1683120000     1.4433630000    -3.4818340000
   11      O       0.6796120000     0.8485630000    -4.4322340000
   12      O       2.0307120000     2.4827630000    -3.5949340000
   13      C       2.3529120000     2.8586630000    -4.9419340000
   14      H       3.0553120000     3.7065630000    -4.8588340000
   15      H       1.4417120000     3.1620630000    -5.4959340000
   16      H       2.8249120000     2.0150630000    -5.4850340000
   17      C      -0.6703880000    -2.1831370000     0.9742660000
   18      H       0.0295120000    -2.1911370000     1.7967660000
   19      H      -1.3142880000    -2.8610370000     1.5148660000
   20      H       0.0457120000    -2.7142370000     0.3646660000
   21      H       1.5148120000     1.8588630000     2.2807660000
 ----------------------------------------------------------------

   11   -1389.2368595547      5.35e-07  Convergence criterion met
 Total energy in the final basis set =    -1389.2368595547
        RIMP2         total energy =     -1391.7473217692 a.u.

                    Orbital Energies (a.u.)
 --------------------------------------------------------------

 Alpha MOs
 -- Occupied --
-92.0013 -91.9950 -26.3417 -20.6136 -20.5597 -11.4076 -11.3805 -11.3094
-11.2941 -11.2932 -11.2882 -11.2832 -11.2794 -11.2203  -9.0014  -8.9951
 -6.6821  -6.6813  -6.6810  -6.6761  -6.6754  -6.6743  -1.6590  -1.4660
 -1.3686  -1.2167  -1.1408  -1.0667  -1.0211  -0.9920  -0.9596  -0.9082
 -0.8650  -0.8087  -0.7895  -0.7588  -0.7324  -0.7237  -0.6934  -0.6834
 -0.6729  -0.6606  -0.6100  -0.6026  -0.5933  -0.5717  -0.5641  -0.5560
 -0.5344  -0.5297  -0.5114  -0.4929  -0.4752  -0.4717  -0.4709  -0.4452
 -0.3863  -0.3456  -0.2876

          Ground-State Mulliken Net Atomic Charges

     Atom                 Charge (a.u.)
  ----------------------------------------
      1 C                    -0.006617
      2 S                     0.074863
      3 C                    -0.182031
      4 C                    -0.020457
      5 C                    -0.088571
      6 S                     0.011871
      7 C                    -0.155809
      8 C                     0.388993
      9 F                    -0.207530
     10 C                     0.446488
     11 O                    -0.462825
     12 O                    -0.301314
     13 C                    -0.058483
     14 H                     0.121014
     15 H                     0.094919
     16 H                     0.094610
     17 C                    -0.381455
     18 H                     0.131068
     19 H                     0.143019
     20 H                     0.144359
     21 H                     0.213887
  ----------------------------------------
  Sum of atomic charges =     0.000000

                    Cartesian Multipole Moments
 -----------------------------------------------------------------
    Charge (ESU x 10^10)
                -0.0000
    Dipole Moment (Debye)
         X       2.2256      Y       0.5539      Z       3.5541
       Tot       4.2299
    Quadrupole Moments (Debye-Ang)
        XX     -93.1198     XY       4.6527     YY     -86.8576
        XZ      -4.9610     YZ      -8.6044     ZZ     -95.3506

 Total job time:  59.05s(wall), 2035.22s(cpu)
        *  Thank you very much for using Q-Chem.  Have a nice day.  *
