 Q-Chem 5.4, Q-Chem, Inc., Pleasanton, CA (2021)
 Q-Chem 5.4.0 for Intel X86 EM64T Linux

User input:
--------------------------------------------------------------
$molecule
0 1
C	-0.668464	-0.747937	0.978264
S	-0.086564	-0.055137	2.485764
C	0.923736	1.149963	1.697164
C	-0.086564	-0.055537	-0.089636
C	0.805236	1.010863	0.291864
S	-0.240864	-0.244037	-1.827236
C	0.880836	1.101463	-2.076236
C	1.334236	1.645563	-0.884336
F	2.189736	2.672563	-0.840836
C	1.170236	1.443363	-3.477836
O	0.681536	0.848563	-4.428236
O	2.032636	2.482763	-3.590936
C	2.354836	2.858663	-4.937936
H	3.057236	3.706563	-4.854836
H	1.443636	3.162063	-5.491936
H	2.826836	2.015063	-5.481036
C	-0.668464	-2.183137	0.978264
H	-0.675864	-2.191137	-0.101636
H	0.172236	-2.861037	0.977964
H	-1.608864	-2.714237	0.984964
H	1.516736	1.858863	2.284764
$end

$rem
JOBTYPE		SP
EXCHANGE	HF
CORRELATION	pRIMP2
BASIS		cc-pvtz
METHOD		rimp2
AUX_BASIS	rimp2-cc-pvtz
SOLVENT_METHOD	PCM
PURECART	11111
SYMMETRY	false
MEM_TOTAL	110000
SCF_CONVERGENCE = 6
THRESH=10
GUI = 2
$end

$solvent
dielectric 4.90
$end
--------------------------------------------------------------

             Standard Nuclear Orientation (Angstroms)
    I     Atom           X                Y                Z
 ----------------------------------------------------------------
    1      C      -0.6684640000    -0.7479370000     0.9782640000
    2      S      -0.0865640000    -0.0551370000     2.4857640000
    3      C       0.9237360000     1.1499630000     1.6971640000
    4      C      -0.0865640000    -0.0555370000    -0.0896360000
    5      C       0.8052360000     1.0108630000     0.2918640000
    6      S      -0.2408640000    -0.2440370000    -1.8272360000
    7      C       0.8808360000     1.1014630000    -2.0762360000
    8      C       1.3342360000     1.6455630000    -0.8843360000
    9      F       2.1897360000     2.6725630000    -0.8408360000
   10      C       1.1702360000     1.4433630000    -3.4778360000
   11      O       0.6815360000     0.8485630000    -4.4282360000
   12      O       2.0326360000     2.4827630000    -3.5909360000
   13      C       2.3548360000     2.8586630000    -4.9379360000
   14      H       3.0572360000     3.7065630000    -4.8548360000
   15      H       1.4436360000     3.1620630000    -5.4919360000
   16      H       2.8268360000     2.0150630000    -5.4810360000
   17      C      -0.6684640000    -2.1831370000     0.9782640000
   18      H      -0.6758640000    -2.1911370000    -0.1016360000
   19      H       0.1722360000    -2.8610370000     0.9779640000
   20      H      -1.6088640000    -2.7142370000     0.9849640000
   21      H       1.5167360000     1.8588630000     2.2847640000
 ----------------------------------------------------------------

   11   -1389.2405711258      4.80e-07  Convergence criterion met
 Total energy in the final basis set =    -1389.2405711258
        RIMP2         total energy =     -1391.7527835354 a.u.

                    Orbital Energies (a.u.)
 --------------------------------------------------------------

 Alpha MOs
 -- Occupied --
-92.0012 -91.9990 -26.3428 -20.6141 -20.5601 -11.4084 -11.3821 -11.3120
-11.2987 -11.2949 -11.2886 -11.2801 -11.2768 -11.2195  -9.0007  -8.9991
 -6.6815  -6.6807  -6.6804  -6.6800  -6.6793  -6.6783  -1.6599  -1.4665
 -1.3692  -1.2179  -1.1381  -1.0694  -1.0203  -0.9923  -0.9593  -0.9114
 -0.8649  -0.8074  -0.7905  -0.7603  -0.7306  -0.7246  -0.6965  -0.6840
 -0.6734  -0.6616  -0.6076  -0.6036  -0.5922  -0.5841  -0.5640  -0.5590
 -0.5306  -0.5279  -0.5095  -0.4879  -0.4745  -0.4725  -0.4673  -0.4394
 -0.3911  -0.3441  -0.2971

          Ground-State Mulliken Net Atomic Charges

     Atom                 Charge (a.u.)
  ----------------------------------------
      1 C                    -0.053409
      2 S                     0.083525
      3 C                    -0.176105
      4 C                     0.008851
      5 C                    -0.090894
      6 S                     0.012797
      7 C                    -0.157314
      8 C                     0.391287
      9 F                    -0.206430
     10 C                     0.447228
     11 O                    -0.463423
     12 O                    -0.301446
     13 C                    -0.058403
     14 H                     0.121168
     15 H                     0.094948
     16 H                     0.094712
     17 C                    -0.344543
     18 H                     0.106824
     19 H                     0.152862
     20 H                     0.124218
     21 H                     0.213548
  ----------------------------------------
  Sum of atomic charges =     0.000000

                    Cartesian Multipole Moments
 -----------------------------------------------------------------
    Charge (ESU x 10^10)
                -0.0000
    Dipole Moment (Debye)
         X       1.9224      Y       0.8442      Z       2.3742
       Tot       3.1694
    Quadrupole Moments (Debye-Ang)
        XX     -92.2542     XY       5.4233     YY     -86.9879
        XZ      -4.2664     YZ      -5.6940     ZZ     -97.5866

 Total job time:  58.97s(wall), 1986.08s(cpu)
        *  Thank you very much for using Q-Chem.  Have a nice day.  *
