 Q-Chem 5.4, Q-Chem, Inc., Pleasanton, CA (2021)
 Q-Chem 5.4.0 for Intel X86 EM64T Linux

User input:
--------------------------------------------------------------
$molecule
0 1
C	-0.179800	-0.975447	0.973626
S	-0.022200	-0.084547	2.481126
C	0.250100	1.464253	1.692526
C	-0.022000	-0.084847	-0.094274
C	0.217100	1.284553	0.287226
S	-0.061500	-0.325247	-1.831874
C	0.237200	1.400753	-2.080874
C	0.357800	2.098753	-0.888974
F	0.585200	3.415953	-0.845474
C	0.316900	1.841653	-3.482474
O	0.191100	1.082153	-4.432874
O	0.544100	3.172953	-3.595574
C	0.635200	3.659653	-4.942574
H	0.819500	4.745153	-4.859474
H	-0.305700	3.466753	-5.496574
H	1.465700	3.165053	-5.485674
C	-0.179800	-2.410647	0.973626
H	-0.542200	-2.418647	1.991026
H	-0.969900	-3.088547	0.686326
H	0.706100	-2.941747	1.289026
H	0.409200	2.374753	2.280126
$end

$rem
JOBTYPE		SP
EXCHANGE	HF
CORRELATION	pRIMP2
BASIS		cc-pvtz
METHOD		rimp2
AUX_BASIS	rimp2-cc-pvtz
SOLVENT_METHOD	PCM
PURECART	11111
SYMMETRY	false
MEM_TOTAL	110000
SCF_CONVERGENCE = 6
THRESH=10
GUI = 2
$end

$solvent
dielectric 4.90
$end
--------------------------------------------------------------

             Standard Nuclear Orientation (Angstroms)
    I     Atom           X                Y                Z
 ----------------------------------------------------------------
    1      C      -0.1798000000    -0.9754470000     0.9736260000
    2      S      -0.0222000000    -0.0845470000     2.4811260000
    3      C       0.2501000000     1.4642530000     1.6925260000
    4      C      -0.0220000000    -0.0848470000    -0.0942740000
    5      C       0.2171000000     1.2845530000     0.2872260000
    6      S      -0.0615000000    -0.3252470000    -1.8318740000
    7      C       0.2372000000     1.4007530000    -2.0808740000
    8      C       0.3578000000     2.0987530000    -0.8889740000
    9      F       0.5852000000     3.4159530000    -0.8454740000
   10      C       0.3169000000     1.8416530000    -3.4824740000
   11      O       0.1911000000     1.0821530000    -4.4328740000
   12      O       0.5441000000     3.1729530000    -3.5955740000
   13      C       0.6352000000     3.6596530000    -4.9425740000
   14      H       0.8195000000     4.7451530000    -4.8594740000
   15      H      -0.3057000000     3.4667530000    -5.4965740000
   16      H       1.4657000000     3.1650530000    -5.4856740000
   17      C      -0.1798000000    -2.4106470000     0.9736260000
   18      H      -0.5422000000    -2.4186470000     1.9910260000
   19      H      -0.9699000000    -3.0885470000     0.6863260000
   20      H       0.7061000000    -2.9417470000     1.2890260000
   21      H       0.4092000000     2.3747530000     2.2801260000
 ----------------------------------------------------------------

   11   -1389.2687833843      4.80e-07  Convergence criterion met
 Total energy in the final basis set =    -1389.2687833843
        RIMP2         total energy =     -1391.7740932063 a.u.

                    Orbital Energies (a.u.)
 --------------------------------------------------------------

 Alpha MOs
 -- Occupied --
-92.0084 -91.9919 -26.3403 -20.6133 -20.5594 -11.4073 -11.3783 -11.3000
-11.2941 -11.2923 -11.2880 -11.2848 -11.2786 -11.2255  -9.0072  -8.9920
 -6.6879  -6.6874  -6.6869  -6.6731  -6.6724  -6.6713  -1.6575  -1.4657
 -1.3683  -1.2122  -1.1369  -1.0647  -1.0197  -0.9951  -0.9586  -0.9125
 -0.8637  -0.8064  -0.7883  -0.7579  -0.7312  -0.7225  -0.6913  -0.6831
 -0.6725  -0.6605  -0.6086  -0.6008  -0.5916  -0.5776  -0.5657  -0.5567
 -0.5388  -0.5298  -0.5078  -0.4808  -0.4731  -0.4711  -0.4665  -0.4614
 -0.3907  -0.3452  -0.2903

          Ground-State Mulliken Net Atomic Charges

     Atom                 Charge (a.u.)
  ----------------------------------------
      1 C                     0.019562
      2 S                     0.076965
      3 C                    -0.208209
      4 C                    -0.000947
      5 C                    -0.095738
      6 S                    -0.004936
      7 C                    -0.158797
      8 C                     0.392659
      9 F                    -0.208950
     10 C                     0.445139
     11 O                    -0.462301
     12 O                    -0.300843
     13 C                    -0.058654
     14 H                     0.121011
     15 H                     0.094748
     16 H                     0.094717
     17 C                    -0.368158
     18 H                     0.113137
     19 H                     0.160450
     20 H                     0.134693
     21 H                     0.214451
  ----------------------------------------
  Sum of atomic charges =     0.000000

                    Cartesian Multipole Moments
 -----------------------------------------------------------------
    Charge (ESU x 10^10)
                -0.0000
    Dipole Moment (Debye)
         X       0.1772      Y       0.6362      Z       3.8062
       Tot       3.8631
    Quadrupole Moments (Debye-Ang)
        XX     -95.9314     XY       2.6642     YY     -81.6429
        XZ      -1.4748     YZ     -11.2014     ZZ     -95.4774

 Total job time:  56.01s(wall), 1920.83s(cpu)
        *  Thank you very much for using Q-Chem.  Have a nice day.  *
