 Q-Chem 5.4, Q-Chem, Inc., Pleasanton, CA (2021)
 Q-Chem 5.4.0 for Intel X86 EM64T Linux

User input:
--------------------------------------------------------------
$molecule
0 1
C	-0.182301	-0.975447	0.977293
S	-0.024701	-0.084547	2.484793
C	0.247599	1.464253	1.696193
C	-0.024501	-0.084847	-0.090607
C	0.214599	1.284553	0.290893
S	-0.064001	-0.325247	-1.828207
C	0.234699	1.400753	-2.077207
C	0.355299	2.098753	-0.885307
F	0.582699	3.415953	-0.841807
C	0.314399	1.841653	-3.478807
O	0.188599	1.082153	-4.429207
O	0.541599	3.172953	-3.591907
C	0.632699	3.659653	-4.938907
H	0.816999	4.745153	-4.855807
H	-0.308201	3.466753	-5.492907
H	1.463199	3.165053	-5.482007
C	-0.182301	-2.410647	0.977293
H	0.749199	-2.418647	0.430893
H	0.238299	-3.088547	1.705193
H	-0.658201	-2.941747	0.166293
H	0.406699	2.374753	2.283793
$end

$rem
JOBTYPE		SP
EXCHANGE	HF
CORRELATION	pRIMP2
BASIS		cc-pvtz
METHOD		rimp2
AUX_BASIS	rimp2-cc-pvtz
SOLVENT_METHOD	PCM
PURECART	11111
SYMMETRY	false
MEM_TOTAL	110000
SCF_CONVERGENCE = 6
THRESH=10
GUI = 2
$end

$solvent
dielectric 4.90
$end
--------------------------------------------------------------

             Standard Nuclear Orientation (Angstroms)
    I     Atom           X                Y                Z
 ----------------------------------------------------------------
    1      C      -0.1823010000    -0.9754470000     0.9772930000
    2      S      -0.0247010000    -0.0845470000     2.4847930000
    3      C       0.2475990000     1.4642530000     1.6961930000
    4      C      -0.0245010000    -0.0848470000    -0.0906070000
    5      C       0.2145990000     1.2845530000     0.2908930000
    6      S      -0.0640010000    -0.3252470000    -1.8282070000
    7      C       0.2346990000     1.4007530000    -2.0772070000
    8      C       0.3552990000     2.0987530000    -0.8853070000
    9      F       0.5826990000     3.4159530000    -0.8418070000
   10      C       0.3143990000     1.8416530000    -3.4788070000
   11      O       0.1885990000     1.0821530000    -4.4292070000
   12      O       0.5415990000     3.1729530000    -3.5919070000
   13      C       0.6326990000     3.6596530000    -4.9389070000
   14      H       0.8169990000     4.7451530000    -4.8558070000
   15      H      -0.3082010000     3.4667530000    -5.4929070000
   16      H       1.4631990000     3.1650530000    -5.4820070000
   17      C      -0.1823010000    -2.4106470000     0.9772930000
   18      H       0.7491990000    -2.4186470000     0.4308930000
   19      H       0.2382990000    -3.0885470000     1.7051930000
   20      H      -0.6582010000    -2.9417470000     0.1662930000
   21      H       0.4066990000     2.3747530000     2.2837930000
 ----------------------------------------------------------------

   11   -1389.2715711726      5.06e-07  Convergence criterion met
 Total energy in the final basis set =    -1389.2715711726
        RIMP2         total energy =     -1391.7767996168 a.u.

                    Orbital Energies (a.u.)
 --------------------------------------------------------------

 Alpha MOs
 -- Occupied --
-92.0059 -91.9918 -26.3402 -20.6135 -20.5596 -11.4075 -11.3782 -11.3022
-11.2945 -11.2920 -11.2881 -11.2814 -11.2787 -11.2303  -9.0046  -8.9919
 -6.6854  -6.6848  -6.6843  -6.6730  -6.6723  -6.6712  -1.6574  -1.4659
 -1.3685  -1.2119  -1.1362  -1.0676  -1.0180  -0.9954  -0.9578  -0.9131
 -0.8629  -0.8041  -0.7883  -0.7587  -0.7302  -0.7223  -0.6927  -0.6833
 -0.6726  -0.6602  -0.6110  -0.5961  -0.5899  -0.5871  -0.5631  -0.5594
 -0.5331  -0.5293  -0.5085  -0.4968  -0.4727  -0.4712  -0.4682  -0.4621
 -0.3844  -0.3444  -0.2834

          Ground-State Mulliken Net Atomic Charges

     Atom                 Charge (a.u.)
  ----------------------------------------
      1 C                     0.051948
      2 S                     0.077679
      3 C                    -0.226892
      4 C                    -0.026794
      5 C                    -0.090292
      6 S                    -0.015232
      7 C                    -0.155022
      8 C                     0.386101
      9 F                    -0.208567
     10 C                     0.446526
     11 O                    -0.462238
     12 O                    -0.300755
     13 C                    -0.058629
     14 H                     0.121129
     15 H                     0.094792
     16 H                     0.094645
     17 C                    -0.392760
     18 H                     0.138524
     19 H                     0.166827
     20 H                     0.147282
     21 H                     0.211730
  ----------------------------------------
  Sum of atomic charges =     0.000000

                    Cartesian Multipole Moments
 -----------------------------------------------------------------
    Charge (ESU x 10^10)
                -0.0000
    Dipole Moment (Debye)
         X       0.9242      Y       0.0428      Z       2.9350
       Tot       3.0773
    Quadrupole Moments (Debye-Ang)
        XX     -96.7381     XY       0.3697     YY     -80.9275
        XZ      -0.5516     YZ      -9.9060     ZZ     -97.1571

 Total job time:  55.05s(wall), 1920.66s(cpu)
        *  Thank you very much for using Q-Chem.  Have a nice day.  *
