 Q-Chem 5.4, Q-Chem, Inc., Pleasanton, CA (2021)
 Q-Chem 5.4.0 for Intel X86 EM64T Linux

User input:
--------------------------------------------------------------
$molecule
0 1
C	-0.187040	-0.975841	0.976149
S	-0.029440	-0.084941	2.483649
C	0.242860	1.463859	1.695049
C	-0.029240	-0.085241	-0.091751
C	0.209860	1.284159	0.289749
S	-0.068740	-0.325641	-1.829351
C	0.229960	1.400359	-2.078351
C	0.350560	2.098359	-0.886451
F	0.577960	3.415559	-0.842951
C	0.309660	1.841259	-3.479951
O	0.183860	1.081759	-4.430351
O	0.536860	3.172559	-3.593051
C	0.627960	3.659259	-4.940051
H	0.812260	4.744759	-4.856951
H	-0.312940	3.466359	-5.494051
H	1.458460	3.164659	-5.483151
C	-0.061940	-2.405541	0.976149
H	1.014560	-2.319441	0.968749
H	-0.002640	-3.080941	1.816849
H	-0.022340	-2.935241	0.035749
H	0.401960	2.374359	2.282649
$end

$rem
JOBTYPE		SP
EXCHANGE	HF
CORRELATION	pRIMP2
BASIS		cc-pvtz
METHOD		rimp2
AUX_BASIS	rimp2-cc-pvtz
SOLVENT_METHOD	PCM
PURECART	11111
SYMMETRY	false
MEM_TOTAL	110000
SCF_CONVERGENCE = 6
THRESH=10
GUI = 2
$end

$solvent
dielectric 4.90
$end
--------------------------------------------------------------

             Standard Nuclear Orientation (Angstroms)
    I     Atom           X                Y                Z
 ----------------------------------------------------------------
    1      C      -0.1870400000    -0.9758410000     0.9761490000
    2      S      -0.0294400000    -0.0849410000     2.4836490000
    3      C       0.2428600000     1.4638590000     1.6950490000
    4      C      -0.0292400000    -0.0852410000    -0.0917510000
    5      C       0.2098600000     1.2841590000     0.2897490000
    6      S      -0.0687400000    -0.3256410000    -1.8293510000
    7      C       0.2299600000     1.4003590000    -2.0783510000
    8      C       0.3505600000     2.0983590000    -0.8864510000
    9      F       0.5779600000     3.4155590000    -0.8429510000
   10      C       0.3096600000     1.8412590000    -3.4799510000
   11      O       0.1838600000     1.0817590000    -4.4303510000
   12      O       0.5368600000     3.1725590000    -3.5930510000
   13      C       0.6279600000     3.6592590000    -4.9400510000
   14      H       0.8122600000     4.7447590000    -4.8569510000
   15      H      -0.3129400000     3.4663590000    -5.4940510000
   16      H       1.4584600000     3.1646590000    -5.4831510000
   17      C      -0.0619400000    -2.4055410000     0.9761490000
   18      H       1.0145600000    -2.3194410000     0.9687490000
   19      H      -0.0026400000    -3.0809410000     1.8168490000
   20      H      -0.0223400000    -2.9352410000     0.0357490000
   21      H       0.4019600000     2.3743590000     2.2826490000
 ----------------------------------------------------------------

   11   -1389.2707144356      5.33e-07  Convergence criterion met
 Total energy in the final basis set =    -1389.2707144356
        RIMP2         total energy =     -1391.7749872984 a.u.

                    Orbital Energies (a.u.)
 --------------------------------------------------------------

 Alpha MOs
 -- Occupied --
-92.0052 -91.9902 -26.3398 -20.6134 -20.5596 -11.4073 -11.3775 -11.3039
-11.2945 -11.2913 -11.2880 -11.2798 -11.2784 -11.2325  -9.0042  -8.9904
 -6.6850  -6.6844  -6.6839  -6.6715  -6.6708  -6.6696  -1.6570  -1.4658
 -1.3684  -1.2117  -1.1370  -1.0674  -1.0179  -0.9952  -0.9577  -0.9125
 -0.8627  -0.8042  -0.7879  -0.7584  -0.7307  -0.7220  -0.6921  -0.6831
 -0.6725  -0.6599  -0.6122  -0.5958  -0.5925  -0.5815  -0.5617  -0.5590
 -0.5312  -0.5250  -0.5185  -0.5005  -0.4721  -0.4714  -0.4699  -0.4601
 -0.3839  -0.3453  -0.2799

          Ground-State Mulliken Net Atomic Charges

     Atom                 Charge (a.u.)
  ----------------------------------------
      1 C                     0.055734
      2 S                     0.078017
      3 C                    -0.233804
      4 C                    -0.050810
      5 C                    -0.082927
      6 S                    -0.015658
      7 C                    -0.155040
      8 C                     0.387852
      9 F                    -0.208960
     10 C                     0.446224
     11 O                    -0.461761
     12 O                    -0.300765
     13 C                    -0.058611
     14 H                     0.121111
     15 H                     0.094811
     16 H                     0.094623
     17 C                    -0.386694
     18 H                     0.151715
     19 H                     0.165491
     20 H                     0.147365
     21 H                     0.212087
  ----------------------------------------
  Sum of atomic charges =     0.000000

                    Cartesian Multipole Moments
 -----------------------------------------------------------------
    Charge (ESU x 10^10)
                -0.0000
    Dipole Moment (Debye)
         X       1.1952      Y      -0.0356      Z       3.2793
       Tot       3.4905
    Quadrupole Moments (Debye-Ang)
        XX     -96.8076     XY      -0.2151     YY     -81.0130
        XZ      -0.6495     YZ     -10.8109     ZZ     -96.4921

 Total job time:  73.96s(wall), 2054.37s(cpu)
        *  Thank you very much for using Q-Chem.  Have a nice day.  *
