 Q-Chem 5.4, Q-Chem, Inc., Pleasanton, CA (2021)
 Q-Chem 5.4.0 for Intel X86 EM64T Linux

User input:
--------------------------------------------------------------
$molecule
0 1
C	-0.520700	-0.851940	0.973641
S	-0.067900	-0.068640	2.481141
C	0.717700	1.293660	1.692541
C	-0.067800	-0.069040	-0.094259
C	0.625200	1.136060	0.287241
S	-0.187100	-0.281440	-1.831859
C	0.683900	1.238360	-2.080859
C	1.035900	1.852960	-0.888959
F	1.700100	3.012960	-0.845459
C	0.909600	1.625360	-3.482459
O	0.531500	0.954660	-4.432859
O	1.578300	2.798760	-3.595559
C	1.830400	3.224860	-4.942559
H	2.374900	4.181860	-4.859459
H	0.880300	3.365460	-5.496559
H	2.441700	2.476060	-5.485659
C	-0.520700	-2.287140	0.973641
H	-0.325800	-2.295140	2.035841
H	-1.348600	-2.965040	1.119941
H	0.404200	-2.818240	0.803841
H	1.178600	2.094760	2.280141
$end

$rem
JOBTYPE		SP
EXCHANGE	HF
CORRELATION	pRIMP2
BASIS		cc-pvtz
METHOD		rimp2
AUX_BASIS	rimp2-cc-pvtz
SOLVENT_METHOD	PCM
PURECART	11111
SYMMETRY	false
MEM_TOTAL	110000
SCF_CONVERGENCE = 6
THRESH=10
GUI = 2
$end

$solvent
dielectric 4.90
$end
--------------------------------------------------------------

             Standard Nuclear Orientation (Angstroms)
    I     Atom           X                Y                Z
 ----------------------------------------------------------------
    1      C      -0.5207000000    -0.8519400000     0.9736410000
    2      S      -0.0679000000    -0.0686400000     2.4811410000
    3      C       0.7177000000     1.2936600000     1.6925410000
    4      C      -0.0678000000    -0.0690400000    -0.0942590000
    5      C       0.6252000000     1.1360600000     0.2872410000
    6      S      -0.1871000000    -0.2814400000    -1.8318590000
    7      C       0.6839000000     1.2383600000    -2.0808590000
    8      C       1.0359000000     1.8529600000    -0.8889590000
    9      F       1.7001000000     3.0129600000    -0.8454590000
   10      C       0.9096000000     1.6253600000    -3.4824590000
   11      O       0.5315000000     0.9546600000    -4.4328590000
   12      O       1.5783000000     2.7987600000    -3.5955590000
   13      C       1.8304000000     3.2248600000    -4.9425590000
   14      H       2.3749000000     4.1818600000    -4.8594590000
   15      H       0.8803000000     3.3654600000    -5.4965590000
   16      H       2.4417000000     2.4760600000    -5.4856590000
   17      C      -0.5207000000    -2.2871400000     0.9736410000
   18      H      -0.3258000000    -2.2951400000     2.0358410000
   19      H      -1.3486000000    -2.9650400000     1.1199410000
   20      H       0.4042000000    -2.8182400000     0.8038410000
   21      H       1.1786000000     2.0947600000     2.2801410000
 ----------------------------------------------------------------

   11   -1389.2520773696      4.78e-07  Convergence criterion met
 Total energy in the final basis set =    -1389.2520773696
        RIMP2         total energy =     -1391.7607123608 a.u.

                    Orbital Energies (a.u.)
 --------------------------------------------------------------

 Alpha MOs
 -- Occupied --
-92.0063 -91.9943 -26.3411 -20.6135 -20.5595 -11.4075 -11.3796 -11.3061
-11.2940 -11.2902 -11.2881 -11.2842 -11.2789 -11.2219  -9.0055  -8.9944
 -6.6863  -6.6855  -6.6851  -6.6754  -6.6747  -6.6736  -1.6584  -1.4658
 -1.3684  -1.2145  -1.1388  -1.0652  -1.0208  -0.9933  -0.9593  -0.9102
 -0.8646  -0.8081  -0.7890  -0.7582  -0.7318  -0.7232  -0.6921  -0.6832
 -0.6727  -0.6607  -0.6065  -0.6042  -0.5922  -0.5754  -0.5650  -0.5581
 -0.5355  -0.5299  -0.5083  -0.4806  -0.4752  -0.4715  -0.4693  -0.4513
 -0.3909  -0.3444  -0.2929

          Ground-State Mulliken Net Atomic Charges

     Atom                 Charge (a.u.)
  ----------------------------------------
      1 C                     0.002439
      2 S                     0.078079
      3 C                    -0.197496
      4 C                    -0.022150
      5 C                    -0.078725
      6 S                     0.006483
      7 C                    -0.156158
      8 C                     0.388491
      9 F                    -0.208013
     10 C                     0.446176
     11 O                    -0.462738
     12 O                    -0.301215
     13 C                    -0.058469
     14 H                     0.121013
     15 H                     0.094797
     16 H                     0.094664
     17 C                    -0.361881
     18 H                     0.113970
     19 H                     0.143691
     20 H                     0.142189
     21 H                     0.214852
  ----------------------------------------
  Sum of atomic charges =     0.000000

                    Cartesian Multipole Moments
 -----------------------------------------------------------------
    Charge (ESU x 10^10)
                -0.0000
    Dipole Moment (Debye)
         X       1.4484      Y       0.7555      Z       3.7360
       Tot       4.0775
    Quadrupole Moments (Debye-Ang)
        XX     -93.9589     XY       4.6392     YY     -84.8415
        XZ      -4.1237     YZ      -9.7220     ZZ     -95.2660

 Total job time:  63.95s(wall), 1938.40s(cpu)
        *  Thank you very much for using Q-Chem.  Have a nice day.  *
