 Q-Chem 5.4, Q-Chem, Inc., Pleasanton, CA (2021)
 Q-Chem 5.4.0 for Intel X86 EM64T Linux

User input:
--------------------------------------------------------------
$molecule
0 1
C	0.000983	-0.991205	0.978188
S	0.001483	-0.086405	2.485688
C	0.000683	1.486095	1.697088
C	0.001783	-0.086805	-0.089712
C	-0.000617	1.303395	0.291788
S	0.004583	-0.330305	-1.827312
C	-0.000917	1.421295	-2.076312
C	-0.003417	2.129695	-0.884412
F	-0.008217	3.466295	-0.840912
C	0.000983	1.869395	-3.477912
O	0.008883	1.099495	-4.428312
O	-0.006517	3.219895	-3.591012
C	-0.001317	3.714995	-4.938012
H	-0.008317	4.815995	-4.854912
H	-0.894417	3.361695	-5.492012
H	0.902483	3.372095	-5.481112
C	0.000983	-2.426405	0.978188
H	-0.193917	-2.434405	-0.084012
H	0.828883	-3.104305	0.831888
H	-0.923917	-2.957505	1.147988
H	-0.000717	2.410395	2.284688
$end

$rem
JOBTYPE		SP
EXCHANGE	HF
CORRELATION	pRIMP2
BASIS		cc-pvtz
METHOD		rimp2
AUX_BASIS	rimp2-cc-pvtz
SOLVENT_METHOD	PCM
PURECART	11111
SYMMETRY	false
MEM_TOTAL	110000
SCF_CONVERGENCE = 6
THRESH=10
GUI = 2
$end

$solvent
dielectric 4.90
$end
--------------------------------------------------------------

             Standard Nuclear Orientation (Angstroms)
    I     Atom           X                Y                Z
 ----------------------------------------------------------------
    1      C       0.0009830000    -0.9912050000     0.9781880000
    2      S       0.0014830000    -0.0864050000     2.4856880000
    3      C       0.0006830000     1.4860950000     1.6970880000
    4      C       0.0017830000    -0.0868050000    -0.0897120000
    5      C      -0.0006170000     1.3033950000     0.2917880000
    6      S       0.0045830000    -0.3303050000    -1.8273120000
    7      C      -0.0009170000     1.4212950000    -2.0763120000
    8      C      -0.0034170000     2.1296950000    -0.8844120000
    9      F      -0.0082170000     3.4662950000    -0.8409120000
   10      C       0.0009830000     1.8693950000    -3.4779120000
   11      O       0.0088830000     1.0994950000    -4.4283120000
   12      O      -0.0065170000     3.2198950000    -3.5910120000
   13      C      -0.0013170000     3.7149950000    -4.9380120000
   14      H      -0.0083170000     4.8159950000    -4.8549120000
   15      H      -0.8944170000     3.3616950000    -5.4920120000
   16      H       0.9024830000     3.3720950000    -5.4811120000
   17      C       0.0009830000    -2.4264050000     0.9781880000
   18      H      -0.1939170000    -2.4344050000    -0.0840120000
   19      H       0.8288830000    -3.1043050000     0.8318880000
   20      H      -0.9239170000    -2.9575050000     1.1479880000
   21      H      -0.0007170000     2.4103950000     2.2846880000
 ----------------------------------------------------------------

   11   -1389.2734078883      4.58e-07  Convergence criterion met
 Total energy in the final basis set =    -1389.2734078883
        RIMP2         total energy =     -1391.7791208664 a.u.

                    Orbital Energies (a.u.)
 --------------------------------------------------------------

 Alpha MOs
 -- Occupied --
-92.0029 -91.9937 -26.3413 -20.6137 -20.5598 -11.4078 -11.3798 -11.3000
-11.2946 -11.2946 -11.2899 -11.2883 -11.2788 -11.2267  -9.0021  -8.9939
 -6.6828  -6.6822  -6.6818  -6.6750  -6.6743  -6.6731  -1.6584  -1.4661
 -1.3687  -1.2135  -1.1352  -1.0681  -1.0188  -0.9951  -0.9583  -0.9144
 -0.8635  -0.8053  -0.7891  -0.7593  -0.7301  -0.7232  -0.6946  -0.6835
 -0.6729  -0.6612  -0.6089  -0.6028  -0.5916  -0.5819  -0.5667  -0.5555
 -0.5407  -0.5302  -0.5070  -0.4871  -0.4734  -0.4718  -0.4645  -0.4525
 -0.3930  -0.3449  -0.2921

          Ground-State Mulliken Net Atomic Charges

     Atom                 Charge (a.u.)
  ----------------------------------------
      1 C                     0.045202
      2 S                     0.072160
      3 C                    -0.200652
      4 C                    -0.013167
      5 C                    -0.101713
      6 S                    -0.010467
      7 C                    -0.157804
      8 C                     0.390533
      9 F                    -0.207722
     10 C                     0.444549
     11 O                    -0.463054
     12 O                    -0.300953
     13 C                    -0.058691
     14 H                     0.121188
     15 H                     0.094787
     16 H                     0.094741
     17 C                    -0.366478
     18 H                     0.112746
     19 H                     0.149880
     20 H                     0.141888
     21 H                     0.213028
  ----------------------------------------
  Sum of atomic charges =     0.000000

                    Cartesian Multipole Moments
 -----------------------------------------------------------------
    Charge (ESU x 10^10)
                -0.0000
    Dipole Moment (Debye)
         X      -0.1384      Y       0.6183      Z       2.5859
       Tot       2.6624
    Quadrupole Moments (Debye-Ang)
        XX     -96.2269     XY       0.2804     YY     -81.0284
        XZ      -0.1943     YZ      -8.4202     ZZ     -98.1256

 Total job time:  54.22s(wall), 1964.97s(cpu)
        *  Thank you very much for using Q-Chem.  Have a nice day.  *
