 Q-Chem 5.4, Q-Chem, Inc., Pleasanton, CA (2021)
 Q-Chem 5.4.0 for Intel X86 EM64T Linux

User input:
--------------------------------------------------------------
$molecule
0 1
C	-0.796046	-0.619704	0.973763
S	-0.102646	-0.038504	2.481263
C	1.101454	0.972896	1.692663
C	-0.102746	-0.038904	-0.094137
C	0.960754	0.856396	0.287363
S	-0.287446	-0.197704	-1.831737
C	1.050854	0.932496	-2.080737
C	1.591854	1.389696	-0.888837
F	2.612654	2.252596	-0.845337
C	1.395254	1.219096	-3.482337
O	0.810654	0.718096	-4.432737
O	2.425054	2.092896	-3.595437
C	2.807654	2.407096	-4.942437
H	3.646554	3.120196	-4.859337
H	1.962954	2.864196	-5.496437
H	3.125954	1.494396	-5.485537
C	-0.796046	-2.054904	0.973763
H	-1.329546	-2.062904	1.912763
H	-1.524246	-2.732804	0.553663
H	0.021654	-2.586004	1.438163
H	1.808654	1.568096	2.280263
$end

$rem
JOBTYPE		SP
EXCHANGE	HF
CORRELATION	pRIMP2
BASIS		cc-pvtz
METHOD		rimp2
AUX_BASIS	rimp2-cc-pvtz
SOLVENT_METHOD	PCM
PURECART	11111
SYMMETRY	false
MEM_TOTAL	110000
SCF_CONVERGENCE = 6
THRESH=10
GUI = 2
$end

$solvent
dielectric 4.90
$end
--------------------------------------------------------------

             Standard Nuclear Orientation (Angstroms)
    I     Atom           X                Y                Z
 ----------------------------------------------------------------
    1      C      -0.7960460000    -0.6197040000     0.9737630000
    2      S      -0.1026460000    -0.0385040000     2.4812630000
    3      C       1.1014540000     0.9728960000     1.6926630000
    4      C      -0.1027460000    -0.0389040000    -0.0941370000
    5      C       0.9607540000     0.8563960000     0.2873630000
    6      S      -0.2874460000    -0.1977040000    -1.8317370000
    7      C       1.0508540000     0.9324960000    -2.0807370000
    8      C       1.5918540000     1.3896960000    -0.8888370000
    9      F       2.6126540000     2.2525960000    -0.8453370000
   10      C       1.3952540000     1.2190960000    -3.4823370000
   11      O       0.8106540000     0.7180960000    -4.4327370000
   12      O       2.4250540000     2.0928960000    -3.5954370000
   13      C       2.8076540000     2.4070960000    -4.9424370000
   14      H       3.6465540000     3.1201960000    -4.8593370000
   15      H       1.9629540000     2.8641960000    -5.4964370000
   16      H       3.1259540000     1.4943960000    -5.4855370000
   17      C      -0.7960460000    -2.0549040000     0.9737630000
   18      H      -1.3295460000    -2.0629040000     1.9127630000
   19      H      -1.5242460000    -2.7328040000     0.5536630000
   20      H       0.0216540000    -2.5860040000     1.4381630000
   21      H       1.8086540000     1.5680960000     2.2802630000
 ----------------------------------------------------------------

   11   -1389.2221660481      5.11e-07  Convergence criterion met
 Total energy in the final basis set =    -1389.2221660481
        RIMP2         total energy =     -1391.7353963834 a.u.

                    Orbital Energies (a.u.)
 --------------------------------------------------------------

 Alpha MOs
 -- Occupied --
-92.0055 -91.9995 -26.3425 -20.6138 -20.5598 -11.4080 -11.3816 -11.3186
-11.2986 -11.2943 -11.2884 -11.2802 -11.2663 -11.2171  -9.0049  -8.9994
 -6.6856  -6.6848  -6.6845  -6.6804  -6.6797  -6.6786  -1.6597  -1.4662
 -1.3689  -1.2186  -1.1414  -1.0663  -1.0224  -0.9916  -0.9604  -0.9081
 -0.8660  -0.8102  -0.7902  -0.7593  -0.7328  -0.7244  -0.6941  -0.6837
 -0.6731  -0.6610  -0.6104  -0.6012  -0.5913  -0.5778  -0.5653  -0.5608
 -0.5305  -0.5232  -0.5098  -0.4810  -0.4733  -0.4719  -0.4623  -0.4577
 -0.3847  -0.3434  -0.2959

          Ground-State Mulliken Net Atomic Charges

     Atom                 Charge (a.u.)
  ----------------------------------------
      1 C                    -0.105214
      2 S                     0.089021
      3 C                    -0.159387
      4 C                     0.065076
      5 C                    -0.107775
      6 S                     0.027827
      7 C                    -0.159398
      8 C                     0.392203
      9 F                    -0.207150
     10 C                     0.447417
     11 O                    -0.463658
     12 O                    -0.301413
     13 C                    -0.058389
     14 H                     0.121061
     15 H                     0.094878
     16 H                     0.094773
     17 C                    -0.365521
     18 H                     0.106615
     19 H                     0.144258
     20 H                     0.128496
     21 H                     0.216280
  ----------------------------------------
  Sum of atomic charges =     0.000000

                    Cartesian Multipole Moments
 -----------------------------------------------------------------
    Charge (ESU x 10^10)
                -0.0000
    Dipole Moment (Debye)
         X       2.2750      Y       0.7936      Z       3.3664
       Tot       4.1398
    Quadrupole Moments (Debye-Ang)
        XX     -90.5575     XY       6.4632     YY     -89.3467
        XZ      -5.3805     YZ      -6.5619     ZZ     -94.9639

 Total job time:  61.13s(wall), 2102.34s(cpu)
        *  Thank you very much for using Q-Chem.  Have a nice day.  *
