 Q-Chem 5.4, Q-Chem, Inc., Pleasanton, CA (2021)
 Q-Chem 5.4.0 for Intel X86 EM64T Linux

User input:
--------------------------------------------------------------
$molecule
0 1
C	-0.671053	-0.747937	0.975737
S	-0.089153	-0.055137	2.483237
C	0.921147	1.149963	1.694637
C	-0.089153	-0.055537	-0.092163
C	0.802647	1.010863	0.289337
S	-0.243453	-0.244037	-1.829763
C	0.878247	1.101463	-2.078763
C	1.331647	1.645563	-0.886863
F	2.187147	2.672563	-0.843363
C	1.167647	1.443363	-3.480363
O	0.678947	0.848563	-4.430763
O	2.030047	2.482763	-3.593463
C	2.352247	2.858663	-4.940463
H	3.054647	3.706563	-4.857363
H	1.441047	3.162063	-5.494463
H	2.824247	2.015063	-5.483563
C	-0.671053	-2.183137	0.975737
H	0.393747	-2.191137	1.155937
H	-0.816753	-2.861037	1.803737
H	-0.514353	-2.714237	0.048537
H	1.514147	1.858863	2.282237
$end

$rem
JOBTYPE		SP
EXCHANGE	HF
CORRELATION	pRIMP2
BASIS		cc-pvtz
METHOD		rimp2
AUX_BASIS	rimp2-cc-pvtz
SOLVENT_METHOD	PCM
PURECART	11111
SYMMETRY	false
MEM_TOTAL	110000
SCF_CONVERGENCE = 6
THRESH=10
GUI = 2
$end

$solvent
dielectric 4.90
$end
--------------------------------------------------------------

             Standard Nuclear Orientation (Angstroms)
    I     Atom           X                Y                Z
 ----------------------------------------------------------------
    1      C      -0.6710530000    -0.7479370000     0.9757370000
    2      S      -0.0891530000    -0.0551370000     2.4832370000
    3      C       0.9211470000     1.1499630000     1.6946370000
    4      C      -0.0891530000    -0.0555370000    -0.0921630000
    5      C       0.8026470000     1.0108630000     0.2893370000
    6      S      -0.2434530000    -0.2440370000    -1.8297630000
    7      C       0.8782470000     1.1014630000    -2.0787630000
    8      C       1.3316470000     1.6455630000    -0.8868630000
    9      F       2.1871470000     2.6725630000    -0.8433630000
   10      C       1.1676470000     1.4433630000    -3.4803630000
   11      O       0.6789470000     0.8485630000    -4.4307630000
   12      O       2.0300470000     2.4827630000    -3.5934630000
   13      C       2.3522470000     2.8586630000    -4.9404630000
   14      H       3.0546470000     3.7065630000    -4.8573630000
   15      H       1.4410470000     3.1620630000    -5.4944630000
   16      H       2.8242470000     2.0150630000    -5.4835630000
   17      C      -0.6710530000    -2.1831370000     0.9757370000
   18      H       0.3937470000    -2.1911370000     1.1559370000
   19      H      -0.8167530000    -2.8610370000     1.8037370000
   20      H      -0.5143530000    -2.7142370000     0.0485370000
   21      H       1.5141470000     1.8588630000     2.2822370000
 ----------------------------------------------------------------

   11   -1389.2435010595      5.38e-07  Convergence criterion met
 Total energy in the final basis set =    -1389.2435010595
        RIMP2         total energy =     -1391.7538807989 a.u.

                    Orbital Energies (a.u.)
 --------------------------------------------------------------

 Alpha MOs
 -- Occupied --
-92.0023 -91.9942 -26.3412 -20.6138 -20.5600 -11.4080 -11.3796 -11.3032
-11.2950 -11.2919 -11.2883 -11.2874 -11.2803 -11.2277  -9.0020  -8.9942
 -6.6828  -6.6821  -6.6816  -6.6753  -6.6746  -6.6735  -1.6585  -1.4662
 -1.3689  -1.2164  -1.1407  -1.0682  -1.0198  -0.9926  -0.9590  -0.9091
 -0.8643  -0.8068  -0.7893  -0.7592  -0.7320  -0.7233  -0.6939  -0.6837
 -0.6730  -0.6605  -0.6129  -0.5995  -0.5945  -0.5727  -0.5637  -0.5570
 -0.5319  -0.5261  -0.5165  -0.5011  -0.4736  -0.4719  -0.4712  -0.4537
 -0.3829  -0.3466  -0.2817

          Ground-State Mulliken Net Atomic Charges

     Atom                 Charge (a.u.)
  ----------------------------------------
      1 C                     0.014868
      2 S                     0.077632
      3 C                    -0.205406
      4 C                    -0.041252
      5 C                    -0.080825
      6 S                     0.003222
      7 C                    -0.153082
      8 C                     0.389030
      9 F                    -0.207969
     10 C                     0.447086
     11 O                    -0.461933
     12 O                    -0.301030
     13 C                    -0.058452
     14 H                     0.121120
     15 H                     0.094981
     16 H                     0.094639
     17 C                    -0.378745
     18 H                     0.137232
     19 H                     0.155995
     20 H                     0.139986
     21 H                     0.212904
  ----------------------------------------
  Sum of atomic charges =     0.000000

                    Cartesian Multipole Moments
 -----------------------------------------------------------------
    Charge (ESU x 10^10)
                -0.0000
    Dipole Moment (Debye)
         X       2.1806      Y       0.1398      Z       3.1614
       Tot       3.8430
    Quadrupole Moments (Debye-Ang)
        XX     -93.7668     XY       4.5119     YY     -86.1285
        XZ      -4.7432     YZ      -8.2648     ZZ     -95.9840

 Total job time:  57.72s(wall), 1995.55s(cpu)
        *  Thank you very much for using Q-Chem.  Have a nice day.  *
