 Q-Chem 5.4, Q-Chem, Inc., Pleasanton, CA (2021)
 Q-Chem 5.4.0 for Intel X86 EM64T Linux

User input:
--------------------------------------------------------------
$molecule
0 1
C	-0.092482	-0.987267	0.976939
S	-0.013182	-0.085967	2.484439
C	0.123118	1.480633	1.695839
C	-0.012882	-0.086367	-0.090961
C	0.105918	1.298733	0.290539
S	-0.031282	-0.329267	-1.828561
C	0.115818	1.416233	-2.077561
C	0.175118	2.122133	-0.885661
F	0.286818	3.454033	-0.842161
C	0.156818	1.862433	-3.479161
O	0.097618	1.094833	-4.429561
O	0.267018	3.208433	-3.592261
C	0.315418	3.701233	-4.939261
H	0.404418	4.798633	-4.856161
H	-0.605082	3.427033	-5.493261
H	1.185918	3.280833	-5.482361
C	-0.092482	-2.422467	0.976939
H	0.919818	-2.430467	0.600539
H	0.195318	-3.100367	1.766839
H	-0.420382	-2.953567	0.095539
H	0.202318	2.401533	2.283439
$end

$rem
JOBTYPE		SP
EXCHANGE	HF
CORRELATION	pRIMP2
BASIS		cc-pvtz
METHOD		rimp2
AUX_BASIS	rimp2-cc-pvtz
SOLVENT_METHOD	PCM
PURECART	11111
SYMMETRY	false
MEM_TOTAL	110000
SCF_CONVERGENCE = 6
THRESH=10
GUI = 2
$end

$solvent
dielectric 4.90
$end
--------------------------------------------------------------

             Standard Nuclear Orientation (Angstroms)
    I     Atom           X                Y                Z
 ----------------------------------------------------------------
    1      C      -0.0924820000    -0.9872670000     0.9769390000
    2      S      -0.0131820000    -0.0859670000     2.4844390000
    3      C       0.1231180000     1.4806330000     1.6958390000
    4      C      -0.0128820000    -0.0863670000    -0.0909610000
    5      C       0.1059180000     1.2987330000     0.2905390000
    6      S      -0.0312820000    -0.3292670000    -1.8285610000
    7      C       0.1158180000     1.4162330000    -2.0775610000
    8      C       0.1751180000     2.1221330000    -0.8856610000
    9      F       0.2868180000     3.4540330000    -0.8421610000
   10      C       0.1568180000     1.8624330000    -3.4791610000
   11      O       0.0976180000     1.0948330000    -4.4295610000
   12      O       0.2670180000     3.2084330000    -3.5922610000
   13      C       0.3154180000     3.7012330000    -4.9392610000
   14      H       0.4044180000     4.7986330000    -4.8561610000
   15      H      -0.6050820000     3.4270330000    -5.4932610000
   16      H       1.1859180000     3.2808330000    -5.4823610000
   17      C      -0.0924820000    -2.4224670000     0.9769390000
   18      H       0.9198180000    -2.4304670000     0.6005390000
   19      H       0.1953180000    -3.1003670000     1.7668390000
   20      H      -0.4203820000    -2.9535670000     0.0955390000
   21      H       0.2023180000     2.4015330000     2.2834390000
 ----------------------------------------------------------------

   11   -1389.2732567907      5.15e-07  Convergence criterion met
 Total energy in the final basis set =    -1389.2732567907
        RIMP2         total energy =     -1391.7776171075 a.u.

                    Orbital Energies (a.u.)
 --------------------------------------------------------------

 Alpha MOs
 -- Occupied --
-92.0058 -91.9909 -26.3399 -20.6135 -20.5595 -11.4074 -11.3777 -11.3039
-11.2945 -11.2905 -11.2880 -11.2802 -11.2785 -11.2316  -9.0046  -8.9910
 -6.6854  -6.6848  -6.6843  -6.6721  -6.6714  -6.6702  -1.6572  -1.4658
 -1.3684  -1.2114  -1.1360  -1.0675  -1.0178  -0.9957  -0.9577  -0.9133
 -0.8627  -0.8039  -0.7880  -0.7585  -0.7303  -0.7221  -0.6923  -0.6832
 -0.6726  -0.6600  -0.6117  -0.5953  -0.5894  -0.5869  -0.5619  -0.5598
 -0.5327  -0.5287  -0.5106  -0.4993  -0.4724  -0.4712  -0.4692  -0.4613
 -0.3840  -0.3447  -0.2815

          Ground-State Mulliken Net Atomic Charges

     Atom                 Charge (a.u.)
  ----------------------------------------
      1 C                     0.056768
      2 S                     0.077171
      3 C                    -0.230104
      4 C                    -0.029742
      5 C                    -0.090659
      6 S                    -0.018148
      7 C                    -0.155376
      8 C                     0.385949
      9 F                    -0.208842
     10 C                     0.446001
     11 O                    -0.462153
     12 O                    -0.300657
     13 C                    -0.058696
     14 H                     0.121158
     15 H                     0.094814
     16 H                     0.094607
     17 C                    -0.393825
     18 H                     0.144057
     19 H                     0.167629
     20 H                     0.148296
     21 H                     0.211751
  ----------------------------------------
  Sum of atomic charges =     0.000000

                    Cartesian Multipole Moments
 -----------------------------------------------------------------
    Charge (ESU x 10^10)
                -0.0000
    Dipole Moment (Debye)
         X       0.8271      Y      -0.0723      Z       3.0596
       Tot       3.1702
    Quadrupole Moments (Debye-Ang)
        XX     -96.9821     XY      -0.7626     YY     -80.4268
        XZ       0.1761     YZ     -10.4314     ZZ     -96.9676

 Total job time:  54.22s(wall), 1944.68s(cpu)
        *  Thank you very much for using Q-Chem.  Have a nice day.  *
