 Q-Chem 5.4, Q-Chem, Inc., Pleasanton, CA (2021)
 Q-Chem 5.4.0 for Intel X86 EM64T Linux

User input:
--------------------------------------------------------------
$molecule
0 1
C	-0.518730	-0.851940	0.973964
S	-0.065930	-0.068640	2.481464
C	0.719670	1.293660	1.692864
C	-0.065830	-0.069040	-0.093936
C	0.627170	1.136060	0.287564
S	-0.185130	-0.281440	-1.831536
C	0.685870	1.238360	-2.080536
C	1.037870	1.852960	-0.888636
F	1.702070	3.012960	-0.845136
C	0.911570	1.625360	-3.482136
O	0.533470	0.954660	-4.432536
O	1.580270	2.798760	-3.595236
C	1.832370	3.224860	-4.942236
H	2.376870	4.181860	-4.859136
H	0.882270	3.365460	-5.496236
H	2.443670	2.476060	-5.485336
C	-0.518730	-2.287140	0.973964
H	-1.207230	-2.295140	1.806064
H	-1.162930	-2.965040	0.433764
H	0.205870	-2.818240	1.573264
H	1.180570	2.094760	2.280464
$end

$rem
JOBTYPE		SP
EXCHANGE	HF
CORRELATION	pRIMP2
BASIS		cc-pvtz
METHOD		rimp2
AUX_BASIS	rimp2-cc-pvtz
SOLVENT_METHOD	PCM
PURECART	11111
SYMMETRY	false
MEM_TOTAL	110000
SCF_CONVERGENCE = 6
THRESH=10
GUI = 2
$end

$solvent
dielectric 4.90
$end
--------------------------------------------------------------

             Standard Nuclear Orientation (Angstroms)
    I     Atom           X                Y                Z
 ----------------------------------------------------------------
    1      C      -0.5187300000    -0.8519400000     0.9739640000
    2      S      -0.0659300000    -0.0686400000     2.4814640000
    3      C       0.7196700000     1.2936600000     1.6928640000
    4      C      -0.0658300000    -0.0690400000    -0.0939360000
    5      C       0.6271700000     1.1360600000     0.2875640000
    6      S      -0.1851300000    -0.2814400000    -1.8315360000
    7      C       0.6858700000     1.2383600000    -2.0805360000
    8      C       1.0378700000     1.8529600000    -0.8886360000
    9      F       1.7020700000     3.0129600000    -0.8451360000
   10      C       0.9115700000     1.6253600000    -3.4821360000
   11      O       0.5334700000     0.9546600000    -4.4325360000
   12      O       1.5802700000     2.7987600000    -3.5952360000
   13      C       1.8323700000     3.2248600000    -4.9422360000
   14      H       2.3768700000     4.1818600000    -4.8591360000
   15      H       0.8822700000     3.3654600000    -5.4962360000
   16      H       2.4436700000     2.4760600000    -5.4853360000
   17      C      -0.5187300000    -2.2871400000     0.9739640000
   18      H      -1.2072300000    -2.2951400000     1.8060640000
   19      H      -1.1629300000    -2.9650400000     0.4337640000
   20      H       0.2058700000    -2.8182400000     1.5732640000
   21      H       1.1805700000     2.0947600000     2.2804640000
 ----------------------------------------------------------------

   11   -1389.2526415107      4.62e-07  Convergence criterion met
 Total energy in the final basis set =    -1389.2526415107
        RIMP2         total energy =     -1391.7611197274 a.u.

                    Orbital Energies (a.u.)
 --------------------------------------------------------------

 Alpha MOs
 -- Occupied --
-92.0070 -91.9936 -26.3407 -20.6135 -20.5595 -11.4075 -11.3789 -11.3044
-11.2941 -11.2881 -11.2877 -11.2856 -11.2789 -11.2227  -9.0060  -8.9937
 -6.6867  -6.6861  -6.6856  -6.6747  -6.6740  -6.6729  -1.6579  -1.4658
 -1.3684  -1.2136  -1.1377  -1.0647  -1.0200  -0.9939  -0.9588  -0.9116
 -0.8640  -0.8069  -0.7886  -0.7582  -0.7311  -0.7228  -0.6919  -0.6832
 -0.6726  -0.6602  -0.6102  -0.5980  -0.5902  -0.5801  -0.5642  -0.5587
 -0.5314  -0.5287  -0.5090  -0.4848  -0.4724  -0.4714  -0.4683  -0.4604
 -0.3860  -0.3449  -0.2886

          Ground-State Mulliken Net Atomic Charges

     Atom                 Charge (a.u.)
  ----------------------------------------
      1 C                    -0.037830
      2 S                     0.080086
      3 C                    -0.194794
      4 C                     0.021909
      5 C                    -0.097226
      6 S                     0.003580
      7 C                    -0.159352
      8 C                     0.392589
      9 F                    -0.208591
     10 C                     0.446159
     11 O                    -0.462570
     12 O                    -0.301046
     13 C                    -0.058506
     14 H                     0.121048
     15 H                     0.094766
     16 H                     0.094711
     17 C                    -0.371391
     18 H                     0.119881
     19 H                     0.159644
     20 H                     0.142682
     21 H                     0.214250
  ----------------------------------------
  Sum of atomic charges =     0.000000

                    Cartesian Multipole Moments
 -----------------------------------------------------------------
    Charge (ESU x 10^10)
                -0.0000
    Dipole Moment (Debye)
         X       0.8534      Y       0.6204      Z       3.6041
       Tot       3.7553
    Quadrupole Moments (Debye-Ang)
        XX     -93.6551     XY       6.1089     YY     -84.5335
        XZ      -4.1711     YZ      -9.4206     ZZ     -95.4415

 Total job time:  59.90s(wall), 2083.71s(cpu)
        *  Thank you very much for using Q-Chem.  Have a nice day.  *
