 Q-Chem 5.4, Q-Chem, Inc., Pleasanton, CA (2021)
 Q-Chem 5.4.0 for Intel X86 EM64T Linux

User input:
--------------------------------------------------------------
$molecule
0 1
C	-0.356589	-0.928548	0.978067
S	-0.046689	-0.078548	2.485567
C	0.490411	1.399452	1.696967
C	-0.046589	-0.078948	-0.089833
C	0.426711	1.228152	0.291667
S	-0.127189	-0.308748	-1.827433
C	0.466711	1.339152	-2.076433
C	0.706711	2.005552	-0.884533
F	1.159311	3.263252	-0.841033
C	0.621711	1.759552	-3.478033
O	0.365911	1.033352	-4.428433
O	1.076611	3.031152	-3.591133
C	1.250911	3.494552	-4.938133
H	1.620911	4.531652	-4.855033
H	0.290811	3.468052	-5.492133
H	1.982911	2.863252	-5.481233
C	-0.356589	-2.363748	0.978067
H	0.176911	-2.371748	0.039067
H	0.371611	-3.041648	1.398167
H	-1.174289	-2.894848	0.513667
H	0.805211	2.268452	2.284567
$end

$rem
JOBTYPE		SP
EXCHANGE	HF
CORRELATION	pRIMP2
BASIS		cc-pvtz
METHOD		rimp2
AUX_BASIS	rimp2-cc-pvtz
SOLVENT_METHOD	PCM
PURECART	11111
SYMMETRY	false
MEM_TOTAL	110000
SCF_CONVERGENCE = 6
THRESH=10
GUI = 2
$end

$solvent
dielectric 4.90
$end
--------------------------------------------------------------

             Standard Nuclear Orientation (Angstroms)
    I     Atom           X                Y                Z
 ----------------------------------------------------------------
    1      C      -0.3565890000    -0.9285480000     0.9780670000
    2      S      -0.0466890000    -0.0785480000     2.4855670000
    3      C       0.4904110000     1.3994520000     1.6969670000
    4      C      -0.0465890000    -0.0789480000    -0.0898330000
    5      C       0.4267110000     1.2281520000     0.2916670000
    6      S      -0.1271890000    -0.3087480000    -1.8274330000
    7      C       0.4667110000     1.3391520000    -2.0764330000
    8      C       0.7067110000     2.0055520000    -0.8845330000
    9      F       1.1593110000     3.2632520000    -0.8410330000
   10      C       0.6217110000     1.7595520000    -3.4780330000
   11      O       0.3659110000     1.0333520000    -4.4284330000
   12      O       1.0766110000     3.0311520000    -3.5911330000
   13      C       1.2509110000     3.4945520000    -4.9381330000
   14      H       1.6209110000     4.5316520000    -4.8550330000
   15      H       0.2908110000     3.4680520000    -5.4921330000
   16      H       1.9829110000     2.8632520000    -5.4812330000
   17      C      -0.3565890000    -2.3637480000     0.9780670000
   18      H       0.1769110000    -2.3717480000     0.0390670000
   19      H       0.3716110000    -3.0416480000     1.3981670000
   20      H      -1.1742890000    -2.8948480000     0.5136670000
   21      H       0.8052110000     2.2684520000     2.2845670000
 ----------------------------------------------------------------

   11   -1389.2639382212      4.73e-07  Convergence criterion met
 Total energy in the final basis set =    -1389.2639382212
        RIMP2         total energy =     -1391.7717404663 a.u.

                    Orbital Energies (a.u.)
 --------------------------------------------------------------

 Alpha MOs
 -- Occupied --
-92.0044 -91.9947 -26.3414 -20.6137 -20.5598 -11.4078 -11.3799 -11.2995
-11.2947 -11.2937 -11.2883 -11.2881 -11.2791 -11.2253  -9.0034  -8.9948
 -6.6841  -6.6835  -6.6831  -6.6758  -6.6751  -6.6740  -1.6585  -1.4661
 -1.3687  -1.2140  -1.1363  -1.0681  -1.0189  -0.9943  -0.9584  -0.9130
 -0.8636  -0.8053  -0.7892  -0.7593  -0.7300  -0.7233  -0.6943  -0.6835
 -0.6729  -0.6609  -0.6079  -0.6013  -0.5914  -0.5860  -0.5651  -0.5583
 -0.5337  -0.5301  -0.5077  -0.4883  -0.4733  -0.4718  -0.4644  -0.4582
 -0.3878  -0.3440  -0.2907

          Ground-State Mulliken Net Atomic Charges

     Atom                 Charge (a.u.)
  ----------------------------------------
      1 C                     0.022023
      2 S                     0.078378
      3 C                    -0.206370
      4 C                    -0.017928
      5 C                    -0.090389
      6 S                    -0.003213
      7 C                    -0.157499
      8 C                     0.388135
      9 F                    -0.207480
     10 C                     0.446291
     11 O                    -0.462776
     12 O                    -0.301035
     13 C                    -0.058424
     14 H                     0.121098
     15 H                     0.094814
     16 H                     0.094698
     17 C                    -0.376278
     18 H                     0.121940
     19 H                     0.162610
     20 H                     0.139198
     21 H                     0.212207
  ----------------------------------------
  Sum of atomic charges =     0.000000

                    Cartesian Multipole Moments
 -----------------------------------------------------------------
    Charge (ESU x 10^10)
                -0.0000
    Dipole Moment (Debye)
         X       1.0928      Y       0.5179      Z       2.6322
       Tot       2.8967
    Quadrupole Moments (Debye-Ang)
        XX     -95.4580     XY       2.7128     YY     -82.6819
        XZ      -2.0163     YZ      -8.2272     ZZ     -97.6461

 Total job time:  56.30s(wall), 1936.03s(cpu)
        *  Thank you very much for using Q-Chem.  Have a nice day.  *
