 Q-Chem 5.4, Q-Chem, Inc., Pleasanton, CA (2021)
 Q-Chem 5.4.0 for Intel X86 EM64T Linux

User input:
--------------------------------------------------------------
$molecule
0 1
C	-0.268438	-0.955820	0.973626
S	-0.033838	-0.082020	2.481126
C	0.372462	1.437180	1.692526
C	-0.033638	-0.082420	-0.094274
C	0.323962	1.260980	0.287226
S	-0.093938	-0.318420	-1.831874
C	0.354162	1.374980	-2.080874
C	0.535062	2.059780	-0.888974
F	0.876362	3.352180	-0.845474
C	0.471862	1.807280	-3.482474
O	0.280362	1.061580	-4.432874
O	0.814262	3.113680	-3.595574
C	0.947362	3.590580	-4.942574
H	1.225662	4.655880	-4.859474
H	-0.006738	3.480480	-5.496574
H	1.731662	3.025480	-5.485674
C	-0.268438	-2.391020	0.973626
H	-0.630838	-2.399020	1.991026
H	-1.058538	-3.068920	0.686326
H	0.617462	-2.922120	1.289026
H	0.610262	2.330280	2.280126
$end

$rem
JOBTYPE		SP
EXCHANGE	HF
CORRELATION	pRIMP2
BASIS		cc-pvtz
METHOD		rimp2
AUX_BASIS	rimp2-cc-pvtz
SOLVENT_METHOD	PCM
PURECART	11111
SYMMETRY	false
MEM_TOTAL	110000
SCF_CONVERGENCE = 6
THRESH=10
GUI = 2
$end

$solvent
dielectric 4.90
$end
--------------------------------------------------------------

             Standard Nuclear Orientation (Angstroms)
    I     Atom           X                Y                Z
 ----------------------------------------------------------------
    1      C      -0.2684380000    -0.9558200000     0.9736260000
    2      S      -0.0338380000    -0.0820200000     2.4811260000
    3      C       0.3724620000     1.4371800000     1.6925260000
    4      C      -0.0336380000    -0.0824200000    -0.0942740000
    5      C       0.3239620000     1.2609800000     0.2872260000
    6      S      -0.0939380000    -0.3184200000    -1.8318740000
    7      C       0.3541620000     1.3749800000    -2.0808740000
    8      C       0.5350620000     2.0597800000    -0.8889740000
    9      F       0.8763620000     3.3521800000    -0.8454740000
   10      C       0.4718620000     1.8072800000    -3.4824740000
   11      O       0.2803620000     1.0615800000    -4.4328740000
   12      O       0.8142620000     3.1136800000    -3.5955740000
   13      C       0.9473620000     3.5905800000    -4.9425740000
   14      H       1.2256620000     4.6558800000    -4.8594740000
   15      H      -0.0067380000     3.4804800000    -5.4965740000
   16      H       1.7316620000     3.0254800000    -5.4856740000
   17      C      -0.2684380000    -2.3910200000     0.9736260000
   18      H      -0.6308380000    -2.3990200000     1.9910260000
   19      H      -1.0585380000    -3.0689200000     0.6863260000
   20      H       0.6174620000    -2.9221200000     1.2890260000
   21      H       0.6102620000     2.3302800000     2.2801260000
 ----------------------------------------------------------------

   11   -1389.2664913745      4.76e-07  Convergence criterion met
 Total energy in the final basis set =    -1389.2664913745
        RIMP2         total energy =     -1391.7723520316 a.u.

                    Orbital Energies (a.u.)
 --------------------------------------------------------------

 Alpha MOs
 -- Occupied --
-92.0083 -91.9923 -26.3404 -20.6134 -20.5595 -11.4073 -11.3784 -11.3009
-11.2941 -11.2910 -11.2880 -11.2854 -11.2787 -11.2250  -9.0071  -8.9924
 -6.6879  -6.6873  -6.6868  -6.6734  -6.6727  -6.6716  -1.6576  -1.4657
 -1.3683  -1.2125  -1.1371  -1.0647  -1.0198  -0.9949  -0.9587  -0.9123
 -0.8638  -0.8066  -0.7884  -0.7580  -0.7312  -0.7225  -0.6914  -0.6831
 -0.6725  -0.6605  -0.6085  -0.6008  -0.5915  -0.5779  -0.5655  -0.5571
 -0.5377  -0.5298  -0.5079  -0.4806  -0.4730  -0.4712  -0.4656  -0.4621
 -0.3905  -0.3451  -0.2907

          Ground-State Mulliken Net Atomic Charges

     Atom                 Charge (a.u.)
  ----------------------------------------
      1 C                     0.011220
      2 S                     0.077918
      3 C                    -0.206629
      4 C                    -0.002510
      5 C                    -0.094205
      6 S                    -0.003054
      7 C                    -0.158844
      8 C                     0.393104
      9 F                    -0.208889
     10 C                     0.445115
     11 O                    -0.462332
     12 O                    -0.300875
     13 C                    -0.058515
     14 H                     0.120995
     15 H                     0.094748
     16 H                     0.094685
     17 C                    -0.364643
     18 H                     0.112267
     19 H                     0.160235
     20 H                     0.135802
     21 H                     0.214407
  ----------------------------------------
  Sum of atomic charges =     0.000000

                    Cartesian Multipole Moments
 -----------------------------------------------------------------
    Charge (ESU x 10^10)
                -0.0000
    Dipole Moment (Debye)
         X       0.3891      Y       0.6601      Z       3.7819
       Tot       3.8588
    Quadrupole Moments (Debye-Ang)
        XX     -95.5271     XY       3.5498     YY     -82.1633
        XZ      -2.2101     YZ     -10.9264     ZZ     -95.4534

 Total job time:  61.05s(wall), 2230.39s(cpu)
        *  Thank you very much for using Q-Chem.  Have a nice day.  *
