 Q-Chem 5.4, Q-Chem, Inc., Pleasanton, CA (2021)
 Q-Chem 5.4.0 for Intel X86 EM64T Linux

User input:
--------------------------------------------------------------
$molecule
0 1
C	-0.090993	-0.987267	0.973641
S	-0.011693	-0.085967	2.481141
C	0.124607	1.480633	1.692541
C	-0.011393	-0.086367	-0.094259
C	0.107407	1.298733	0.287241
S	-0.029793	-0.329267	-1.831859
C	0.117307	1.416233	-2.080859
C	0.176607	2.122133	-0.888959
F	0.288307	3.454033	-0.845459
C	0.158307	1.862433	-3.482459
O	0.099107	1.094833	-4.432859
O	0.268507	3.208433	-3.595559
C	0.316907	3.701233	-4.942559
H	0.405907	4.798633	-4.859459
H	-0.603593	3.427033	-5.496559
H	1.187407	3.280833	-5.485659
C	-0.090993	-2.422467	0.973641
H	0.103907	-2.430467	2.035841
H	-0.918893	-3.100367	1.119941
H	0.833907	-2.953567	0.803841
H	0.203807	2.401533	2.280141
$end

$rem
JOBTYPE		SP
EXCHANGE	HF
CORRELATION	pRIMP2
BASIS		cc-pvtz
METHOD		rimp2
AUX_BASIS	rimp2-cc-pvtz
SOLVENT_METHOD	PCM
PURECART	11111
SYMMETRY	false
MEM_TOTAL	110000
SCF_CONVERGENCE = 6
THRESH=10
GUI = 2
$end

$solvent
dielectric 4.90
$end
--------------------------------------------------------------

             Standard Nuclear Orientation (Angstroms)
    I     Atom           X                Y                Z
 ----------------------------------------------------------------
    1      C      -0.0909930000    -0.9872670000     0.9736410000
    2      S      -0.0116930000    -0.0859670000     2.4811410000
    3      C       0.1246070000     1.4806330000     1.6925410000
    4      C      -0.0113930000    -0.0863670000    -0.0942590000
    5      C       0.1074070000     1.2987330000     0.2872410000
    6      S      -0.0297930000    -0.3292670000    -1.8318590000
    7      C       0.1173070000     1.4162330000    -2.0808590000
    8      C       0.1766070000     2.1221330000    -0.8889590000
    9      F       0.2883070000     3.4540330000    -0.8454590000
   10      C       0.1583070000     1.8624330000    -3.4824590000
   11      O       0.0991070000     1.0948330000    -4.4328590000
   12      O       0.2685070000     3.2084330000    -3.5955590000
   13      C       0.3169070000     3.7012330000    -4.9425590000
   14      H       0.4059070000     4.7986330000    -4.8594590000
   15      H      -0.6035930000     3.4270330000    -5.4965590000
   16      H       1.1874070000     3.2808330000    -5.4856590000
   17      C      -0.0909930000    -2.4224670000     0.9736410000
   18      H       0.1039070000    -2.4304670000     2.0358410000
   19      H      -0.9188930000    -3.1003670000     1.1199410000
   20      H       0.8339070000    -2.9535670000     0.8038410000
   21      H       0.2038070000     2.4015330000     2.2801410000
 ----------------------------------------------------------------

   11   -1389.2698830110      4.81e-07  Convergence criterion met
 Total energy in the final basis set =    -1389.2698830110
        RIMP2         total energy =     -1391.7750562677 a.u.

                    Orbital Energies (a.u.)
 --------------------------------------------------------------

 Alpha MOs
 -- Occupied --
-92.0083 -91.9920 -26.3404 -20.6133 -20.5594 -11.4073 -11.3784 -11.3000
-11.2941 -11.2923 -11.2880 -11.2852 -11.2786 -11.2254  -9.0071  -8.9921
 -6.6879  -6.6873  -6.6868  -6.6732  -6.6725  -6.6713  -1.6577  -1.4657
 -1.3683  -1.2122  -1.1369  -1.0647  -1.0198  -0.9951  -0.9587  -0.9124
 -0.8638  -0.8066  -0.7883  -0.7579  -0.7313  -0.7225  -0.6913  -0.6831
 -0.6725  -0.6606  -0.6066  -0.6031  -0.5919  -0.5768  -0.5661  -0.5566
 -0.5400  -0.5298  -0.5075  -0.4800  -0.4734  -0.4711  -0.4666  -0.4595
 -0.3918  -0.3451  -0.2912

          Ground-State Mulliken Net Atomic Charges

     Atom                 Charge (a.u.)
  ----------------------------------------
      1 C                     0.035020
      2 S                     0.076197
      3 C                    -0.210607
      4 C                    -0.005160
      5 C                    -0.093333
      6 S                    -0.004190
      7 C                    -0.158031
      8 C                     0.391297
      9 F                    -0.208727
     10 C                     0.445197
     11 O                    -0.462383
     12 O                    -0.300821
     13 C                    -0.058685
     14 H                     0.121043
     15 H                     0.094796
     16 H                     0.094659
     17 C                    -0.371529
     18 H                     0.112045
     19 H                     0.149066
     20 H                     0.139431
     21 H                     0.214715
  ----------------------------------------
  Sum of atomic charges =     0.000000

                    Cartesian Multipole Moments
 -----------------------------------------------------------------
    Charge (ESU x 10^10)
                -0.0000
    Dipole Moment (Debye)
         X       0.3250      Y       0.6750      Z       3.8323
       Tot       3.9049
    Quadrupole Moments (Debye-Ang)
        XX     -96.1939     XY       0.7511     YY     -81.4295
        XZ      -0.7182     YZ     -11.4223     ZZ     -95.4684

 Total job time:  55.97s(wall), 1978.88s(cpu)
        *  Thank you very much for using Q-Chem.  Have a nice day.  *
