 Q-Chem 5.4, Q-Chem, Inc., Pleasanton, CA (2021)
 Q-Chem 5.4.0 for Intel X86 EM64T Linux

User input:
--------------------------------------------------------------
$molecule
0 1
C	-0.092642	-0.987267	0.975331
S	-0.013342	-0.085967	2.482831
C	0.122958	1.480633	1.694231
C	-0.013042	-0.086367	-0.092569
C	0.105758	1.298733	0.288931
S	-0.031442	-0.329267	-1.830169
C	0.115658	1.416233	-2.079169
C	0.174958	2.122133	-0.887269
F	0.286658	3.454033	-0.843769
C	0.156658	1.862433	-3.480769
O	0.097458	1.094833	-4.431169
O	0.266858	3.208433	-3.593869
C	0.315258	3.701233	-4.940869
H	0.404258	4.798633	-4.857769
H	-0.605242	3.427033	-5.494869
H	1.185758	3.280833	-5.483969
C	-0.092642	-2.422467	0.975331
H	0.924758	-2.430467	1.337731
H	-0.379942	-3.100367	1.765431
H	0.222758	-2.953567	0.089431
H	0.202158	2.401533	2.281831
$end

$rem
JOBTYPE		SP
EXCHANGE	HF
CORRELATION	pRIMP2
BASIS		cc-pvtz
METHOD		rimp2
AUX_BASIS	rimp2-cc-pvtz
SOLVENT_METHOD	PCM
PURECART	11111
SYMMETRY	false
MEM_TOTAL	110000
SCF_CONVERGENCE = 6
THRESH=10
GUI = 2
$end

$solvent
dielectric 4.90
$end
--------------------------------------------------------------

             Standard Nuclear Orientation (Angstroms)
    I     Atom           X                Y                Z
 ----------------------------------------------------------------
    1      C      -0.0926420000    -0.9872670000     0.9753310000
    2      S      -0.0133420000    -0.0859670000     2.4828310000
    3      C       0.1229580000     1.4806330000     1.6942310000
    4      C      -0.0130420000    -0.0863670000    -0.0925690000
    5      C       0.1057580000     1.2987330000     0.2889310000
    6      S      -0.0314420000    -0.3292670000    -1.8301690000
    7      C       0.1156580000     1.4162330000    -2.0791690000
    8      C       0.1749580000     2.1221330000    -0.8872690000
    9      F       0.2866580000     3.4540330000    -0.8437690000
   10      C       0.1566580000     1.8624330000    -3.4807690000
   11      O       0.0974580000     1.0948330000    -4.4311690000
   12      O       0.2668580000     3.2084330000    -3.5938690000
   13      C       0.3152580000     3.7012330000    -4.9408690000
   14      H       0.4042580000     4.7986330000    -4.8577690000
   15      H      -0.6052420000     3.4270330000    -5.4948690000
   16      H       1.1857580000     3.2808330000    -5.4839690000
   17      C      -0.0926420000    -2.4224670000     0.9753310000
   18      H       0.9247580000    -2.4304670000     1.3377310000
   19      H      -0.3799420000    -3.1003670000     1.7654310000
   20      H       0.2227580000    -2.9535670000     0.0894310000
   21      H       0.2021580000     2.4015330000     2.2818310000
 ----------------------------------------------------------------

   11   -1389.2731639591      5.31e-07  Convergence criterion met
 Total energy in the final basis set =    -1389.2731639591
        RIMP2         total energy =     -1391.7764551248 a.u.

                    Orbital Energies (a.u.)
 --------------------------------------------------------------

 Alpha MOs
 -- Occupied --
-92.0051 -91.9896 -26.3396 -20.6133 -20.5594 -11.4071 -11.3773 -11.3030
-11.2942 -11.2925 -11.2879 -11.2803 -11.2781 -11.2314  -9.0041  -8.9898
 -6.6850  -6.6844  -6.6838  -6.6708  -6.6701  -6.6690  -1.6569  -1.4656
 -1.3682  -1.2112  -1.1364  -1.0666  -1.0180  -0.9956  -0.9577  -0.9130
 -0.8626  -0.8045  -0.7877  -0.7580  -0.7309  -0.7219  -0.6915  -0.6830
 -0.6724  -0.6598  -0.6118  -0.5968  -0.5918  -0.5807  -0.5626  -0.5570
 -0.5319  -0.5275  -0.5166  -0.4985  -0.4721  -0.4710  -0.4699  -0.4593
 -0.3850  -0.3456  -0.2808

          Ground-State Mulliken Net Atomic Charges

     Atom                 Charge (a.u.)
  ----------------------------------------
      1 C                     0.050748
      2 S                     0.071150
      3 C                    -0.225269
      4 C                    -0.029115
      5 C                    -0.093092
      6 S                    -0.015307
      7 C                    -0.156957
      8 C                     0.389724
      9 F                    -0.209200
     10 C                     0.445423
     11 O                    -0.461960
     12 O                    -0.300676
     13 C                    -0.058721
     14 H                     0.121100
     15 H                     0.094806
     16 H                     0.094594
     17 C                    -0.387749
     18 H                     0.145414
     19 H                     0.163335
     20 H                     0.148782
     21 H                     0.212968
  ----------------------------------------
  Sum of atomic charges =     0.000000

                    Cartesian Multipole Moments
 -----------------------------------------------------------------
    Charge (ESU x 10^10)
                -0.0000
    Dipole Moment (Debye)
         X       0.8500      Y      -0.0265      Z       3.5354
       Tot       3.6363
    Quadrupole Moments (Debye-Ang)
        XX     -96.9783     XY      -0.7108     YY     -80.3941
        XZ      -0.2891     YZ     -11.4759     ZZ     -96.1238

 Total job time:  56.48s(wall), 2105.40s(cpu)
        *  Thank you very much for using Q-Chem.  Have a nice day.  *
