 Q-Chem 5.4, Q-Chem, Inc., Pleasanton, CA (2021)
 Q-Chem 5.4.0 for Intel X86 EM64T Linux

User input:
--------------------------------------------------------------
$molecule
0 1
C	-0.180560	-0.975447	0.978269
S	-0.022960	-0.084547	2.485769
C	0.249340	1.464253	1.697169
C	-0.022760	-0.084847	-0.089631
C	0.216340	1.284553	0.291869
S	-0.062260	-0.325247	-1.827231
C	0.236440	1.400753	-2.076231
C	0.357040	2.098753	-0.884331
F	0.584440	3.415953	-0.840831
C	0.316140	1.841653	-3.477831
O	0.190340	1.082153	-4.428231
O	0.543340	3.172953	-3.590931
C	0.634440	3.659653	-4.937931
H	0.818740	4.745153	-4.854831
H	-0.306460	3.466753	-5.491931
H	1.464940	3.165053	-5.481031
C	-0.180560	-2.410647	0.978269
H	-0.000360	-2.418647	-0.086531
H	0.647440	-3.088547	1.123969
H	-1.107760	-2.941747	0.821569
H	0.408440	2.374753	2.284769
$end

$rem
JOBTYPE		SP
EXCHANGE	HF
CORRELATION	pRIMP2
BASIS		cc-pvtz
METHOD		rimp2
AUX_BASIS	rimp2-cc-pvtz
SOLVENT_METHOD	PCM
PURECART	11111
SYMMETRY	false
MEM_TOTAL	110000
SCF_CONVERGENCE = 6
THRESH=10
GUI = 2
$end

$solvent
dielectric 4.90
$end
--------------------------------------------------------------

             Standard Nuclear Orientation (Angstroms)
    I     Atom           X                Y                Z
 ----------------------------------------------------------------
    1      C      -0.1805600000    -0.9754470000     0.9782690000
    2      S      -0.0229600000    -0.0845470000     2.4857690000
    3      C       0.2493400000     1.4642530000     1.6971690000
    4      C      -0.0227600000    -0.0848470000    -0.0896310000
    5      C       0.2163400000     1.2845530000     0.2918690000
    6      S      -0.0622600000    -0.3252470000    -1.8272310000
    7      C       0.2364400000     1.4007530000    -2.0762310000
    8      C       0.3570400000     2.0987530000    -0.8843310000
    9      F       0.5844400000     3.4159530000    -0.8408310000
   10      C       0.3161400000     1.8416530000    -3.4778310000
   11      O       0.1903400000     1.0821530000    -4.4282310000
   12      O       0.5433400000     3.1729530000    -3.5909310000
   13      C       0.6344400000     3.6596530000    -4.9379310000
   14      H       0.8187400000     4.7451530000    -4.8548310000
   15      H      -0.3064600000     3.4667530000    -5.4919310000
   16      H       1.4649400000     3.1650530000    -5.4810310000
   17      C      -0.1805600000    -2.4106470000     0.9782690000
   18      H      -0.0003600000    -2.4186470000    -0.0865310000
   19      H       0.6474400000    -3.0885470000     1.1239690000
   20      H      -1.1077600000    -2.9417470000     0.8215690000
   21      H       0.4084400000     2.3747530000     2.2847690000
 ----------------------------------------------------------------

   11   -1389.2708928608      4.59e-07  Convergence criterion met
 Total energy in the final basis set =    -1389.2708928608
        RIMP2         total energy =     -1391.7772084996 a.u.

                    Orbital Energies (a.u.)
 --------------------------------------------------------------

 Alpha MOs
 -- Occupied --
-92.0029 -91.9941 -26.3414 -20.6137 -20.5598 -11.4078 -11.3799 -11.3005
-11.2947 -11.2938 -11.2902 -11.2883 -11.2789 -11.2261  -9.0020  -8.9943
 -6.6828  -6.6822  -6.6818  -6.6753  -6.6746  -6.6735  -1.6585  -1.4661
 -1.3687  -1.2138  -1.1354  -1.0682  -1.0188  -0.9948  -0.9583  -0.9142
 -0.8636  -0.8054  -0.7891  -0.7594  -0.7301  -0.7233  -0.6946  -0.6835
 -0.6729  -0.6612  -0.6068  -0.6047  -0.5917  -0.5833  -0.5662  -0.5562
 -0.5387  -0.5302  -0.5071  -0.4871  -0.4734  -0.4718  -0.4644  -0.4520
 -0.3927  -0.3447  -0.2925

          Ground-State Mulliken Net Atomic Charges

     Atom                 Charge (a.u.)
  ----------------------------------------
      1 C                     0.036224
      2 S                     0.074175
      3 C                    -0.201029
      4 C                    -0.015353
      5 C                    -0.098843
      6 S                    -0.008749
      7 C                    -0.157986
      8 C                     0.390544
      9 F                    -0.207610
     10 C                     0.444786
     11 O                    -0.462962
     12 O                    -0.301056
     13 C                    -0.058642
     14 H                     0.121156
     15 H                     0.094802
     16 H                     0.094735
     17 C                    -0.362958
     18 H                     0.114158
     19 H                     0.154364
     20 H                     0.137466
     21 H                     0.212776
  ----------------------------------------
  Sum of atomic charges =     0.000000

                    Cartesian Multipole Moments
 -----------------------------------------------------------------
    Charge (ESU x 10^10)
                -0.0000
    Dipole Moment (Debye)
         X       0.4927      Y       0.6295      Z       2.5708
       Tot       2.6922
    Quadrupole Moments (Debye-Ang)
        XX     -95.9532     XY       1.5700     YY     -81.4822
        XZ      -1.0747     YZ      -8.2874     ZZ     -98.0859

 Total job time:  231.89s(wall), 1989.67s(cpu)
        *  Thank you very much for using Q-Chem.  Have a nice day.  *
