 Q-Chem 5.4, Q-Chem, Inc., Pleasanton, CA (2021)
 Q-Chem 5.4.0 for Intel X86 EM64T Linux

User input:
--------------------------------------------------------------
$molecule
0 1
C	-0.089715	-0.987267	0.978188
S	-0.010415	-0.085967	2.485688
C	0.125885	1.480633	1.697088
C	-0.010115	-0.086367	-0.089712
C	0.108685	1.298733	0.291788
S	-0.028515	-0.329267	-1.827312
C	0.118585	1.416233	-2.076312
C	0.177885	2.122133	-0.884412
F	0.289585	3.454033	-0.840912
C	0.159585	1.862433	-3.477912
O	0.100385	1.094833	-4.428312
O	0.269785	3.208433	-3.591012
C	0.318185	3.701233	-4.938012
H	0.407185	4.798633	-4.854912
H	-0.602315	3.427033	-5.492012
H	1.188685	3.280833	-5.481112
C	-0.089715	-2.422467	0.978188
H	-0.284615	-2.430467	-0.084012
H	0.738185	-3.100367	0.831888
H	-1.014615	-2.953567	1.147988
H	0.205085	2.401533	2.284688
$end

$rem
JOBTYPE		SP
EXCHANGE	HF
CORRELATION	pRIMP2
BASIS		cc-pvtz
METHOD		rimp2
AUX_BASIS	rimp2-cc-pvtz
SOLVENT_METHOD	PCM
PURECART	11111
SYMMETRY	false
MEM_TOTAL	110000
SCF_CONVERGENCE = 6
THRESH=10
GUI = 2
$end

$solvent
dielectric 4.90
$end
--------------------------------------------------------------

             Standard Nuclear Orientation (Angstroms)
    I     Atom           X                Y                Z
 ----------------------------------------------------------------
    1      C      -0.0897150000    -0.9872670000     0.9781880000
    2      S      -0.0104150000    -0.0859670000     2.4856880000
    3      C       0.1258850000     1.4806330000     1.6970880000
    4      C      -0.0101150000    -0.0863670000    -0.0897120000
    5      C       0.1086850000     1.2987330000     0.2917880000
    6      S      -0.0285150000    -0.3292670000    -1.8273120000
    7      C       0.1185850000     1.4162330000    -2.0763120000
    8      C       0.1778850000     2.1221330000    -0.8844120000
    9      F       0.2895850000     3.4540330000    -0.8409120000
   10      C       0.1595850000     1.8624330000    -3.4779120000
   11      O       0.1003850000     1.0948330000    -4.4283120000
   12      O       0.2697850000     3.2084330000    -3.5910120000
   13      C       0.3181850000     3.7012330000    -4.9380120000
   14      H       0.4071850000     4.7986330000    -4.8549120000
   15      H      -0.6023150000     3.4270330000    -5.4920120000
   16      H       1.1886850000     3.2808330000    -5.4811120000
   17      C      -0.0897150000    -2.4224670000     0.9781880000
   18      H      -0.2846150000    -2.4304670000    -0.0840120000
   19      H       0.7381850000    -3.1003670000     0.8318880000
   20      H      -1.0146150000    -2.9535670000     1.1479880000
   21      H       0.2050850000     2.4015330000     2.2846880000
 ----------------------------------------------------------------

   11   -1389.2728488527      4.57e-07  Convergence criterion met
 Total energy in the final basis set =    -1389.2728488527
        RIMP2         total energy =     -1391.7786920953 a.u.

                    Orbital Energies (a.u.)
 --------------------------------------------------------------

 Alpha MOs
 -- Occupied --
-92.0028 -91.9938 -26.3413 -20.6137 -20.5598 -11.4078 -11.3798 -11.3003
-11.2947 -11.2942 -11.2902 -11.2883 -11.2788 -11.2265  -9.0020  -8.9940
 -6.6827  -6.6821  -6.6817  -6.6751  -6.6743  -6.6732  -1.6585  -1.4661
 -1.3687  -1.2136  -1.1352  -1.0680  -1.0188  -0.9950  -0.9583  -0.9144
 -0.8635  -0.8053  -0.7891  -0.7593  -0.7301  -0.7233  -0.6946  -0.6835
 -0.6729  -0.6612  -0.6089  -0.6028  -0.5917  -0.5821  -0.5664  -0.5555
 -0.5405  -0.5301  -0.5070  -0.4872  -0.4735  -0.4718  -0.4647  -0.4519
 -0.3931  -0.3449  -0.2922

          Ground-State Mulliken Net Atomic Charges

     Atom                 Charge (a.u.)
  ----------------------------------------
      1 C                     0.042863
      2 S                     0.072806
      3 C                    -0.200873
      4 C                    -0.014895
      5 C                    -0.100101
      6 S                    -0.010055
      7 C                    -0.157945
      8 C                     0.390617
      9 F                    -0.207648
     10 C                     0.444651
     11 O                    -0.462988
     12 O                    -0.300980
     13 C                    -0.058692
     14 H                     0.121187
     15 H                     0.094814
     16 H                     0.094712
     17 C                    -0.363849
     18 H                     0.112079
     19 H                     0.148775
     20 H                     0.142490
     21 H                     0.213031
  ----------------------------------------
  Sum of atomic charges =     0.000000

                    Cartesian Multipole Moments
 -----------------------------------------------------------------
    Charge (ESU x 10^10)
                -0.0000
    Dipole Moment (Debye)
         X       0.0619      Y       0.6305      Z       2.5806
       Tot       2.6572
    Quadrupole Moments (Debye-Ang)
        XX     -96.1226     XY       1.2728     YY     -81.1393
        XZ      -0.8721     YZ      -8.3665     ZZ     -98.1189

 Total job time:  57.11s(wall), 1968.05s(cpu)
        *  Thank you very much for using Q-Chem.  Have a nice day.  *
