 Q-Chem 5.4, Q-Chem, Inc., Pleasanton, CA (2021)
 Q-Chem 5.4.0 for Intel X86 EM64T Linux

User input:
--------------------------------------------------------------
$molecule
0 1
C	-0.178095	-0.975447	0.976498
S	-0.020495	-0.084547	2.483998
C	0.251805	1.464253	1.695398
C	-0.020295	-0.084847	-0.091402
C	0.218805	1.284553	0.290098
S	-0.059795	-0.325247	-1.829002
C	0.238905	1.400753	-2.078002
C	0.359505	2.098753	-0.886102
F	0.586905	3.415953	-0.842602
C	0.318605	1.841653	-3.479602
O	0.192805	1.082153	-4.430002
O	0.545805	3.172953	-3.592702
C	0.636905	3.659653	-4.939702
H	0.821205	4.745153	-4.856602
H	-0.303995	3.466753	-5.493702
H	1.467405	3.165053	-5.482802
C	-0.178095	-2.410647	0.976498
H	-1.195495	-2.418647	0.614098
H	0.109205	-3.088547	0.186398
H	-0.493495	-2.941747	1.862398
H	0.410905	2.374753	2.282998
$end

$rem
JOBTYPE		SP
EXCHANGE	HF
CORRELATION	pRIMP2
BASIS		cc-pvtz
METHOD		rimp2
AUX_BASIS	rimp2-cc-pvtz
SOLVENT_METHOD	PCM
PURECART	11111
SYMMETRY	false
MEM_TOTAL	110000
SCF_CONVERGENCE = 6
THRESH=10
GUI = 2
$end

$solvent
dielectric 4.90
$end
--------------------------------------------------------------

             Standard Nuclear Orientation (Angstroms)
    I     Atom           X                Y                Z
 ----------------------------------------------------------------
    1      C      -0.1780950000    -0.9754470000     0.9764980000
    2      S      -0.0204950000    -0.0845470000     2.4839980000
    3      C       0.2518050000     1.4642530000     1.6953980000
    4      C      -0.0202950000    -0.0848470000    -0.0914020000
    5      C       0.2188050000     1.2845530000     0.2900980000
    6      S      -0.0597950000    -0.3252470000    -1.8290020000
    7      C       0.2389050000     1.4007530000    -2.0780020000
    8      C       0.3595050000     2.0987530000    -0.8861020000
    9      F       0.5869050000     3.4159530000    -0.8426020000
   10      C       0.3186050000     1.8416530000    -3.4796020000
   11      O       0.1928050000     1.0821530000    -4.4300020000
   12      O       0.5458050000     3.1729530000    -3.5927020000
   13      C       0.6369050000     3.6596530000    -4.9397020000
   14      H       0.8212050000     4.7451530000    -4.8566020000
   15      H      -0.3039950000     3.4667530000    -5.4937020000
   16      H       1.4674050000     3.1650530000    -5.4828020000
   17      C      -0.1780950000    -2.4106470000     0.9764980000
   18      H      -1.1954950000    -2.4186470000     0.6140980000
   19      H       0.1092050000    -3.0885470000     0.1863980000
   20      H      -0.4934950000    -2.9417470000     1.8623980000
   21      H       0.4109050000     2.3747530000     2.2829980000
 ----------------------------------------------------------------

   11   -1389.2701700475      5.08e-07  Convergence criterion met
 Total energy in the final basis set =    -1389.2701700475
        RIMP2         total energy =     -1391.7751746948 a.u.

                    Orbital Energies (a.u.)
 --------------------------------------------------------------

 Alpha MOs
 -- Occupied --
-92.0059 -91.9911 -26.3399 -20.6134 -20.5595 -11.4073 -11.3777 -11.3010
-11.2943 -11.2922 -11.2880 -11.2810 -11.2784 -11.2298  -9.0047  -8.9912
 -6.6855  -6.6849  -6.6844  -6.6723  -6.6716  -6.6705  -1.6572  -1.4657
 -1.3684  -1.2113  -1.1358  -1.0667  -1.0179  -0.9957  -0.9577  -0.9135
 -0.8628  -0.8042  -0.7880  -0.7584  -0.7300  -0.7221  -0.6928  -0.6831
 -0.6725  -0.6601  -0.6127  -0.5945  -0.5880  -0.5827  -0.5618  -0.5591
 -0.5350  -0.5288  -0.5101  -0.4989  -0.4729  -0.4712  -0.4702  -0.4594
 -0.3836  -0.3447  -0.2818

          Ground-State Mulliken Net Atomic Charges

     Atom                 Charge (a.u.)
  ----------------------------------------
      1 C                     0.048343
      2 S                     0.082361
      3 C                    -0.227253
      4 C                    -0.039208
      5 C                    -0.086377
      6 S                    -0.014728
      7 C                    -0.156177
      8 C                     0.387466
      9 F                    -0.208903
     10 C                     0.445355
     11 O                    -0.462248
     12 O                    -0.300703
     13 C                    -0.058644
     14 H                     0.121106
     15 H                     0.094691
     16 H                     0.094718
     17 C                    -0.385960
     18 H                     0.142400
     19 H                     0.166404
     20 H                     0.145560
     21 H                     0.211796
  ----------------------------------------
  Sum of atomic charges =     0.000000

                    Cartesian Multipole Moments
 -----------------------------------------------------------------
    Charge (ESU x 10^10)
                -0.0000
    Dipole Moment (Debye)
         X      -0.3732      Y       0.0363      Z       3.0647
       Tot       3.0876
    Quadrupole Moments (Debye-Ang)
        XX     -96.3756     XY       3.7882     YY     -80.9017
        XZ      -2.3785     YZ      -9.9593     ZZ     -96.8780

 Total job time:  55.39s(wall), 1924.19s(cpu)
        *  Thank you very much for using Q-Chem.  Have a nice day.  *
