 Q-Chem 5.4, Q-Chem, Inc., Pleasanton, CA (2021)
 Q-Chem 5.4.0 for Intel X86 EM64T Linux

User input:
--------------------------------------------------------------
$molecule
0 1
C	-0.799373	-0.619704	0.975737
S	-0.105973	-0.038504	2.483237
C	1.098127	0.972896	1.694637
C	-0.106073	-0.038904	-0.092163
C	0.957427	0.856396	0.289337
S	-0.290773	-0.197704	-1.829763
C	1.047527	0.932496	-2.078763
C	1.588527	1.389696	-0.886863
F	2.609327	2.252596	-0.843363
C	1.391927	1.219096	-3.480363
O	0.807327	0.718096	-4.430763
O	2.421727	2.092896	-3.593463
C	2.804327	2.407096	-4.940463
H	3.643227	3.120196	-4.857363
H	1.959627	2.864196	-5.494463
H	3.122627	1.494396	-5.483563
C	-0.799373	-2.054904	0.975737
H	0.265427	-2.062904	1.155937
H	-0.945073	-2.732804	1.803737
H	-0.642673	-2.586004	0.048537
H	1.805327	1.568096	2.282237
$end

$rem
JOBTYPE		SP
EXCHANGE	HF
CORRELATION	pRIMP2
BASIS		cc-pvtz
METHOD		rimp2
AUX_BASIS	rimp2-cc-pvtz
SOLVENT_METHOD	PCM
PURECART	11111
SYMMETRY	false
MEM_TOTAL	110000
SCF_CONVERGENCE = 6
THRESH=10
GUI = 2
$end

$solvent
dielectric 4.90
$end
--------------------------------------------------------------

             Standard Nuclear Orientation (Angstroms)
    I     Atom           X                Y                Z
 ----------------------------------------------------------------
    1      C      -0.7993730000    -0.6197040000     0.9757370000
    2      S      -0.1059730000    -0.0385040000     2.4832370000
    3      C       1.0981270000     0.9728960000     1.6946370000
    4      C      -0.1060730000    -0.0389040000    -0.0921630000
    5      C       0.9574270000     0.8563960000     0.2893370000
    6      S      -0.2907730000    -0.1977040000    -1.8297630000
    7      C       1.0475270000     0.9324960000    -2.0787630000
    8      C       1.5885270000     1.3896960000    -0.8868630000
    9      F       2.6093270000     2.2525960000    -0.8433630000
   10      C       1.3919270000     1.2190960000    -3.4803630000
   11      O       0.8073270000     0.7180960000    -4.4307630000
   12      O       2.4217270000     2.0928960000    -3.5934630000
   13      C       2.8043270000     2.4070960000    -4.9404630000
   14      H       3.6432270000     3.1201960000    -4.8573630000
   15      H       1.9596270000     2.8641960000    -5.4944630000
   16      H       3.1226270000     1.4943960000    -5.4835630000
   17      C      -0.7993730000    -2.0549040000     0.9757370000
   18      H       0.2654270000    -2.0629040000     1.1559370000
   19      H      -0.9450730000    -2.7328040000     1.8037370000
   20      H      -0.6426730000    -2.5860040000     0.0485370000
   21      H       1.8053270000     1.5680960000     2.2822370000
 ----------------------------------------------------------------

   11   -1389.2241826933      5.31e-07  Convergence criterion met
 Total energy in the final basis set =    -1389.2241826933
        RIMP2         total energy =     -1391.7383922104 a.u.

                    Orbital Energies (a.u.)
 --------------------------------------------------------------

 Alpha MOs
 -- Occupied --
-92.0013 -91.9975 -26.3423 -20.6142 -20.5604 -11.4085 -11.3811 -11.3116
-11.2954 -11.2934 -11.2886 -11.2827 -11.2818 -11.2248  -9.0013  -8.9974
 -6.6820  -6.6812  -6.6809  -6.6784  -6.6777  -6.6766  -1.6595  -1.4666
 -1.3693  -1.2200  -1.1434  -1.0696  -1.0212  -0.9915  -0.9599  -0.9069
 -0.8655  -0.8086  -0.7904  -0.7600  -0.7333  -0.7243  -0.6957  -0.6841
 -0.6734  -0.6613  -0.6139  -0.6012  -0.5953  -0.5706  -0.5641  -0.5565
 -0.5322  -0.5262  -0.5147  -0.5022  -0.4750  -0.4726  -0.4716  -0.4494
 -0.3815  -0.3470  -0.2836

          Ground-State Mulliken Net Atomic Charges

     Atom                 Charge (a.u.)
  ----------------------------------------
      1 C                    -0.036677
      2 S                     0.082102
      3 C                    -0.182723
      4 C                     0.004008
      5 C                    -0.095534
      6 S                     0.016513
      7 C                    -0.153571
      8 C                     0.389755
      9 F                    -0.207376
     10 C                     0.447760
     11 O                    -0.462309
     12 O                    -0.301092
     13 C                    -0.058368
     14 H                     0.121181
     15 H                     0.095012
     16 H                     0.094766
     17 C                    -0.376050
     18 H                     0.120886
     19 H                     0.151623
     20 H                     0.136020
     21 H                     0.214073
  ----------------------------------------
  Sum of atomic charges =     0.000000

                    Cartesian Multipole Moments
 -----------------------------------------------------------------
    Charge (ESU x 10^10)
                -0.0000
    Dipole Moment (Debye)
         X       2.7539      Y       0.2491      Z       2.9993
       Tot       4.0794
    Quadrupole Moments (Debye-Ang)
        XX     -92.2742     XY       4.8803     YY     -88.6906
        XZ      -5.3117     YZ      -6.7080     ZZ     -95.6353

 Total job time:  63.18s(wall), 2213.69s(cpu)
        *  Thank you very much for using Q-Chem.  Have a nice day.  *
