 Q-Chem 5.4, Q-Chem, Inc., Pleasanton, CA (2021)
 Q-Chem 5.4.0 for Intel X86 EM64T Linux

User input:
--------------------------------------------------------------
$molecule
0 1
C	-0.798969	-0.619704	0.974584
S	-0.105569	-0.038504	2.482084
C	1.098531	0.972896	1.693484
C	-0.105669	-0.038904	-0.093316
C	0.957831	0.856396	0.288184
S	-0.290369	-0.197704	-1.830916
C	1.047931	0.932496	-2.079916
C	1.588931	1.389696	-0.888016
F	2.609731	2.252596	-0.844516
C	1.392331	1.219096	-3.481516
O	0.807731	0.718096	-4.431916
O	2.422131	2.092896	-3.594616
C	2.804731	2.407096	-4.941616
H	3.643631	3.120196	-4.858516
H	1.960031	2.864196	-5.495616
H	3.123031	1.494396	-5.484716
C	-0.798969	-2.054904	0.974584
H	0.033131	-2.062904	1.663084
H	-1.339169	-2.732804	1.618784
H	-0.199669	-2.586004	0.249984
H	1.805731	1.568096	2.281084
$end

$rem
JOBTYPE		SP
EXCHANGE	HF
CORRELATION	pRIMP2
BASIS		cc-pvtz
METHOD		rimp2
AUX_BASIS	rimp2-cc-pvtz
SOLVENT_METHOD	PCM
PURECART	11111
SYMMETRY	false
MEM_TOTAL	110000
SCF_CONVERGENCE = 6
THRESH=10
GUI = 2
$end

$solvent
dielectric 4.90
$end
--------------------------------------------------------------

             Standard Nuclear Orientation (Angstroms)
    I     Atom           X                Y                Z
 ----------------------------------------------------------------
    1      C      -0.7989690000    -0.6197040000     0.9745840000
    2      S      -0.1055690000    -0.0385040000     2.4820840000
    3      C       1.0985310000     0.9728960000     1.6934840000
    4      C      -0.1056690000    -0.0389040000    -0.0933160000
    5      C       0.9578310000     0.8563960000     0.2881840000
    6      S      -0.2903690000    -0.1977040000    -1.8309160000
    7      C       1.0479310000     0.9324960000    -2.0799160000
    8      C       1.5889310000     1.3896960000    -0.8880160000
    9      F       2.6097310000     2.2525960000    -0.8445160000
   10      C       1.3923310000     1.2190960000    -3.4815160000
   11      O       0.8077310000     0.7180960000    -4.4319160000
   12      O       2.4221310000     2.0928960000    -3.5946160000
   13      C       2.8047310000     2.4070960000    -4.9416160000
   14      H       3.6436310000     3.1201960000    -4.8585160000
   15      H       1.9600310000     2.8641960000    -5.4956160000
   16      H       3.1230310000     1.4943960000    -5.4847160000
   17      C      -0.7989690000    -2.0549040000     0.9745840000
   18      H       0.0331310000    -2.0629040000     1.6630840000
   19      H      -1.3391690000    -2.7328040000     1.6187840000
   20      H      -0.1996690000    -2.5860040000     0.2499840000
   21      H       1.8057310000     1.5680960000     2.2810840000
 ----------------------------------------------------------------

   11   -1389.2173117329      5.69e-07  Convergence criterion met
 Total energy in the final basis set =    -1389.2173117329
        RIMP2         total energy =     -1391.7308977675 a.u.

                    Orbital Energies (a.u.)
 --------------------------------------------------------------

 Alpha MOs
 -- Occupied --
-91.9990 -91.9975 -26.3427 -20.6139 -20.5600 -11.4081 -11.3819 -11.3161
-11.2981 -11.2946 -11.2885 -11.2807 -11.2768 -11.2184  -8.9996  -8.9975
 -6.6803  -6.6794  -6.6791  -6.6785  -6.6778  -6.6767  -1.6599  -1.4663
 -1.3690  -1.2201  -1.1436  -1.0685  -1.0222  -0.9909  -0.9604  -0.9060
 -0.8659  -0.8101  -0.7905  -0.7596  -0.7337  -0.7246  -0.6953  -0.6838
 -0.6732  -0.6612  -0.6120  -0.6033  -0.5943  -0.5703  -0.5636  -0.5546
 -0.5330  -0.5287  -0.5145  -0.4975  -0.4760  -0.4723  -0.4713  -0.4410
 -0.3832  -0.3465  -0.2867

          Ground-State Mulliken Net Atomic Charges

     Atom                 Charge (a.u.)
  ----------------------------------------
      1 C                    -0.040724
      2 S                     0.075788
      3 C                    -0.163577
      4 C                     0.006159
      5 C                    -0.101516
      6 S                     0.022050
      7 C                    -0.154814
      8 C                     0.389574
      9 F                    -0.206899
     10 C                     0.446992
     11 O                    -0.463026
     12 O                    -0.301352
     13 C                    -0.058406
     14 H                     0.121078
     15 H                     0.094949
     16 H                     0.094712
     17 C                    -0.380878
     18 H                     0.125802
     19 H                     0.140546
     20 H                     0.138666
     21 H                     0.214876
  ----------------------------------------
  Sum of atomic charges =     0.000000

                    Cartesian Multipole Moments
 -----------------------------------------------------------------
    Charge (ESU x 10^10)
                -0.0000
    Dipole Moment (Debye)
         X       2.8836      Y       0.4782      Z       3.3127
       Tot       4.4178
    Quadrupole Moments (Debye-Ang)
        XX     -91.8656     XY       4.7519     YY     -89.1968
        XZ      -5.4189     YZ      -7.0962     ZZ     -95.2718

 Total job time:  61.56s(wall), 1973.76s(cpu)
        *  Thank you very much for using Q-Chem.  Have a nice day.  *
