 Q-Chem 5.4, Q-Chem, Inc., Pleasanton, CA (2021)
 Q-Chem 5.4.0 for Intel X86 EM64T Linux

User input:
--------------------------------------------------------------
$molecule
0 1
C	-0.518683	-0.851940	0.977832
S	-0.065883	-0.068640	2.485332
C	0.719717	1.293660	1.696732
C	-0.065783	-0.069040	-0.090068
C	0.627217	1.136060	0.291432
S	-0.185083	-0.281440	-1.827668
C	0.685917	1.238360	-2.076668
C	1.037917	1.852960	-0.884768
F	1.702117	3.012960	-0.841268
C	0.911617	1.625360	-3.478268
O	0.533517	0.954660	-4.428668
O	1.580317	2.798760	-3.591368
C	1.832417	3.224860	-4.938368
H	2.376917	4.181860	-4.855268
H	0.882317	3.365460	-5.492368
H	2.443717	2.476060	-5.481468
C	-0.518683	-2.287140	0.977832
H	-1.065083	-2.295140	0.046332
H	0.209217	-2.965040	0.557232
H	-1.329683	-2.818240	1.453732
H	1.180617	2.094760	2.284332
$end

$rem
JOBTYPE		SP
EXCHANGE	HF
CORRELATION	pRIMP2
BASIS		cc-pvtz
METHOD		rimp2
AUX_BASIS	rimp2-cc-pvtz
SOLVENT_METHOD	PCM
PURECART	11111
SYMMETRY	false
MEM_TOTAL	110000
SCF_CONVERGENCE = 6
THRESH=10
GUI = 2
$end

$solvent
dielectric 4.90
$end
--------------------------------------------------------------

             Standard Nuclear Orientation (Angstroms)
    I     Atom           X                Y                Z
 ----------------------------------------------------------------
    1      C      -0.5186830000    -0.8519400000     0.9778320000
    2      S      -0.0658830000    -0.0686400000     2.4853320000
    3      C       0.7197170000     1.2936600000     1.6967320000
    4      C      -0.0657830000    -0.0690400000    -0.0900680000
    5      C       0.6272170000     1.1360600000     0.2914320000
    6      S      -0.1850830000    -0.2814400000    -1.8276680000
    7      C       0.6859170000     1.2383600000    -2.0766680000
    8      C       1.0379170000     1.8529600000    -0.8847680000
    9      F       1.7021170000     3.0129600000    -0.8412680000
   10      C       0.9116170000     1.6253600000    -3.4782680000
   11      O       0.5335170000     0.9546600000    -4.4286680000
   12      O       1.5803170000     2.7987600000    -3.5913680000
   13      C       1.8324170000     3.2248600000    -4.9383680000
   14      H       2.3769170000     4.1818600000    -4.8552680000
   15      H       0.8823170000     3.3654600000    -5.4923680000
   16      H       2.4437170000     2.4760600000    -5.4814680000
   17      C      -0.5186830000    -2.2871400000     0.9778320000
   18      H      -1.0650830000    -2.2951400000     0.0463320000
   19      H       0.2092170000    -2.9650400000     0.5572320000
   20      H      -1.3296830000    -2.8182400000     1.4537320000
   21      H       1.1806170000     2.0947600000     2.2843320000
 ----------------------------------------------------------------

   11   -1389.2557554659      4.61e-07  Convergence criterion met
 Total energy in the final basis set =    -1389.2557554659
        RIMP2         total energy =     -1391.7652034921 a.u.

                    Orbital Energies (a.u.)
 --------------------------------------------------------------

 Alpha MOs
 -- Occupied --
-92.0014 -91.9962 -26.3418 -20.6138 -20.5599 -11.4080 -11.3806 -11.3055
-11.2947 -11.2940 -11.2884 -11.2851 -11.2796 -11.2230  -9.0008  -8.9963
 -6.6816  -6.6808  -6.6805  -6.6773  -6.6766  -6.6755  -1.6589  -1.4662
 -1.3689  -1.2151  -1.1364  -1.0676  -1.0194  -0.9939  -0.9586  -0.9131
 -0.8640  -0.8061  -0.7895  -0.7595  -0.7301  -0.7237  -0.6950  -0.6836
 -0.6731  -0.6612  -0.6102  -0.5995  -0.5919  -0.5807  -0.5639  -0.5568
 -0.5357  -0.5300  -0.5078  -0.4897  -0.4744  -0.4720  -0.4681  -0.4471
 -0.3887  -0.3449  -0.2916

          Ground-State Mulliken Net Atomic Charges

     Atom                 Charge (a.u.)
  ----------------------------------------
      1 C                    -0.004373
      2 S                     0.080211
      3 C                    -0.191723
      4 C                    -0.020066
      5 C                    -0.091618
      6 S                     0.005965
      7 C                    -0.157812
      8 C                     0.390280
      9 F                    -0.207202
     10 C                     0.446634
     11 O                    -0.462926
     12 O                    -0.301177
     13 C                    -0.058437
     14 H                     0.121177
     15 H                     0.094815
     16 H                     0.094718
     17 C                    -0.362290
     18 H                     0.114692
     19 H                     0.156085
     20 H                     0.140275
     21 H                     0.212774
  ----------------------------------------
  Sum of atomic charges =     0.000000

                    Cartesian Multipole Moments
 -----------------------------------------------------------------
    Charge (ESU x 10^10)
                -0.0000
    Dipole Moment (Debye)
         X       0.9562      Y       0.6872      Z       2.5294
       Tot       2.7900
    Quadrupole Moments (Debye-Ang)
        XX     -93.5710     XY       5.7689     YY     -84.5268
        XZ      -4.2700     YZ      -7.0696     ZZ     -97.6544

 Total job time:  59.32s(wall), 1973.86s(cpu)
        *  Thank you very much for using Q-Chem.  Have a nice day.  *
