 Q-Chem 5.4, Q-Chem, Inc., Pleasanton, CA (2021)
 Q-Chem 5.4.0 for Intel X86 EM64T Linux

User input:
--------------------------------------------------------------
$molecule
0 1
C	-0.097011	-0.987661	0.976149
S	-0.017711	-0.086361	2.483649
C	0.118589	1.480239	1.695049
C	-0.017411	-0.086761	-0.091751
C	0.101389	1.298339	0.289749
S	-0.035811	-0.329661	-1.829351
C	0.111289	1.415839	-2.078351
C	0.170589	2.121739	-0.886451
F	0.282289	3.453639	-0.842951
C	0.152289	1.862039	-3.479951
O	0.093089	1.094439	-4.430351
O	0.262489	3.208039	-3.593051
C	0.310889	3.700839	-4.940051
H	0.399889	4.798239	-4.856951
H	-0.609611	3.426639	-5.494051
H	1.181389	3.280439	-5.483151
C	0.028089	-2.417361	0.976149
H	1.104589	-2.331261	0.968749
H	0.087389	-3.092761	1.816849
H	0.067689	-2.947061	0.035749
H	0.197789	2.401139	2.282649
$end

$rem
JOBTYPE		SP
EXCHANGE	HF
CORRELATION	pRIMP2
BASIS		cc-pvtz
METHOD		rimp2
AUX_BASIS	rimp2-cc-pvtz
SOLVENT_METHOD	PCM
PURECART	11111
SYMMETRY	false
MEM_TOTAL	110000
SCF_CONVERGENCE = 6
THRESH=10
GUI = 2
$end

$solvent
dielectric 4.90
$end
--------------------------------------------------------------

             Standard Nuclear Orientation (Angstroms)
    I     Atom           X                Y                Z
 ----------------------------------------------------------------
    1      C      -0.0970110000    -0.9876610000     0.9761490000
    2      S      -0.0177110000    -0.0863610000     2.4836490000
    3      C       0.1185890000     1.4802390000     1.6950490000
    4      C      -0.0174110000    -0.0867610000    -0.0917510000
    5      C       0.1013890000     1.2983390000     0.2897490000
    6      S      -0.0358110000    -0.3296610000    -1.8293510000
    7      C       0.1112890000     1.4158390000    -2.0783510000
    8      C       0.1705890000     2.1217390000    -0.8864510000
    9      F       0.2822890000     3.4536390000    -0.8429510000
   10      C       0.1522890000     1.8620390000    -3.4799510000
   11      O       0.0930890000     1.0944390000    -4.4303510000
   12      O       0.2624890000     3.2080390000    -3.5930510000
   13      C       0.3108890000     3.7008390000    -4.9400510000
   14      H       0.3998890000     4.7982390000    -4.8569510000
   15      H      -0.6096110000     3.4266390000    -5.4940510000
   16      H       1.1813890000     3.2804390000    -5.4831510000
   17      C       0.0280890000    -2.4173610000     0.9761490000
   18      H       1.1045890000    -2.3312610000     0.9687490000
   19      H       0.0873890000    -3.0927610000     1.8168490000
   20      H       0.0676890000    -2.9470610000     0.0357490000
   21      H       0.1977890000     2.4011390000     2.2826490000
 ----------------------------------------------------------------

   11   -1389.2727183297      5.31e-07  Convergence criterion met
 Total energy in the final basis set =    -1389.2727183297
        RIMP2         total energy =     -1391.7764523730 a.u.

                    Orbital Energies (a.u.)
 --------------------------------------------------------------

 Alpha MOs
 -- Occupied --
-92.0054 -91.9899 -26.3397 -20.6134 -20.5595 -11.4073 -11.3773 -11.3046
-11.2944 -11.2906 -11.2880 -11.2794 -11.2782 -11.2327  -9.0043  -8.9901
 -6.6851  -6.6846  -6.6840  -6.6712  -6.6705  -6.6693  -1.6570  -1.4657
 -1.3683  -1.2113  -1.1366  -1.0673  -1.0178  -0.9955  -0.9576  -0.9129
 -0.8626  -0.8041  -0.7878  -0.7583  -0.7307  -0.7219  -0.6919  -0.6831
 -0.6725  -0.6598  -0.6122  -0.5955  -0.5918  -0.5826  -0.5614  -0.5591
 -0.5312  -0.5254  -0.5183  -0.5004  -0.4720  -0.4714  -0.4698  -0.4603
 -0.3840  -0.3452  -0.2798

          Ground-State Mulliken Net Atomic Charges

     Atom                 Charge (a.u.)
  ----------------------------------------
      1 C                     0.055380
      2 S                     0.076994
      3 C                    -0.233492
      4 C                    -0.041951
      5 C                    -0.087523
      6 S                    -0.017366
      7 C                    -0.155928
      8 C                     0.388187
      9 F                    -0.209053
     10 C                     0.445895
     11 O                    -0.461865
     12 O                    -0.300688
     13 C                    -0.058678
     14 H                     0.121144
     15 H                     0.094828
     16 H                     0.094591
     17 C                    -0.389235
     18 H                     0.151544
     19 H                     0.166342
     20 H                     0.148702
     21 H                     0.212173
  ----------------------------------------
  Sum of atomic charges =     0.000000

                    Cartesian Multipole Moments
 -----------------------------------------------------------------
    Charge (ESU x 10^10)
                -0.0000
    Dipole Moment (Debye)
         X       1.0455      Y      -0.0634      Z       3.2984
       Tot       3.4607
    Quadrupole Moments (Debye-Ang)
        XX     -96.8859     XY      -1.2474     YY     -80.6569
        XZ       0.1450     YZ     -10.9858     ZZ     -96.5155

 Total job time:  58.12s(wall), 1975.73s(cpu)
        *  Thank you very much for using Q-Chem.  Have a nice day.  *
