 Q-Chem 5.4, Q-Chem, Inc., Pleasanton, CA (2021)
 Q-Chem 5.4.0 for Intel X86 EM64T Linux

User input:
--------------------------------------------------------------
$molecule
0 1
C	-0.090531	-0.987267	0.978269
S	-0.011231	-0.085967	2.485769
C	0.125069	1.480633	1.697169
C	-0.010931	-0.086367	-0.089631
C	0.107869	1.298733	0.291869
S	-0.029331	-0.329267	-1.827231
C	0.117769	1.416233	-2.076231
C	0.177069	2.122133	-0.884331
F	0.288769	3.454033	-0.840831
C	0.158769	1.862433	-3.477831
O	0.099569	1.094833	-4.428231
O	0.268969	3.208433	-3.590931
C	0.317369	3.701233	-4.937931
H	0.406369	4.798633	-4.854831
H	-0.603131	3.427033	-5.491931
H	1.187869	3.280833	-5.481031
C	-0.090531	-2.422467	0.978269
H	0.089669	-2.430467	-0.086531
H	0.737469	-3.100367	1.123969
H	-1.017731	-2.953567	0.821569
H	0.204269	2.401533	2.284769
$end

$rem
JOBTYPE		SP
EXCHANGE	HF
CORRELATION	pRIMP2
BASIS		cc-pvtz
METHOD		rimp2
AUX_BASIS	rimp2-cc-pvtz
SOLVENT_METHOD	PCM
PURECART	11111
SYMMETRY	false
MEM_TOTAL	110000
SCF_CONVERGENCE = 6
THRESH=10
GUI = 2
$end

$solvent
dielectric 4.90
$end
--------------------------------------------------------------

             Standard Nuclear Orientation (Angstroms)
    I     Atom           X                Y                Z
 ----------------------------------------------------------------
    1      C      -0.0905310000    -0.9872670000     0.9782690000
    2      S      -0.0112310000    -0.0859670000     2.4857690000
    3      C       0.1250690000     1.4806330000     1.6971690000
    4      C      -0.0109310000    -0.0863670000    -0.0896310000
    5      C       0.1078690000     1.2987330000     0.2918690000
    6      S      -0.0293310000    -0.3292670000    -1.8272310000
    7      C       0.1177690000     1.4162330000    -2.0762310000
    8      C       0.1770690000     2.1221330000    -0.8843310000
    9      F       0.2887690000     3.4540330000    -0.8408310000
   10      C       0.1587690000     1.8624330000    -3.4778310000
   11      O       0.0995690000     1.0948330000    -4.4282310000
   12      O       0.2689690000     3.2084330000    -3.5909310000
   13      C       0.3173690000     3.7012330000    -4.9379310000
   14      H       0.4063690000     4.7986330000    -4.8548310000
   15      H      -0.6031310000     3.4270330000    -5.4919310000
   16      H       1.1878690000     3.2808330000    -5.4810310000
   17      C      -0.0905310000    -2.4224670000     0.9782690000
   18      H       0.0896690000    -2.4304670000    -0.0865310000
   19      H       0.7374690000    -3.1003670000     1.1239690000
   20      H      -1.0177310000    -2.9535670000     0.8215690000
   21      H       0.2042690000     2.4015330000     2.2847690000
 ----------------------------------------------------------------

   11   -1389.2726041052      4.59e-07  Convergence criterion met
 Total energy in the final basis set =    -1389.2726041052
        RIMP2         total energy =     -1391.7785285420 a.u.

                    Orbital Energies (a.u.)
 --------------------------------------------------------------

 Alpha MOs
 -- Occupied --
-92.0029 -91.9938 -26.3413 -20.6137 -20.5598 -11.4078 -11.3798 -11.3000
-11.2947 -11.2945 -11.2900 -11.2883 -11.2788 -11.2265  -9.0020  -8.9940
 -6.6828  -6.6822  -6.6818  -6.6751  -6.6744  -6.6732  -1.6585  -1.4661
 -1.3687  -1.2136  -1.1352  -1.0681  -1.0188  -0.9950  -0.9583  -0.9143
 -0.8635  -0.8053  -0.7891  -0.7593  -0.7301  -0.7233  -0.6945  -0.6835
 -0.6729  -0.6612  -0.6071  -0.6046  -0.5917  -0.5828  -0.5665  -0.5559
 -0.5396  -0.5302  -0.5070  -0.4871  -0.4734  -0.4718  -0.4643  -0.4523
 -0.3929  -0.3448  -0.2922

          Ground-State Mulliken Net Atomic Charges

     Atom                 Charge (a.u.)
  ----------------------------------------
      1 C                     0.042904
      2 S                     0.073105
      3 C                    -0.201235
      4 C                    -0.013356
      5 C                    -0.101673
      6 S                    -0.010239
      7 C                    -0.158138
      8 C                     0.390835
      9 F                    -0.207653
     10 C                     0.444538
     11 O                    -0.463008
     12 O                    -0.300986
     13 C                    -0.058695
     14 H                     0.121191
     15 H                     0.094824
     16 H                     0.094707
     17 C                    -0.365707
     18 H                     0.113910
     19 H                     0.154523
     20 H                     0.137304
     21 H                     0.212847
  ----------------------------------------
  Sum of atomic charges =     0.000000

                    Cartesian Multipole Moments
 -----------------------------------------------------------------
    Charge (ESU x 10^10)
                -0.0000
    Dipole Moment (Debye)
         X       0.2888      Y       0.6129      Z       2.5788
       Tot       2.6663
    Quadrupole Moments (Debye-Ang)
        XX     -96.1651     XY       0.6114     YY     -81.1304
        XZ      -0.4063     YZ      -8.4272     ZZ     -98.1248

 Total job time:  54.19s(wall), 1946.25s(cpu)
        *  Thank you very much for using Q-Chem.  Have a nice day.  *
