 Q-Chem 5.4, Q-Chem, Inc., Pleasanton, CA (2021)
 Q-Chem 5.4.0 for Intel X86 EM64T Linux

User input:
--------------------------------------------------------------
$molecule
0 1
C	-0.517788	-0.851940	0.975276
S	-0.064988	-0.068640	2.482776
C	0.720612	1.293660	1.694176
C	-0.064888	-0.069040	-0.092624
C	0.628112	1.136060	0.288876
S	-0.184188	-0.281440	-1.830224
C	0.686812	1.238360	-2.079224
C	1.038812	1.852960	-0.887324
F	1.703012	3.012960	-0.843824
C	0.912512	1.625360	-3.480824
O	0.534412	0.954660	-4.431224
O	1.581212	2.798760	-3.593924
C	1.833312	3.224860	-4.940924
H	2.377812	4.181860	-4.857824
H	0.883212	3.365460	-5.494924
H	2.444612	2.476060	-5.484024
C	-0.517788	-2.287140	0.975276
H	-1.579988	-2.295140	1.170176
H	-0.664088	-2.965040	0.147376
H	-0.347988	-2.818240	1.900176
H	1.181512	2.094760	2.281776
$end

$rem
JOBTYPE		SP
EXCHANGE	HF
CORRELATION	pRIMP2
BASIS		cc-pvtz
METHOD		rimp2
AUX_BASIS	rimp2-cc-pvtz
SOLVENT_METHOD	PCM
PURECART	11111
SYMMETRY	false
MEM_TOTAL	110000
SCF_CONVERGENCE = 6
THRESH=10
GUI = 2
$end

$solvent
dielectric 4.90
$end
--------------------------------------------------------------

             Standard Nuclear Orientation (Angstroms)
    I     Atom           X                Y                Z
 ----------------------------------------------------------------
    1      C      -0.5177880000    -0.8519400000     0.9752760000
    2      S      -0.0649880000    -0.0686400000     2.4827760000
    3      C       0.7206120000     1.2936600000     1.6941760000
    4      C      -0.0648880000    -0.0690400000    -0.0926240000
    5      C       0.6281120000     1.1360600000     0.2888760000
    6      S      -0.1841880000    -0.2814400000    -1.8302240000
    7      C       0.6868120000     1.2383600000    -2.0792240000
    8      C       1.0388120000     1.8529600000    -0.8873240000
    9      F       1.7030120000     3.0129600000    -0.8438240000
   10      C       0.9125120000     1.6253600000    -3.4808240000
   11      O       0.5344120000     0.9546600000    -4.4312240000
   12      O       1.5812120000     2.7987600000    -3.5939240000
   13      C       1.8333120000     3.2248600000    -4.9409240000
   14      H       2.3778120000     4.1818600000    -4.8578240000
   15      H       0.8832120000     3.3654600000    -5.4949240000
   16      H       2.4446120000     2.4760600000    -5.4840240000
   17      C      -0.5177880000    -2.2871400000     0.9752760000
   18      H      -1.5799880000    -2.2951400000     1.1701760000
   19      H      -0.6640880000    -2.9650400000     0.1473760000
   20      H      -0.3479880000    -2.8182400000     1.9001760000
   21      H       1.1815120000     2.0947600000     2.2817760000
 ----------------------------------------------------------------

   11   -1389.2492274289      4.80e-07  Convergence criterion met
 Total energy in the final basis set =    -1389.2492274289
        RIMP2         total energy =     -1391.7582617359 a.u.

                    Orbital Energies (a.u.)
 --------------------------------------------------------------

 Alpha MOs
 -- Occupied --
-92.0051 -91.9924 -26.3402 -20.6134 -20.5594 -11.4073 -11.3783 -11.2990
-11.2940 -11.2914 -11.2880 -11.2847 -11.2784 -11.2241  -9.0042  -8.9925
 -6.6850  -6.6843  -6.6838  -6.6736  -6.6729  -6.6717  -1.6575  -1.4657
 -1.3683  -1.2126  -1.1368  -1.0654  -1.0188  -0.9942  -0.9581  -0.9123
 -0.8633  -0.8055  -0.7882  -0.7583  -0.7301  -0.7224  -0.6923  -0.6831
 -0.6725  -0.6597  -0.6121  -0.5945  -0.5878  -0.5806  -0.5620  -0.5594
 -0.5316  -0.5256  -0.5105  -0.4990  -0.4728  -0.4716  -0.4709  -0.4565
 -0.3809  -0.3446  -0.2813

          Ground-State Mulliken Net Atomic Charges

     Atom                 Charge (a.u.)
  ----------------------------------------
      1 C                    -0.006728
      2 S                     0.082881
      3 C                    -0.213807
      4 C                    -0.012062
      5 C                    -0.088348
      6 S                    -0.002215
      7 C                    -0.157581
      8 C                     0.392512
      9 F                    -0.208671
     10 C                     0.446833
     11 O                    -0.462484
     12 O                    -0.300972
     13 C                    -0.058497
     14 H                     0.121059
     15 H                     0.094705
     16 H                     0.094665
     17 C                    -0.384673
     18 H                     0.139457
     19 H                     0.164022
     20 H                     0.146447
     21 H                     0.213454
  ----------------------------------------
  Sum of atomic charges =     0.000000

                    Cartesian Multipole Moments
 -----------------------------------------------------------------
    Charge (ESU x 10^10)
                -0.0000
    Dipole Moment (Debye)
         X       0.4283      Y       0.2377      Z       3.3288
       Tot       3.3646
    Quadrupole Moments (Debye-Ang)
        XX     -93.7923     XY       6.7417     YY     -84.1554
        XZ      -4.7183     YZ      -9.1010     ZZ     -95.9655

 Total job time:  58.05s(wall), 2017.91s(cpu)
        *  Thank you very much for using Q-Chem.  Have a nice day.  *
