 Q-Chem 5.4, Q-Chem, Inc., Pleasanton, CA (2021)
 Q-Chem 5.4.0 for Intel X86 EM64T Linux

User input:
--------------------------------------------------------------
$molecule
0 1
C	-0.001574	-0.991205	0.977293
S	-0.001074	-0.086405	2.484793
C	-0.001874	1.486095	1.696193
C	-0.000774	-0.086805	-0.090607
C	-0.003174	1.303395	0.290893
S	0.002026	-0.330305	-1.828207
C	-0.003474	1.421295	-2.077207
C	-0.005974	2.129695	-0.885307
F	-0.010774	3.466295	-0.841807
C	-0.001574	1.869395	-3.478807
O	0.006326	1.099495	-4.429207
O	-0.009074	3.219895	-3.591907
C	-0.003874	3.714995	-4.938907
H	-0.010874	4.815995	-4.855807
H	-0.896974	3.361695	-5.492907
H	0.899926	3.372095	-5.482007
C	-0.001574	-2.426405	0.977293
H	0.929926	-2.434405	0.430893
H	0.419026	-3.104305	1.705193
H	-0.477474	-2.957505	0.166293
H	-0.003274	2.410395	2.283793
$end

$rem
JOBTYPE		SP
EXCHANGE	HF
CORRELATION	pRIMP2
BASIS		cc-pvtz
METHOD		rimp2
AUX_BASIS	rimp2-cc-pvtz
SOLVENT_METHOD	PCM
PURECART	11111
SYMMETRY	false
MEM_TOTAL	110000
SCF_CONVERGENCE = 6
THRESH=10
GUI = 2
$end

$solvent
dielectric 4.90
$end
--------------------------------------------------------------

             Standard Nuclear Orientation (Angstroms)
    I     Atom           X                Y                Z
 ----------------------------------------------------------------
    1      C      -0.0015740000    -0.9912050000     0.9772930000
    2      S      -0.0010740000    -0.0864050000     2.4847930000
    3      C      -0.0018740000     1.4860950000     1.6961930000
    4      C      -0.0007740000    -0.0868050000    -0.0906070000
    5      C      -0.0031740000     1.3033950000     0.2908930000
    6      S       0.0020260000    -0.3303050000    -1.8282070000
    7      C      -0.0034740000     1.4212950000    -2.0772070000
    8      C      -0.0059740000     2.1296950000    -0.8853070000
    9      F      -0.0107740000     3.4662950000    -0.8418070000
   10      C      -0.0015740000     1.8693950000    -3.4788070000
   11      O       0.0063260000     1.0994950000    -4.4292070000
   12      O      -0.0090740000     3.2198950000    -3.5919070000
   13      C      -0.0038740000     3.7149950000    -4.9389070000
   14      H      -0.0108740000     4.8159950000    -4.8558070000
   15      H      -0.8969740000     3.3616950000    -5.4929070000
   16      H       0.8999260000     3.3720950000    -5.4820070000
   17      C      -0.0015740000    -2.4264050000     0.9772930000
   18      H       0.9299260000    -2.4344050000     0.4308930000
   19      H       0.4190260000    -3.1043050000     1.7051930000
   20      H      -0.4774740000    -2.9575050000     0.1662930000
   21      H      -0.0032740000     2.4103950000     2.2837930000
 ----------------------------------------------------------------

   11   -1389.2732694110      5.03e-07  Convergence criterion met
 Total energy in the final basis set =    -1389.2732694110
        RIMP2         total energy =     -1391.7780703395 a.u.

                    Orbital Energies (a.u.)
 --------------------------------------------------------------

 Alpha MOs
 -- Occupied --
-92.0054 -91.9916 -26.3402 -20.6135 -20.5596 -11.4075 -11.3781 -11.3024
-11.2945 -11.2918 -11.2881 -11.2817 -11.2786 -11.2304  -9.0042  -8.9917
 -6.6850  -6.6844  -6.6839  -6.6728  -6.6721  -6.6709  -1.6574  -1.4658
 -1.3684  -1.2116  -1.1357  -1.0675  -1.0179  -0.9957  -0.9577  -0.9136
 -0.8628  -0.8040  -0.7882  -0.7586  -0.7301  -0.7223  -0.6926  -0.6832
 -0.6726  -0.6602  -0.6112  -0.5963  -0.5896  -0.5863  -0.5632  -0.5589
 -0.5347  -0.5294  -0.5082  -0.4968  -0.4728  -0.4712  -0.4685  -0.4608
 -0.3846  -0.3445  -0.2833

          Ground-State Mulliken Net Atomic Charges

     Atom                 Charge (a.u.)
  ----------------------------------------
      1 C                     0.059185
      2 S                     0.075117
      3 C                    -0.224409
      4 C                    -0.027249
      5 C                    -0.091106
      6 S                    -0.016739
      7 C                    -0.154855
      8 C                     0.384565
      9 F                    -0.208639
     10 C                     0.445666
     11 O                    -0.462436
     12 O                    -0.300660
     13 C                    -0.058687
     14 H                     0.121164
     15 H                     0.094783
     16 H                     0.094646
     17 C                    -0.392899
     18 H                     0.136841
     19 H                     0.167326
     20 H                     0.146690
     21 H                     0.211696
  ----------------------------------------
  Sum of atomic charges =     0.000000

                    Cartesian Multipole Moments
 -----------------------------------------------------------------
    Charge (ESU x 10^10)
                -0.0000
    Dipole Moment (Debye)
         X       0.6095      Y       0.0450      Z       2.9389
       Tot       3.0017
    Quadrupole Moments (Debye-Ang)
        XX     -96.8289     XY      -1.6738     YY     -80.4705
        XZ       0.9789     YZ     -10.0643     ZZ     -97.2266

 Total job time:  56.10s(wall), 1967.35s(cpu)
        *  Thank you very much for using Q-Chem.  Have a nice day.  *
