 Q-Chem 5.4, Q-Chem, Inc., Pleasanton, CA (2021)
 Q-Chem 5.4.0 for Intel X86 EM64T Linux

User input:
--------------------------------------------------------------
$molecule
0 1
C	-0.667367	-0.747937	0.973964
S	-0.085467	-0.055137	2.481464
C	0.924833	1.149963	1.692864
C	-0.085467	-0.055537	-0.093936
C	0.806333	1.010863	0.287564
S	-0.239767	-0.244037	-1.831536
C	0.881933	1.101463	-2.080536
C	1.335333	1.645563	-0.888636
F	2.190833	2.672563	-0.845136
C	1.171333	1.443363	-3.482136
O	0.682633	0.848563	-4.432536
O	2.033733	2.482763	-3.595236
C	2.355933	2.858663	-4.942236
H	3.058333	3.706563	-4.859136
H	1.444733	3.162063	-5.496236
H	2.827933	2.015063	-5.485336
C	-0.667367	-2.183137	0.973964
H	-1.355867	-2.191137	1.806064
H	-1.311567	-2.861037	0.433764
H	0.057233	-2.714237	1.573264
H	1.517833	1.858863	2.280464
$end

$rem
JOBTYPE		SP
EXCHANGE	HF
CORRELATION	pRIMP2
BASIS		cc-pvtz
METHOD		rimp2
AUX_BASIS	rimp2-cc-pvtz
SOLVENT_METHOD	PCM
PURECART	11111
SYMMETRY	false
MEM_TOTAL	110000
SCF_CONVERGENCE = 6
THRESH=10
GUI = 2
$end

$solvent
dielectric 4.90
$end
--------------------------------------------------------------

             Standard Nuclear Orientation (Angstroms)
    I     Atom           X                Y                Z
 ----------------------------------------------------------------
    1      C      -0.6673670000    -0.7479370000     0.9739640000
    2      S      -0.0854670000    -0.0551370000     2.4814640000
    3      C       0.9248330000     1.1499630000     1.6928640000
    4      C      -0.0854670000    -0.0555370000    -0.0939360000
    5      C       0.8063330000     1.0108630000     0.2875640000
    6      S      -0.2397670000    -0.2440370000    -1.8315360000
    7      C       0.8819330000     1.1014630000    -2.0805360000
    8      C       1.3353330000     1.6455630000    -0.8886360000
    9      F       2.1908330000     2.6725630000    -0.8451360000
   10      C       1.1713330000     1.4433630000    -3.4821360000
   11      O       0.6826330000     0.8485630000    -4.4325360000
   12      O       2.0337330000     2.4827630000    -3.5952360000
   13      C       2.3559330000     2.8586630000    -4.9422360000
   14      H       3.0583330000     3.7065630000    -4.8591360000
   15      H       1.4447330000     3.1620630000    -5.4962360000
   16      H       2.8279330000     2.0150630000    -5.4853360000
   17      C      -0.6673670000    -2.1831370000     0.9739640000
   18      H      -1.3558670000    -2.1911370000     1.8060640000
   19      H      -1.3115670000    -2.8610370000     0.4337640000
   20      H       0.0572330000    -2.7142370000     1.5732640000
   21      H       1.5178330000     1.8588630000     2.2804640000
 ----------------------------------------------------------------

   11   -1389.2385235318      4.63e-07  Convergence criterion met
 Total energy in the final basis set =    -1389.2385235318
        RIMP2         total energy =     -1391.7495833661 a.u.

                    Orbital Energies (a.u.)
 --------------------------------------------------------------

 Alpha MOs
 -- Occupied --
-92.0062 -91.9960 -26.3414 -20.6136 -20.5596 -11.4077 -11.3800 -11.3103
-11.2942 -11.2919 -11.2882 -11.2794 -11.2774 -11.2197  -9.0054  -8.9960
 -6.6861  -6.6855  -6.6850  -6.6770  -6.6763  -6.6752  -1.6587  -1.4660
 -1.3686  -1.2155  -1.1390  -1.0651  -1.0209  -0.9928  -0.9594  -0.9103
 -0.8648  -0.8081  -0.7892  -0.7587  -0.7315  -0.7234  -0.6927  -0.6834
 -0.6728  -0.6603  -0.6104  -0.5985  -0.5902  -0.5794  -0.5644  -0.5599
 -0.5306  -0.5261  -0.5091  -0.4835  -0.4727  -0.4717  -0.4670  -0.4593
 -0.3844  -0.3445  -0.2906

          Ground-State Mulliken Net Atomic Charges

     Atom                 Charge (a.u.)
  ----------------------------------------
      1 C                    -0.069394
      2 S                     0.083898
      3 C                    -0.180048
      4 C                     0.040616
      5 C                    -0.099889
      6 S                     0.013665
      7 C                    -0.159246
      8 C                     0.392206
      9 F                    -0.207986
     10 C                     0.446840
     11 O                    -0.462992
     12 O                    -0.301239
     13 C                    -0.058476
     14 H                     0.121035
     15 H                     0.094870
     16 H                     0.094690
     17 C                    -0.372785
     18 H                     0.116488
     19 H                     0.153646
     20 H                     0.139255
     21 H                     0.214845
  ----------------------------------------
  Sum of atomic charges =     0.000000

                    Cartesian Multipole Moments
 -----------------------------------------------------------------
    Charge (ESU x 10^10)
                -0.0000
    Dipole Moment (Debye)
         X       1.4526      Y       0.7167      Z       3.4780
       Tot       3.8367
    Quadrupole Moments (Debye-Ang)
        XX     -92.0608     XY       6.6898     YY     -86.8660
        XZ      -4.9886     YZ      -8.0315     ZZ     -95.2703

 Total job time:  67.24s(wall), 2065.30s(cpu)
        *  Thank you very much for using Q-Chem.  Have a nice day.  *
