 Q-Chem 5.4, Q-Chem, Inc., Pleasanton, CA (2021)
 Q-Chem 5.4.0 for Intel X86 EM64T Linux

User input:
--------------------------------------------------------------
$molecule
0 1
C	-0.362274	-0.928942	0.976149
S	-0.052374	-0.078942	2.483649
C	0.484726	1.399058	1.695049
C	-0.052274	-0.079342	-0.091751
C	0.421026	1.227758	0.289749
S	-0.132874	-0.309142	-1.829351
C	0.461026	1.338758	-2.078351
C	0.701026	2.005158	-0.886451
F	1.153626	3.262858	-0.842951
C	0.616026	1.759158	-3.479951
O	0.360226	1.032958	-4.430351
O	1.070926	3.030758	-3.593051
C	1.245226	3.494158	-4.940051
H	1.615226	4.531258	-4.856951
H	0.285126	3.467658	-5.494051
H	1.977226	2.862858	-5.483151
C	-0.237174	-2.358642	0.976149
H	0.839326	-2.272542	0.968749
H	-0.177874	-3.034042	1.816849
H	-0.197574	-2.888342	0.035749
H	0.799526	2.268058	2.282649
$end

$rem
JOBTYPE		SP
EXCHANGE	HF
CORRELATION	pRIMP2
BASIS		cc-pvtz
METHOD		rimp2
AUX_BASIS	rimp2-cc-pvtz
SOLVENT_METHOD	PCM
PURECART	11111
SYMMETRY	false
MEM_TOTAL	110000
SCF_CONVERGENCE = 6
THRESH=10
GUI = 2
$end

$solvent
dielectric 4.90
$end
--------------------------------------------------------------

             Standard Nuclear Orientation (Angstroms)
    I     Atom           X                Y                Z
 ----------------------------------------------------------------
    1      C      -0.3622740000    -0.9289420000     0.9761490000
    2      S      -0.0523740000    -0.0789420000     2.4836490000
    3      C       0.4847260000     1.3990580000     1.6950490000
    4      C      -0.0522740000    -0.0793420000    -0.0917510000
    5      C       0.4210260000     1.2277580000     0.2897490000
    6      S      -0.1328740000    -0.3091420000    -1.8293510000
    7      C       0.4610260000     1.3387580000    -2.0783510000
    8      C       0.7010260000     2.0051580000    -0.8864510000
    9      F       1.1536260000     3.2628580000    -0.8429510000
   10      C       0.6160260000     1.7591580000    -3.4799510000
   11      O       0.3602260000     1.0329580000    -4.4303510000
   12      O       1.0709260000     3.0307580000    -3.5930510000
   13      C       1.2452260000     3.4941580000    -4.9400510000
   14      H       1.6152260000     4.5312580000    -4.8569510000
   15      H       0.2851260000     3.4676580000    -5.4940510000
   16      H       1.9772260000     2.8628580000    -5.4831510000
   17      C      -0.2371740000    -2.3586420000     0.9761490000
   18      H       0.8393260000    -2.2725420000     0.9687490000
   19      H      -0.1778740000    -3.0340420000     1.8168490000
   20      H      -0.1975740000    -2.8883420000     0.0357490000
   21      H       0.7995260000     2.2680580000     2.2826490000
 ----------------------------------------------------------------

   11   -1389.2633110845      5.33e-07  Convergence criterion met
 Total energy in the final basis set =    -1389.2633110845
        RIMP2         total energy =     -1391.7694848998 a.u.

                    Orbital Energies (a.u.)
 --------------------------------------------------------------

 Alpha MOs
 -- Occupied --
-92.0047 -91.9914 -26.3402 -20.6136 -20.5597 -11.4075 -11.3780 -11.3010
-11.2946 -11.2940 -11.2881 -11.2813 -11.2790 -11.2313  -9.0038  -8.9915
 -6.6846  -6.6840  -6.6835  -6.6726  -6.6719  -6.6707  -1.6574  -1.4659
 -1.3685  -1.2129  -1.1380  -1.0676  -1.0184  -0.9943  -0.9580  -0.9115
 -0.8631  -0.8048  -0.7883  -0.7586  -0.7309  -0.7223  -0.6926  -0.6833
 -0.6727  -0.6600  -0.6122  -0.5966  -0.5935  -0.5789  -0.5623  -0.5589
 -0.5311  -0.5244  -0.5181  -0.5009  -0.4723  -0.4716  -0.4704  -0.4591
 -0.3836  -0.3456  -0.2802

          Ground-State Mulliken Net Atomic Charges

     Atom                 Charge (a.u.)
  ----------------------------------------
      1 C                     0.048378
      2 S                     0.079157
      3 C                    -0.229445
      4 C                    -0.058893
      5 C                    -0.076728
      6 S                    -0.010498
      7 C                    -0.153675
      8 C                     0.388114
      9 F                    -0.208642
     10 C                     0.446634
     11 O                    -0.461721
     12 O                    -0.300837
     13 C                    -0.058419
     14 H                     0.121061
     15 H                     0.094840
     16 H                     0.094636
     17 C                    -0.383144
     18 H                     0.149798
     19 H                     0.163261
     20 H                     0.144071
     21 H                     0.212052
  ----------------------------------------
  Sum of atomic charges =     0.000000

                    Cartesian Multipole Moments
 -----------------------------------------------------------------
    Charge (ESU x 10^10)
                -0.0000
    Dipole Moment (Debye)
         X       1.5189      Y       0.0650      Z       3.2172
       Tot       3.5584
    Quadrupole Moments (Debye-Ang)
        XX     -96.2218     XY       1.6838     YY     -82.3120
        XZ      -2.1411     YZ     -10.1502     ZZ     -96.3965

 Total job time:  72.22s(wall), 2044.24s(cpu)
        *  Thank you very much for using Q-Chem.  Have a nice day.  *
