 Q-Chem 5.4, Q-Chem, Inc., Pleasanton, CA (2021)
 Q-Chem 5.4.0 for Intel X86 EM64T Linux

User input:
--------------------------------------------------------------
$molecule
0 1
C	-0.267644	-0.955820	0.977832
S	-0.033044	-0.082020	2.485332
C	0.373256	1.437180	1.696732
C	-0.032844	-0.082420	-0.090068
C	0.324756	1.260980	0.291432
S	-0.093144	-0.318420	-1.827668
C	0.354956	1.374980	-2.076668
C	0.535856	2.059780	-0.884768
F	0.877156	3.352180	-0.841268
C	0.472656	1.807280	-3.478268
O	0.281156	1.061580	-4.428668
O	0.815056	3.113680	-3.591368
C	0.948156	3.590580	-4.938368
H	1.226456	4.655880	-4.855268
H	-0.005944	3.480480	-5.492368
H	1.732456	3.025480	-5.481468
C	-0.267644	-2.391020	0.977832
H	-0.814044	-2.399020	0.046332
H	0.460256	-3.068920	0.557232
H	-1.078644	-2.922120	1.453732
H	0.611056	2.330280	2.284332
$end

$rem
JOBTYPE		SP
EXCHANGE	HF
CORRELATION	pRIMP2
BASIS		cc-pvtz
METHOD		rimp2
AUX_BASIS	rimp2-cc-pvtz
SOLVENT_METHOD	PCM
PURECART	11111
SYMMETRY	false
MEM_TOTAL	110000
SCF_CONVERGENCE = 6
THRESH=10
GUI = 2
$end

$solvent
dielectric 4.90
$end
--------------------------------------------------------------

             Standard Nuclear Orientation (Angstroms)
    I     Atom           X                Y                Z
 ----------------------------------------------------------------
    1      C      -0.2676440000    -0.9558200000     0.9778320000
    2      S      -0.0330440000    -0.0820200000     2.4853320000
    3      C       0.3732560000     1.4371800000     1.6967320000
    4      C      -0.0328440000    -0.0824200000    -0.0900680000
    5      C       0.3247560000     1.2609800000     0.2914320000
    6      S      -0.0931440000    -0.3184200000    -1.8276680000
    7      C       0.3549560000     1.3749800000    -2.0766680000
    8      C       0.5358560000     2.0597800000    -0.8847680000
    9      F       0.8771560000     3.3521800000    -0.8412680000
   10      C       0.4726560000     1.8072800000    -3.4782680000
   11      O       0.2811560000     1.0615800000    -4.4286680000
   12      O       0.8150560000     3.1136800000    -3.5913680000
   13      C       0.9481560000     3.5905800000    -4.9383680000
   14      H       1.2264560000     4.6558800000    -4.8552680000
   15      H      -0.0059440000     3.4804800000    -5.4923680000
   16      H       1.7324560000     3.0254800000    -5.4814680000
   17      C      -0.2676440000    -2.3910200000     0.9778320000
   18      H      -0.8140440000    -2.3990200000     0.0463320000
   19      H       0.4602560000    -3.0689200000     0.5572320000
   20      H      -1.0786440000    -2.9221200000     1.4537320000
   21      H       0.6110560000     2.3302800000     2.2843320000
 ----------------------------------------------------------------

   11   -1389.2689868648      4.63e-07  Convergence criterion met
 Total energy in the final basis set =    -1389.2689868648
        RIMP2         total energy =     -1391.7756226405 a.u.

                    Orbital Energies (a.u.)
 --------------------------------------------------------------

 Alpha MOs
 -- Occupied --
-92.0030 -91.9940 -26.3412 -20.6137 -20.5597 -11.4078 -11.3796 -11.3000
-11.2946 -11.2933 -11.2893 -11.2883 -11.2790 -11.2261  -9.0022  -8.9941
 -6.6829  -6.6823  -6.6818  -6.6752  -6.6745  -6.6734  -1.6583  -1.4661
 -1.3687  -1.2134  -1.1355  -1.0675  -1.0188  -0.9950  -0.9583  -0.9140
 -0.8635  -0.8052  -0.7890  -0.7592  -0.7300  -0.7232  -0.6943  -0.6835
 -0.6729  -0.6611  -0.6105  -0.5993  -0.5914  -0.5814  -0.5651  -0.5562
 -0.5392  -0.5300  -0.5072  -0.4891  -0.4737  -0.4717  -0.4669  -0.4534
 -0.3895  -0.3448  -0.2901

          Ground-State Mulliken Net Atomic Charges

     Atom                 Charge (a.u.)
  ----------------------------------------
      1 C                     0.034639
      2 S                     0.076091
      3 C                    -0.204405
      4 C                    -0.028316
      5 C                    -0.091622
      6 S                    -0.004805
      7 C                    -0.157306
      8 C                     0.388170
      9 F                    -0.207730
     10 C                     0.445660
     11 O                    -0.462728
     12 O                    -0.300950
     13 C                    -0.058474
     14 H                     0.121126
     15 H                     0.094758
     16 H                     0.094693
     17 C                    -0.366583
     18 H                     0.116234
     19 H                     0.152231
     20 H                     0.146633
     21 H                     0.212682
  ----------------------------------------
  Sum of atomic charges =     0.000000

                    Cartesian Multipole Moments
 -----------------------------------------------------------------
    Charge (ESU x 10^10)
                -0.0000
    Dipole Moment (Debye)
         X       0.2344      Y       0.5534      Z       2.6288
       Tot       2.6966
    Quadrupole Moments (Debye-Ang)
        XX     -95.5323     XY       3.7641     YY     -81.9097
        XZ      -2.6335     YZ      -8.3041     ZZ     -97.8104

 Total job time:  58.23s(wall), 1980.05s(cpu)
        *  Thank you very much for using Q-Chem.  Have a nice day.  *
