 Q-Chem 5.4, Q-Chem, Inc., Pleasanton, CA (2021)
 Q-Chem 5.4.0 for Intel X86 EM64T Linux

User input:
--------------------------------------------------------------
$molecule
0 1
C	-0.182671	-0.975447	0.975331
S	-0.025071	-0.084547	2.482831
C	0.247229	1.464253	1.694231
C	-0.024871	-0.084847	-0.092569
C	0.214229	1.284553	0.288931
S	-0.064371	-0.325247	-1.830169
C	0.234329	1.400753	-2.079169
C	0.354929	2.098753	-0.887269
F	0.582329	3.415953	-0.843769
C	0.314029	1.841653	-3.480769
O	0.188229	1.082153	-4.431169
O	0.541229	3.172953	-3.593869
C	0.632329	3.659653	-4.940869
H	0.816629	4.745153	-4.857769
H	-0.308571	3.466753	-5.494869
H	1.462829	3.165053	-5.483969
C	-0.182671	-2.410647	0.975331
H	0.834729	-2.418647	1.337731
H	-0.469971	-3.088547	1.765431
H	0.132729	-2.941747	0.089431
H	0.406329	2.374753	2.281831
$end

$rem
JOBTYPE		SP
EXCHANGE	HF
CORRELATION	pRIMP2
BASIS		cc-pvtz
METHOD		rimp2
AUX_BASIS	rimp2-cc-pvtz
SOLVENT_METHOD	PCM
PURECART	11111
SYMMETRY	false
MEM_TOTAL	110000
SCF_CONVERGENCE = 6
THRESH=10
GUI = 2
$end

$solvent
dielectric 4.90
$end
--------------------------------------------------------------

             Standard Nuclear Orientation (Angstroms)
    I     Atom           X                Y                Z
 ----------------------------------------------------------------
    1      C      -0.1826710000    -0.9754470000     0.9753310000
    2      S      -0.0250710000    -0.0845470000     2.4828310000
    3      C       0.2472290000     1.4642530000     1.6942310000
    4      C      -0.0248710000    -0.0848470000    -0.0925690000
    5      C       0.2142290000     1.2845530000     0.2889310000
    6      S      -0.0643710000    -0.3252470000    -1.8301690000
    7      C       0.2343290000     1.4007530000    -2.0791690000
    8      C       0.3549290000     2.0987530000    -0.8872690000
    9      F       0.5823290000     3.4159530000    -0.8437690000
   10      C       0.3140290000     1.8416530000    -3.4807690000
   11      O       0.1882290000     1.0821530000    -4.4311690000
   12      O       0.5412290000     3.1729530000    -3.5938690000
   13      C       0.6323290000     3.6596530000    -4.9408690000
   14      H       0.8166290000     4.7451530000    -4.8577690000
   15      H      -0.3085710000     3.4667530000    -5.4948690000
   16      H       1.4628290000     3.1650530000    -5.4839690000
   17      C      -0.1826710000    -2.4106470000     0.9753310000
   18      H       0.8347290000    -2.4186470000     1.3377310000
   19      H      -0.4699710000    -3.0885470000     1.7654310000
   20      H       0.1327290000    -2.9417470000     0.0894310000
   21      H       0.4063290000     2.3747530000     2.2818310000
 ----------------------------------------------------------------

   11   -1389.2722299502      5.37e-07  Convergence criterion met
 Total energy in the final basis set =    -1389.2722299502
        RIMP2         total energy =     -1391.7757194310 a.u.

                    Orbital Energies (a.u.)
 --------------------------------------------------------------

 Alpha MOs
 -- Occupied --
-92.0048 -91.9897 -26.3397 -20.6133 -20.5595 -11.4072 -11.3774 -11.3027
-11.2942 -11.2929 -11.2879 -11.2806 -11.2782 -11.2314  -9.0038  -8.9899
 -6.6847  -6.6841  -6.6836  -6.6710  -6.6703  -6.6691  -1.6570  -1.4656
 -1.3683  -1.2114  -1.1367  -1.0667  -1.0181  -0.9954  -0.9578  -0.9127
 -0.8627  -0.8046  -0.7877  -0.7581  -0.7309  -0.7219  -0.6916  -0.6830
 -0.6724  -0.6598  -0.6119  -0.5972  -0.5922  -0.5794  -0.5628  -0.5568
 -0.5322  -0.5278  -0.5168  -0.4985  -0.4722  -0.4711  -0.4700  -0.4589
 -0.3851  -0.3457  -0.2808

          Ground-State Mulliken Net Atomic Charges

     Atom                 Charge (a.u.)
  ----------------------------------------
      1 C                     0.055603
      2 S                     0.072538
      3 C                    -0.226553
      4 C                    -0.043594
      5 C                    -0.087238
      6 S                    -0.014036
      7 C                    -0.156262
      8 C                     0.389213
      9 F                    -0.209122
     10 C                     0.445544
     11 O                    -0.461862
     12 O                    -0.300753
     13 C                    -0.058658
     14 H                     0.121071
     15 H                     0.094789
     16 H                     0.094625
     17 C                    -0.385823
     18 H                     0.146436
     19 H                     0.162870
     20 H                     0.148426
     21 H                     0.212786
  ----------------------------------------
  Sum of atomic charges =     0.000000

                    Cartesian Multipole Moments
 -----------------------------------------------------------------
    Charge (ESU x 10^10)
                -0.0000
    Dipole Moment (Debye)
         X       1.0103      Y      -0.0271      Z       3.5223
       Tot       3.6644
    Quadrupole Moments (Debye-Ang)
        XX     -96.8641     XY       0.3048     YY     -80.7074
        XZ      -1.0843     YZ     -11.3386     ZZ     -96.1261

 Total job time:  55.64s(wall), 1923.56s(cpu)
        *  Thank you very much for using Q-Chem.  Have a nice day.  *
