 Q-Chem 5.4, Q-Chem, Inc., Pleasanton, CA (2021)
 Q-Chem 5.4.0 for Intel X86 EM64T Linux

User input:
--------------------------------------------------------------
$molecule
0 1
C	-0.668521	-0.747937	0.973560
S	-0.086621	-0.055137	2.481060
C	0.923679	1.149963	1.692460
C	-0.086621	-0.055537	-0.094340
C	0.805179	1.010863	0.287160
S	-0.240921	-0.244037	-1.831940
C	0.880779	1.101463	-2.080940
C	1.334179	1.645563	-0.889040
F	2.189679	2.672563	-0.845540
C	1.170179	1.443363	-3.482540
O	0.681479	0.848563	-4.432940
O	2.032579	2.482763	-3.595640
C	2.354779	2.858663	-4.942640
H	3.057179	3.706563	-4.859540
H	1.443579	3.162063	-5.496640
H	2.826779	2.015063	-5.485740
C	-0.668521	-2.183137	0.973560
H	-0.848721	-2.191137	2.038360
H	-1.496521	-2.861037	0.827860
H	0.258679	-2.714237	1.130260
H	1.516679	1.858863	2.280060
$end

$rem
JOBTYPE		SP
EXCHANGE	HF
CORRELATION	pRIMP2
BASIS		cc-pvtz
METHOD		rimp2
AUX_BASIS	rimp2-cc-pvtz
SOLVENT_METHOD	PCM
PURECART	11111
SYMMETRY	false
MEM_TOTAL	110000
SCF_CONVERGENCE = 6
THRESH=10
GUI = 2
$end

$solvent
dielectric 4.90
$end
--------------------------------------------------------------

             Standard Nuclear Orientation (Angstroms)
    I     Atom           X                Y                Z
 ----------------------------------------------------------------
    1      C      -0.6685210000    -0.7479370000     0.9735600000
    2      S      -0.0866210000    -0.0551370000     2.4810600000
    3      C       0.9236790000     1.1499630000     1.6924600000
    4      C      -0.0866210000    -0.0555370000    -0.0943400000
    5      C       0.8051790000     1.0108630000     0.2871600000
    6      S      -0.2409210000    -0.2440370000    -1.8319400000
    7      C       0.8807790000     1.1014630000    -2.0809400000
    8      C       1.3341790000     1.6455630000    -0.8890400000
    9      F       2.1896790000     2.6725630000    -0.8455400000
   10      C       1.1701790000     1.4433630000    -3.4825400000
   11      O       0.6814790000     0.8485630000    -4.4329400000
   12      O       2.0325790000     2.4827630000    -3.5956400000
   13      C       2.3547790000     2.8586630000    -4.9426400000
   14      H       3.0571790000     3.7065630000    -4.8595400000
   15      H       1.4435790000     3.1620630000    -5.4966400000
   16      H       2.8267790000     2.0150630000    -5.4857400000
   17      C      -0.6685210000    -2.1831370000     0.9735600000
   18      H      -0.8487210000    -2.1911370000     2.0383600000
   19      H      -1.4965210000    -2.8610370000     0.8278600000
   20      H       0.2586790000    -2.7142370000     1.1302600000
   21      H       1.5166790000     1.8588630000     2.2800600000
 ----------------------------------------------------------------

   11   -1389.2396343091      4.73e-07  Convergence criterion met
 Total energy in the final basis set =    -1389.2396343091
        RIMP2         total energy =     -1391.7506753742 a.u.

                    Orbital Energies (a.u.)
 --------------------------------------------------------------

 Alpha MOs
 -- Occupied --
-92.0064 -91.9967 -26.3417 -20.6136 -20.5596 -11.4077 -11.3804 -11.3116
-11.2940 -11.2938 -11.2882 -11.2795 -11.2759 -11.2200  -9.0057  -8.9967
 -6.6864  -6.6857  -6.6853  -6.6777  -6.6770  -6.6759  -1.6590  -1.4660
 -1.3686  -1.2162  -1.1399  -1.0655  -1.0216  -0.9924  -0.9598  -0.9092
 -0.8653  -0.8091  -0.7896  -0.7586  -0.7322  -0.7237  -0.6928  -0.6834
 -0.6729  -0.6608  -0.6075  -0.6034  -0.5918  -0.5773  -0.5647  -0.5598
 -0.5303  -0.5289  -0.5090  -0.4791  -0.4740  -0.4718  -0.4666  -0.4534
 -0.3897  -0.3436  -0.2955

          Ground-State Mulliken Net Atomic Charges

     Atom                 Charge (a.u.)
  ----------------------------------------
      1 C                    -0.046977
      2 S                     0.084802
      3 C                    -0.183152
      4 C                     0.012342
      5 C                    -0.088444
      6 S                     0.015593
      7 C                    -0.157724
      8 C                     0.391170
      9 F                    -0.207619
     10 C                     0.446508
     11 O                    -0.463197
     12 O                    -0.301377
     13 C                    -0.058456
     14 H                     0.121001
     15 H                     0.094882
     16 H                     0.094667
     17 C                    -0.353084
     18 H                     0.105544
     19 H                     0.143225
     20 H                     0.134840
     21 H                     0.215455
  ----------------------------------------
  Sum of atomic charges =     0.000000

                    Cartesian Multipole Moments
 -----------------------------------------------------------------
    Charge (ESU x 10^10)
                -0.0000
    Dipole Moment (Debye)
         X       1.8037      Y       0.8235      Z       3.6033
       Tot       4.1128
    Quadrupole Moments (Debye-Ang)
        XX     -92.2336     XY       5.9119     YY     -87.0476
        XZ      -4.9662     YZ      -8.2817     ZZ     -95.1146

 Total job time:  61.67s(wall), 2054.73s(cpu)
        *  Thank you very much for using Q-Chem.  Have a nice day.  *
