 Q-Chem 5.4, Q-Chem, Inc., Pleasanton, CA (2021)
 Q-Chem 5.4.0 for Intel X86 EM64T Linux

User input:
--------------------------------------------------------------
$molecule
0 1
C	0.002496	-0.991205	0.976887
S	0.002996	-0.086405	2.484387
C	0.002196	1.486095	1.695787
C	0.003296	-0.086805	-0.091013
C	0.000896	1.303395	0.290487
S	0.006096	-0.330305	-1.828613
C	0.000596	1.421295	-2.077613
C	-0.001904	2.129695	-0.885713
F	-0.006704	3.466295	-0.842213
C	0.002496	1.869395	-3.479213
O	0.010396	1.099495	-4.429613
O	-0.005004	3.219895	-3.592313
C	0.000196	3.714995	-4.939313
H	-0.006804	4.815995	-4.856213
H	-0.892904	3.361695	-5.493313
H	0.903996	3.372095	-5.482413
C	0.002496	-2.426405	0.976887
H	-0.936504	-2.434405	0.443387
H	0.422596	-3.104305	0.248687
H	-0.461904	-2.957505	1.794587
H	0.000796	2.410395	2.283387
$end

$rem
JOBTYPE		SP
EXCHANGE	HF
CORRELATION	pRIMP2
BASIS		cc-pvtz
METHOD		rimp2
AUX_BASIS	rimp2-cc-pvtz
SOLVENT_METHOD	PCM
PURECART	11111
SYMMETRY	false
MEM_TOTAL	110000
SCF_CONVERGENCE = 6
THRESH=10
GUI = 2
$end

$solvent
dielectric 4.90
$end
--------------------------------------------------------------

             Standard Nuclear Orientation (Angstroms)
    I     Atom           X                Y                Z
 ----------------------------------------------------------------
    1      C       0.0024960000    -0.9912050000     0.9768870000
    2      S       0.0029960000    -0.0864050000     2.4843870000
    3      C       0.0021960000     1.4860950000     1.6957870000
    4      C       0.0032960000    -0.0868050000    -0.0910130000
    5      C       0.0008960000     1.3033950000     0.2904870000
    6      S       0.0060960000    -0.3303050000    -1.8286130000
    7      C       0.0005960000     1.4212950000    -2.0776130000
    8      C      -0.0019040000     2.1296950000    -0.8857130000
    9      F      -0.0067040000     3.4662950000    -0.8422130000
   10      C       0.0024960000     1.8693950000    -3.4792130000
   11      O       0.0103960000     1.0994950000    -4.4296130000
   12      O      -0.0050040000     3.2198950000    -3.5923130000
   13      C       0.0001960000     3.7149950000    -4.9393130000
   14      H      -0.0068040000     4.8159950000    -4.8562130000
   15      H      -0.8929040000     3.3616950000    -5.4933130000
   16      H       0.9039960000     3.3720950000    -5.4824130000
   17      C       0.0024960000    -2.4264050000     0.9768870000
   18      H      -0.9365040000    -2.4344050000     0.4433870000
   19      H       0.4225960000    -3.1043050000     0.2486870000
   20      H      -0.4619040000    -2.9575050000     1.7945870000
   21      H       0.0007960000     2.4103950000     2.2833870000
 ----------------------------------------------------------------

   11   -1389.2733896045      5.04e-07  Convergence criterion met
 Total energy in the final basis set =    -1389.2733896045
        RIMP2         total energy =     -1391.7780091626 a.u.

                    Orbital Energies (a.u.)
 --------------------------------------------------------------

 Alpha MOs
 -- Occupied --
-92.0062 -91.9914 -26.3401 -20.6135 -20.5596 -11.4074 -11.3780 -11.3016
-11.2944 -11.2922 -11.2881 -11.2811 -11.2785 -11.2301  -9.0050  -8.9915
 -6.6858  -6.6852  -6.6847  -6.6726  -6.6719  -6.6708  -1.6573  -1.4658
 -1.3684  -1.2115  -1.1358  -1.0671  -1.0180  -0.9957  -0.9578  -0.9134
 -0.8629  -0.8042  -0.7882  -0.7586  -0.7300  -0.7222  -0.6931  -0.6832
 -0.6726  -0.6603  -0.6125  -0.5951  -0.5889  -0.5829  -0.5632  -0.5587
 -0.5360  -0.5294  -0.5087  -0.4966  -0.4729  -0.4711  -0.4695  -0.4610
 -0.3846  -0.3445  -0.2833

          Ground-State Mulliken Net Atomic Charges

     Atom                 Charge (a.u.)
  ----------------------------------------
      1 C                     0.056538
      2 S                     0.077971
      3 C                    -0.224534
      4 C                    -0.030065
      5 C                    -0.089733
      6 S                    -0.015595
      7 C                    -0.155626
      8 C                     0.384936
      9 F                    -0.208720
     10 C                     0.445539
     11 O                    -0.462419
     12 O                    -0.300651
     13 C                    -0.058681
     14 H                     0.121154
     15 H                     0.094698
     16 H                     0.094725
     17 C                    -0.387944
     18 H                     0.136584
     19 H                     0.162794
     20 H                     0.146943
     21 H                     0.212088
  ----------------------------------------
  Sum of atomic charges =     0.000000

                    Cartesian Multipole Moments
 -----------------------------------------------------------------
    Charge (ESU x 10^10)
                -0.0000
    Dipole Moment (Debye)
         X      -0.6360      Y       0.0850      Z       2.9629
       Tot       3.0316
    Quadrupole Moments (Debye-Ang)
        XX     -96.8346     XY       1.6333     YY     -80.5564
        XZ      -0.8686     YZ      -9.8275     ZZ     -97.1358

 Total job time:  55.90s(wall), 1979.93s(cpu)
        *  Thank you very much for using Q-Chem.  Have a nice day.  *
