 Q-Chem 5.4, Q-Chem, Inc., Pleasanton, CA (2021)
 Q-Chem 5.4.0 for Intel X86 EM64T Linux

User input:
--------------------------------------------------------------
$molecule
0 1
C	-0.903472	-0.471137	0.975737
S	-0.119672	-0.019137	2.483237
C	1.241828	0.767763	1.694637
C	-0.119772	-0.019537	-0.092163
C	1.082928	0.677463	0.289337
S	-0.329372	-0.143837	-1.829763
C	1.184928	0.736763	-2.078763
C	1.797028	1.093063	-0.886863
F	2.952228	1.765563	-0.843363
C	1.573828	0.959163	-3.480363
O	0.911128	0.567363	-4.430763
O	2.739728	1.640863	-3.593463
C	3.171028	1.883963	-4.940463
H	4.121128	2.440463	-4.857363
H	2.418528	2.480763	-5.494463
H	3.326028	0.929763	-5.483563
C	-0.903472	-1.906337	0.975737
H	0.161328	-1.914337	1.155937
H	-1.049172	-2.584237	1.803737
H	-0.746772	-2.437437	0.048537
H	2.041528	1.231163	2.282237
$end

$rem
JOBTYPE		SP
EXCHANGE	HF
CORRELATION	pRIMP2
BASIS		cc-pvtz
METHOD		rimp2
AUX_BASIS	rimp2-cc-pvtz
SOLVENT_METHOD	PCM
PURECART	11111
SYMMETRY	false
MEM_TOTAL	110000
SCF_CONVERGENCE = 6
THRESH=10
GUI = 2
$end

$solvent
dielectric 4.90
$end
--------------------------------------------------------------

             Standard Nuclear Orientation (Angstroms)
    I     Atom           X                Y                Z
 ----------------------------------------------------------------
    1      C      -0.9034720000    -0.4711370000     0.9757370000
    2      S      -0.1196720000    -0.0191370000     2.4832370000
    3      C       1.2418280000     0.7677630000     1.6946370000
    4      C      -0.1197720000    -0.0195370000    -0.0921630000
    5      C       1.0829280000     0.6774630000     0.2893370000
    6      S      -0.3293720000    -0.1438370000    -1.8297630000
    7      C       1.1849280000     0.7367630000    -2.0787630000
    8      C       1.7970280000     1.0930630000    -0.8868630000
    9      F       2.9522280000     1.7655630000    -0.8433630000
   10      C       1.5738280000     0.9591630000    -3.4803630000
   11      O       0.9111280000     0.5673630000    -4.4307630000
   12      O       2.7397280000     1.6408630000    -3.5934630000
   13      C       3.1710280000     1.8839630000    -4.9404630000
   14      H       4.1211280000     2.4404630000    -4.8573630000
   15      H       2.4185280000     2.4807630000    -5.4944630000
   16      H       3.3260280000     0.9297630000    -5.4835630000
   17      C      -0.9034720000    -1.9063370000     0.9757370000
   18      H       0.1613280000    -1.9143370000     1.1559370000
   19      H      -1.0491720000    -2.5842370000     1.8037370000
   20      H      -0.7467720000    -2.4374370000     0.0485370000
   21      H       2.0415280000     1.2311630000     2.2822370000
 ----------------------------------------------------------------

   11   -1389.1999062577      5.38e-07  Convergence criterion met
 Total energy in the final basis set =    -1389.1999062577
        RIMP2         total energy =     -1391.7178595720 a.u.

                    Orbital Energies (a.u.)
 --------------------------------------------------------------

 Alpha MOs
 -- Occupied --
-92.0018 -92.0007 -26.3437 -20.6146 -20.5608 -11.4091 -11.3831 -11.3223
-11.3014 -11.2961 -11.2889 -11.2838 -11.2707 -11.2220  -9.0016  -9.0011
 -6.6826  -6.6819  -6.6817  -6.6808  -6.6808  -6.6806  -1.6609  -1.4671
 -1.3698  -1.2252  -1.1471  -1.0720  -1.0232  -0.9909  -0.9612  -0.9042
 -0.8671  -0.8111  -0.7918  -0.7611  -0.7355  -0.7256  -0.6982  -0.6846
 -0.6738  -0.6626  -0.6158  -0.6036  -0.5963  -0.5701  -0.5636  -0.5554
 -0.5326  -0.5267  -0.5121  -0.5038  -0.4768  -0.4734  -0.4720  -0.4434
 -0.3795  -0.3472  -0.2869

          Ground-State Mulliken Net Atomic Charges

     Atom                 Charge (a.u.)
  ----------------------------------------
      1 C                    -0.103260
      2 S                     0.089547
      3 C                    -0.154402
      4 C                     0.060999
      5 C                    -0.114256
      6 S                     0.033798
      7 C                    -0.154508
      8 C                     0.390231
      9 F                    -0.206563
     10 C                     0.448575
     11 O                    -0.462633
     12 O                    -0.301229
     13 C                    -0.058249
     14 H                     0.121278
     15 H                     0.095158
     16 H                     0.094803
     17 C                    -0.368795
     18 H                     0.096550
     19 H                     0.146203
     20 H                     0.130954
     21 H                     0.215799
  ----------------------------------------
  Sum of atomic charges =     0.000000

                    Cartesian Multipole Moments
 -----------------------------------------------------------------
    Charge (ESU x 10^10)
                -0.0000
    Dipole Moment (Debye)
         X       3.4658      Y       0.2673      Z       2.8007
       Tot       4.4640
    Quadrupole Moments (Debye-Ang)
        XX     -90.9051     XY       4.6917     YY     -91.1768
        XZ      -5.4033     YZ      -5.0859     ZZ     -95.1063

 Total job time:  55.17s(wall), 1962.32s(cpu)
        *  Thank you very much for using Q-Chem.  Have a nice day.  *
