 Q-Chem 5.4, Q-Chem, Inc., Pleasanton, CA (2021)
 Q-Chem 5.4.0 for Intel X86 EM64T Linux

User input:
--------------------------------------------------------------
$molecule
0 1
C	-0.439342	-0.893839	0.973560
S	-0.056542	-0.074039	2.481060
C	0.607358	1.351461	1.692460
C	-0.056442	-0.074439	-0.094340
C	0.528958	1.186461	0.287160
S	-0.156742	-0.296439	-1.831940
C	0.578458	1.293461	-2.080940
C	0.875658	1.936461	-0.889040
F	1.436158	3.149961	-0.845540
C	0.769558	1.698761	-3.482540
O	0.451458	0.997661	-4.432940
O	1.333558	2.925861	-3.595640
C	1.547558	3.372361	-4.942640
H	2.006458	4.373161	-4.859540
H	0.588758	3.429561	-5.496640
H	2.221758	2.679661	-5.485740
C	-0.439342	-2.329039	0.973560
H	-0.619542	-2.337039	2.038360
H	-1.267342	-3.006939	0.827860
H	0.487858	-2.860139	1.130260
H	0.996658	2.189761	2.280060
$end

$rem
JOBTYPE		SP
EXCHANGE	HF
CORRELATION	pRIMP2
BASIS		cc-pvtz
METHOD		rimp2
AUX_BASIS	rimp2-cc-pvtz
SOLVENT_METHOD	PCM
PURECART	11111
SYMMETRY	false
MEM_TOTAL	110000
SCF_CONVERGENCE = 6
THRESH=10
GUI = 2
$end

$solvent
dielectric 4.90
$end
--------------------------------------------------------------

             Standard Nuclear Orientation (Angstroms)
    I     Atom           X                Y                Z
 ----------------------------------------------------------------
    1      C      -0.4393420000    -0.8938390000     0.9735600000
    2      S      -0.0565420000    -0.0740390000     2.4810600000
    3      C       0.6073580000     1.3514610000     1.6924600000
    4      C      -0.0564420000    -0.0744390000    -0.0943400000
    5      C       0.5289580000     1.1864610000     0.2871600000
    6      S      -0.1567420000    -0.2964390000    -1.8319400000
    7      C       0.5784580000     1.2934610000    -2.0809400000
    8      C       0.8756580000     1.9364610000    -0.8890400000
    9      F       1.4361580000     3.1499610000    -0.8455400000
   10      C       0.7695580000     1.6987610000    -3.4825400000
   11      O       0.4514580000     0.9976610000    -4.4329400000
   12      O       1.3335580000     2.9258610000    -3.5956400000
   13      C       1.5475580000     3.3723610000    -4.9426400000
   14      H       2.0064580000     4.3731610000    -4.8595400000
   15      H       0.5887580000     3.4295610000    -5.4966400000
   16      H       2.2217580000     2.6796610000    -5.4857400000
   17      C      -0.4393420000    -2.3290390000     0.9735600000
   18      H      -0.6195420000    -2.3370390000     2.0383600000
   19      H      -1.2673420000    -3.0069390000     0.8278600000
   20      H       0.4878580000    -2.8601390000     1.1302600000
   21      H       0.9966580000     2.1897610000     2.2800600000
 ----------------------------------------------------------------

   11   -1389.2587344519      4.67e-07  Convergence criterion met
 Total energy in the final basis set =    -1389.2587344519
        RIMP2         total energy =     -1391.7663685170 a.u.

                    Orbital Energies (a.u.)
 --------------------------------------------------------------

 Alpha MOs
 -- Occupied --
-92.0079 -91.9937 -26.3408 -20.6134 -20.5595 -11.4074 -11.3791 -11.3042
-11.2941 -11.2882 -11.2881 -11.2859 -11.2789 -11.2233  -9.0068  -8.9938
 -6.6876  -6.6869  -6.6865  -6.6748  -6.6741  -6.6730  -1.6581  -1.4658
 -1.3684  -1.2136  -1.1379  -1.0648  -1.0204  -0.9940  -0.9591  -0.9113
 -0.8643  -0.8074  -0.7887  -0.7581  -0.7315  -0.7229  -0.6917  -0.6832
 -0.6726  -0.6606  -0.6074  -0.6024  -0.5917  -0.5774  -0.5653  -0.5581
 -0.5356  -0.5299  -0.5080  -0.4792  -0.4734  -0.4714  -0.4653  -0.4592
 -0.3910  -0.3447  -0.2928

          Ground-State Mulliken Net Atomic Charges

     Atom                 Charge (a.u.)
  ----------------------------------------
      1 C                     0.000445
      2 S                     0.079927
      3 C                    -0.202249
      4 C                    -0.012511
      5 C                    -0.085372
      6 S                     0.003429
      7 C                    -0.157939
      8 C                     0.391806
      9 F                    -0.208382
     10 C                     0.445591
     11 O                    -0.462570
     12 O                    -0.301104
     13 C                    -0.058515
     14 H                     0.121028
     15 H                     0.094794
     16 H                     0.094698
     17 C                    -0.356562
     18 H                     0.108283
     19 H                     0.152458
     20 H                     0.138056
     21 H                     0.214688
  ----------------------------------------
  Sum of atomic charges =     0.000000

                    Cartesian Multipole Moments
 -----------------------------------------------------------------
    Charge (ESU x 10^10)
                -0.0000
    Dipole Moment (Debye)
         X       0.9741      Y       0.7573      Z       3.7393
       Tot       3.9376
    Quadrupole Moments (Debye-Ang)
        XX     -94.4129     XY       4.7092     YY     -83.8034
        XZ      -3.5315     YZ     -10.1239     ZZ     -95.3443

 Total job time:  54.96s(wall), 1926.97s(cpu)
        *  Thank you very much for using Q-Chem.  Have a nice day.  *
