 Q-Chem 5.4, Q-Chem, Inc., Pleasanton, CA (2021)
 Q-Chem 5.4.0 for Intel X86 EM64T Linux

User input:
--------------------------------------------------------------
$molecule
0 1
C	-0.178465	-0.975447	0.974537
S	-0.020865	-0.084547	2.482037
C	0.251435	1.464253	1.693437
C	-0.020665	-0.084847	-0.093363
C	0.218435	1.284553	0.288137
S	-0.060165	-0.325247	-1.830963
C	0.238535	1.400753	-2.079963
C	0.359135	2.098753	-0.888063
F	0.586535	3.415953	-0.844563
C	0.318235	1.841653	-3.481563
O	0.192435	1.082153	-4.431963
O	0.545435	3.172953	-3.594663
C	0.636535	3.659653	-4.941663
H	0.820835	4.745153	-4.858563
H	-0.304365	3.466753	-5.495663
H	1.467035	3.165053	-5.484763
C	-0.178465	-2.410647	0.974537
H	-1.109965	-2.418647	1.520937
H	-0.599065	-3.088547	0.246637
H	0.297435	-2.941747	1.785537
H	0.410535	2.374753	2.281037
$end

$rem
JOBTYPE		SP
EXCHANGE	HF
CORRELATION	pRIMP2
BASIS		cc-pvtz
METHOD		rimp2
AUX_BASIS	rimp2-cc-pvtz
SOLVENT_METHOD	PCM
PURECART	11111
SYMMETRY	false
MEM_TOTAL	110000
SCF_CONVERGENCE = 6
THRESH=10
GUI = 2
$end

$solvent
dielectric 4.90
$end
--------------------------------------------------------------

             Standard Nuclear Orientation (Angstroms)
    I     Atom           X                Y                Z
 ----------------------------------------------------------------
    1      C      -0.1784650000    -0.9754470000     0.9745370000
    2      S      -0.0208650000    -0.0845470000     2.4820370000
    3      C       0.2514350000     1.4642530000     1.6934370000
    4      C      -0.0206650000    -0.0848470000    -0.0933630000
    5      C       0.2184350000     1.2845530000     0.2881370000
    6      S      -0.0601650000    -0.3252470000    -1.8309630000
    7      C       0.2385350000     1.4007530000    -2.0799630000
    8      C       0.3591350000     2.0987530000    -0.8880630000
    9      F       0.5865350000     3.4159530000    -0.8445630000
   10      C       0.3182350000     1.8416530000    -3.4815630000
   11      O       0.1924350000     1.0821530000    -4.4319630000
   12      O       0.5454350000     3.1729530000    -3.5946630000
   13      C       0.6365350000     3.6596530000    -4.9416630000
   14      H       0.8208350000     4.7451530000    -4.8585630000
   15      H      -0.3043650000     3.4667530000    -5.4956630000
   16      H       1.4670350000     3.1650530000    -5.4847630000
   17      C      -0.1784650000    -2.4106470000     0.9745370000
   18      H      -1.1099650000    -2.4186470000     1.5209370000
   19      H      -0.5990650000    -3.0885470000     0.2466370000
   20      H       0.2974350000    -2.9417470000     1.7855370000
   21      H       0.4105350000     2.3747530000     2.2810370000
 ----------------------------------------------------------------

   11   -1389.2691526745      5.12e-07  Convergence criterion met
 Total energy in the final basis set =    -1389.2691526745
        RIMP2         total energy =     -1391.7733674009 a.u.

                    Orbital Energies (a.u.)
 --------------------------------------------------------------

 Alpha MOs
 -- Occupied --
-92.0066 -91.9900 -26.3396 -20.6132 -20.5594 -11.4071 -11.3774 -11.2991
-11.2949 -11.2940 -11.2879 -11.2808 -11.2780 -11.2286  -9.0055  -8.9902
 -6.6864  -6.6858  -6.6853  -6.6712  -6.6705  -6.6694  -1.6569  -1.4656
 -1.3682  -1.2111  -1.1364  -1.0655  -1.0184  -0.9955  -0.9579  -0.9130
 -0.8628  -0.8049  -0.7877  -0.7579  -0.7306  -0.7219  -0.6915  -0.6830
 -0.6724  -0.6599  -0.6120  -0.5955  -0.5899  -0.5805  -0.5633  -0.5569
 -0.5333  -0.5287  -0.5126  -0.4949  -0.4722  -0.4711  -0.4705  -0.4596
 -0.3851  -0.3454  -0.2824

          Ground-State Mulliken Net Atomic Charges

     Atom                 Charge (a.u.)
  ----------------------------------------
      1 C                     0.020998
      2 S                     0.071828
      3 C                    -0.215031
      4 C                    -0.000464
      5 C                    -0.101585
      6 S                    -0.012927
      7 C                    -0.157532
      8 C                     0.390674
      9 F                    -0.209385
     10 C                     0.445795
     11 O                    -0.462013
     12 O                    -0.300705
     13 C                    -0.058692
     14 H                     0.121017
     15 H                     0.094682
     16 H                     0.094704
     17 C                    -0.384070
     18 H                     0.135822
     19 H                     0.168273
     20 H                     0.144687
     21 H                     0.213925
  ----------------------------------------
  Sum of atomic charges =     0.000000

                    Cartesian Multipole Moments
 -----------------------------------------------------------------
    Charge (ESU x 10^10)
                -0.0000
    Dipole Moment (Debye)
         X      -0.2842      Y       0.1657      Z       3.6411
       Tot       3.6559
    Quadrupole Moments (Debye-Ang)
        XX     -96.2898     XY       3.6879     YY     -80.9906
        XZ      -1.8140     YZ     -11.1387     ZZ     -95.8280

 Total job time:  76.83s(wall), 3118.78s(cpu)
        *  Thank you very much for using Q-Chem.  Have a nice day.  *
