 Q-Chem 5.4, Q-Chem, Inc., Pleasanton, CA (2021)
 Q-Chem 5.4.0 for Intel X86 EM64T Linux

User input:
--------------------------------------------------------------
$molecule
0 1
C	-0.440158	-0.893839	0.973641
S	-0.057358	-0.074039	2.481141
C	0.606542	1.351461	1.692541
C	-0.057258	-0.074439	-0.094259
C	0.528142	1.186461	0.287241
S	-0.157558	-0.296439	-1.831859
C	0.577642	1.293461	-2.080859
C	0.874842	1.936461	-0.888959
F	1.435342	3.149961	-0.845459
C	0.768742	1.698761	-3.482459
O	0.450642	0.997661	-4.432859
O	1.332742	2.925861	-3.595559
C	1.546742	3.372361	-4.942559
H	2.005642	4.373161	-4.859459
H	0.587942	3.429561	-5.496559
H	2.220942	2.679661	-5.485659
C	-0.440158	-2.329039	0.973641
H	-0.245258	-2.337039	2.035841
H	-1.268058	-3.006939	1.119941
H	0.484742	-2.860139	0.803841
H	0.995842	2.189761	2.280141
$end

$rem
JOBTYPE		SP
EXCHANGE	HF
CORRELATION	pRIMP2
BASIS		cc-pvtz
METHOD		rimp2
AUX_BASIS	rimp2-cc-pvtz
SOLVENT_METHOD	PCM
PURECART	11111
SYMMETRY	false
MEM_TOTAL	110000
SCF_CONVERGENCE = 6
THRESH=10
GUI = 2
$end

$solvent
dielectric 4.90
$end
--------------------------------------------------------------

             Standard Nuclear Orientation (Angstroms)
    I     Atom           X                Y                Z
 ----------------------------------------------------------------
    1      C      -0.4401580000    -0.8938390000     0.9736410000
    2      S      -0.0573580000    -0.0740390000     2.4811410000
    3      C       0.6065420000     1.3514610000     1.6925410000
    4      C      -0.0572580000    -0.0744390000    -0.0942590000
    5      C       0.5281420000     1.1864610000     0.2872410000
    6      S      -0.1575580000    -0.2964390000    -1.8318590000
    7      C       0.5776420000     1.2934610000    -2.0808590000
    8      C       0.8748420000     1.9364610000    -0.8889590000
    9      F       1.4353420000     3.1499610000    -0.8454590000
   10      C       0.7687420000     1.6987610000    -3.4824590000
   11      O       0.4506420000     0.9976610000    -4.4328590000
   12      O       1.3327420000     2.9258610000    -3.5955590000
   13      C       1.5467420000     3.3723610000    -4.9425590000
   14      H       2.0056420000     4.3731610000    -4.8594590000
   15      H       0.5879420000     3.4295610000    -5.4965590000
   16      H       2.2209420000     2.6796610000    -5.4856590000
   17      C      -0.4401580000    -2.3290390000     0.9736410000
   18      H      -0.2452580000    -2.3370390000     2.0358410000
   19      H      -1.2680580000    -3.0069390000     1.1199410000
   20      H       0.4847420000    -2.8601390000     0.8038410000
   21      H       0.9958420000     2.1897610000     2.2801410000
 ----------------------------------------------------------------

   11   -1389.2578267467      4.79e-07  Convergence criterion met
 Total energy in the final basis set =    -1389.2578267467
        RIMP2         total energy =     -1391.7653815865 a.u.

                    Orbital Energies (a.u.)
 --------------------------------------------------------------

 Alpha MOs
 -- Occupied --
-92.0068 -91.9935 -26.3409 -20.6134 -20.5594 -11.4074 -11.3792 -11.3041
-11.2940 -11.2887 -11.2880 -11.2867 -11.2788 -11.2230  -9.0060  -8.9936
 -6.6867  -6.6860  -6.6856  -6.6747  -6.6740  -6.6729  -1.6581  -1.4658
 -1.3684  -1.2137  -1.1382  -1.0650  -1.0204  -0.9938  -0.9591  -0.9109
 -0.8643  -0.8076  -0.7888  -0.7581  -0.7316  -0.7230  -0.6918  -0.6832
 -0.6726  -0.6606  -0.6066  -0.6038  -0.5921  -0.5756  -0.5654  -0.5576
 -0.5372  -0.5299  -0.5080  -0.4804  -0.4747  -0.4714  -0.4688  -0.4534
 -0.3913  -0.3447  -0.2923

          Ground-State Mulliken Net Atomic Charges

     Atom                 Charge (a.u.)
  ----------------------------------------
      1 C                     0.014883
      2 S                     0.077181
      3 C                    -0.202522
      4 C                    -0.025850
      5 C                    -0.079316
      6 S                     0.003475
      7 C                    -0.156288
      8 C                     0.388443
      9 F                    -0.208189
     10 C                     0.446076
     11 O                    -0.462573
     12 O                    -0.301142
     13 C                    -0.058503
     14 H                     0.121016
     15 H                     0.094799
     16 H                     0.094669
     17 C                    -0.362899
     18 H                     0.113609
     19 H                     0.146394
     20 H                     0.142008
     21 H                     0.214728
  ----------------------------------------
  Sum of atomic charges =     0.000000

                    Cartesian Multipole Moments
 -----------------------------------------------------------------
    Charge (ESU x 10^10)
                -0.0000
    Dipole Moment (Debye)
         X       1.1964      Y       0.7321      Z       3.7656
       Tot       4.0184
    Quadrupole Moments (Debye-Ang)
        XX     -94.6115     XY       4.0827     YY     -83.8405
        XZ      -3.5561     YZ     -10.2473     ZZ     -95.3282

 Total job time:  60.90s(wall), 1994.35s(cpu)
        *  Thank you very much for using Q-Chem.  Have a nice day.  *
