 Q-Chem 5.4, Q-Chem, Inc., Pleasanton, CA (2021)
 Q-Chem 5.4.0 for Intel X86 EM64T Linux

User input:
--------------------------------------------------------------
$molecule
0 1
C	-0.356948	-0.928548	0.977865
S	-0.047048	-0.078548	2.485365
C	0.490052	1.399452	1.696765
C	-0.046948	-0.078948	-0.090035
C	0.426352	1.228152	0.291465
S	-0.127548	-0.308748	-1.827635
C	0.466352	1.339152	-2.076635
C	0.706352	2.005552	-0.884735
F	1.158952	3.263252	-0.841235
C	0.621352	1.759552	-3.478235
O	0.365552	1.033352	-4.428635
O	1.076252	3.031152	-3.591335
C	1.250552	3.494552	-4.938335
H	1.620552	4.531652	-4.855235
H	0.290452	3.468052	-5.492335
H	1.982552	2.863252	-5.481435
C	-0.356948	-2.363748	0.977865
H	0.331552	-2.371748	0.145765
H	0.287252	-3.041648	1.518065
H	-1.081548	-2.894848	0.378565
H	0.804852	2.268452	2.284365
$end

$rem
JOBTYPE		SP
EXCHANGE	HF
CORRELATION	pRIMP2
BASIS		cc-pvtz
METHOD		rimp2
AUX_BASIS	rimp2-cc-pvtz
SOLVENT_METHOD	PCM
PURECART	11111
SYMMETRY	false
MEM_TOTAL	110000
SCF_CONVERGENCE = 6
THRESH=10
GUI = 2
$end

$solvent
dielectric 4.90
$end
--------------------------------------------------------------

             Standard Nuclear Orientation (Angstroms)
    I     Atom           X                Y                Z
 ----------------------------------------------------------------
    1      C      -0.3569480000    -0.9285480000     0.9778650000
    2      S      -0.0470480000    -0.0785480000     2.4853650000
    3      C       0.4900520000     1.3994520000     1.6967650000
    4      C      -0.0469480000    -0.0789480000    -0.0900350000
    5      C       0.4263520000     1.2281520000     0.2914650000
    6      S      -0.1275480000    -0.3087480000    -1.8276350000
    7      C       0.4663520000     1.3391520000    -2.0766350000
    8      C       0.7063520000     2.0055520000    -0.8847350000
    9      F       1.1589520000     3.2632520000    -0.8412350000
   10      C       0.6213520000     1.7595520000    -3.4782350000
   11      O       0.3655520000     1.0333520000    -4.4286350000
   12      O       1.0762520000     3.0311520000    -3.5913350000
   13      C       1.2505520000     3.4945520000    -4.9383350000
   14      H       1.6205520000     4.5316520000    -4.8552350000
   15      H       0.2904520000     3.4680520000    -5.4923350000
   16      H       1.9825520000     2.8632520000    -5.4814350000
   17      C      -0.3569480000    -2.3637480000     0.9778650000
   18      H       0.3315520000    -2.3717480000     0.1457650000
   19      H       0.2872520000    -3.0416480000     1.5180650000
   20      H      -1.0815480000    -2.8948480000     0.3785650000
   21      H       0.8048520000     2.2684520000     2.2843650000
 ----------------------------------------------------------------

   11   -1389.2640924531      4.82e-07  Convergence criterion met
 Total energy in the final basis set =    -1389.2640924531
        RIMP2         total energy =     -1391.7717279665 a.u.

                    Orbital Energies (a.u.)
 --------------------------------------------------------------

 Alpha MOs
 -- Occupied --
-92.0052 -91.9942 -26.3411 -20.6137 -20.5597 -11.4078 -11.3795 -11.2974
-11.2958 -11.2946 -11.2883 -11.2860 -11.2791 -11.2263  -9.0041  -8.9943
 -6.6849  -6.6842  -6.6838  -6.6753  -6.6746  -6.6735  -1.6583  -1.4661
 -1.3687  -1.2136  -1.1365  -1.0680  -1.0187  -0.9944  -0.9583  -0.9127
 -0.8635  -0.8050  -0.7890  -0.7592  -0.7300  -0.7231  -0.6939  -0.6835
 -0.6729  -0.6607  -0.6089  -0.5992  -0.5911  -0.5867  -0.5646  -0.5589
 -0.5327  -0.5299  -0.5077  -0.4901  -0.4731  -0.4716  -0.4640  -0.4624
 -0.3860  -0.3439  -0.2884

          Ground-State Mulliken Net Atomic Charges

     Atom                 Charge (a.u.)
  ----------------------------------------
      1 C                     0.026971
      2 S                     0.079505
      3 C                    -0.212879
      4 C                    -0.020215
      5 C                    -0.089090
      6 S                    -0.004994
      7 C                    -0.156516
      8 C                     0.387565
      9 F                    -0.207729
     10 C                     0.446711
     11 O                    -0.462626
     12 O                    -0.300962
     13 C                    -0.058423
     14 H                     0.121093
     15 H                     0.094813
     16 H                     0.094677
     17 C                    -0.384227
     18 H                     0.127158
     19 H                     0.164726
     20 H                     0.142456
     21 H                     0.211986
  ----------------------------------------
  Sum of atomic charges =     0.000000

                    Cartesian Multipole Moments
 -----------------------------------------------------------------
    Charge (ESU x 10^10)
                -0.0000
    Dipole Moment (Debye)
         X       1.1566      Y       0.3829      Z       2.7101
       Tot       2.9714
    Quadrupole Moments (Debye-Ang)
        XX     -95.6652     XY       2.4966     YY     -82.5662
        XZ      -1.9506     YZ      -8.5769     ZZ     -97.4399

 Total job time:  57.24s(wall), 1960.06s(cpu)
        *  Thank you very much for using Q-Chem.  Have a nice day.  *
