 Q-Chem 5.4, Q-Chem, Inc., Pleasanton, CA (2021)
 Q-Chem 5.4.0 for Intel X86 EM64T Linux

User input:
--------------------------------------------------------------
$molecule
0 1
C	-0.797253	-0.619704	0.973565
S	-0.103853	-0.038504	2.481065
C	1.100247	0.972896	1.692465
C	-0.103953	-0.038904	-0.094335
C	0.959547	0.856396	0.287165
S	-0.288653	-0.197704	-1.831935
C	1.049647	0.932496	-2.080935
C	1.590647	1.389696	-0.889035
F	2.611447	2.252596	-0.845535
C	1.394047	1.219096	-3.482535
O	0.809447	0.718096	-4.432935
O	2.423847	2.092896	-3.595635
C	2.806447	2.407096	-4.942635
H	3.645347	3.120196	-4.859535
H	1.961747	2.864196	-5.496635
H	3.124747	1.494396	-5.485735
C	-0.797253	-2.054904	0.973565
H	-0.789853	-2.062904	2.053465
H	-1.637953	-2.732804	0.973865
H	0.143147	-2.586004	0.966865
H	1.807447	1.568096	2.280065
$end

$rem
JOBTYPE		SP
EXCHANGE	HF
CORRELATION	pRIMP2
BASIS		cc-pvtz
METHOD		rimp2
AUX_BASIS	rimp2-cc-pvtz
SOLVENT_METHOD	PCM
PURECART	11111
SYMMETRY	false
MEM_TOTAL	110000
SCF_CONVERGENCE = 6
THRESH=10
GUI = 2
$end

$solvent
dielectric 4.90
$end
--------------------------------------------------------------

             Standard Nuclear Orientation (Angstroms)
    I     Atom           X                Y                Z
 ----------------------------------------------------------------
    1      C      -0.7972530000    -0.6197040000     0.9735650000
    2      S      -0.1038530000    -0.0385040000     2.4810650000
    3      C       1.1002470000     0.9728960000     1.6924650000
    4      C      -0.1039530000    -0.0389040000    -0.0943350000
    5      C       0.9595470000     0.8563960000     0.2871650000
    6      S      -0.2886530000    -0.1977040000    -1.8319350000
    7      C       1.0496470000     0.9324960000    -2.0809350000
    8      C       1.5906470000     1.3896960000    -0.8890350000
    9      F       2.6114470000     2.2525960000    -0.8455350000
   10      C       1.3940470000     1.2190960000    -3.4825350000
   11      O       0.8094470000     0.7180960000    -4.4329350000
   12      O       2.4238470000     2.0928960000    -3.5956350000
   13      C       2.8064470000     2.4070960000    -4.9426350000
   14      H       3.6453470000     3.1201960000    -4.8595350000
   15      H       1.9617470000     2.8641960000    -5.4966350000
   16      H       3.1247470000     1.4943960000    -5.4857350000
   17      C      -0.7972530000    -2.0549040000     0.9735650000
   18      H      -0.7898530000    -2.0629040000     2.0534650000
   19      H      -1.6379530000    -2.7328040000     0.9738650000
   20      H       0.1431470000    -2.5860040000     0.9668650000
   21      H       1.8074470000     1.5680960000     2.2800650000
 ----------------------------------------------------------------

   11   -1389.2193955125      5.18e-07  Convergence criterion met
 Total energy in the final basis set =    -1389.2193955125
        RIMP2         total energy =     -1391.7330648728 a.u.

                    Orbital Energies (a.u.)
 --------------------------------------------------------------

 Alpha MOs
 -- Occupied --
-92.0045 -91.9995 -26.3427 -20.6137 -20.5595 -11.4078 -11.3819 -11.3186
-11.3000 -11.2938 -11.2884 -11.2798 -11.2670 -11.2168  -9.0043  -8.9994
 -6.6850  -6.6841  -6.6838  -6.6803  -6.6796  -6.6786  -1.6599  -1.4661
 -1.3687  -1.2192  -1.1425  -1.0670  -1.0229  -0.9911  -0.9607  -0.9065
 -0.8664  -0.8110  -0.7904  -0.7591  -0.7333  -0.7246  -0.6942  -0.6835
 -0.6730  -0.6614  -0.6073  -0.6060  -0.5924  -0.5755  -0.5649  -0.5605
 -0.5302  -0.5245  -0.5103  -0.4793  -0.4767  -0.4720  -0.4698  -0.4440
 -0.3889  -0.3414  -0.2981

          Ground-State Mulliken Net Atomic Charges

     Atom                 Charge (a.u.)
  ----------------------------------------
      1 C                    -0.085165
      2 S                     0.088149
      3 C                    -0.163556
      4 C                     0.039003
      5 C                    -0.096444
      6 S                     0.026037
      7 C                    -0.157725
      8 C                     0.391178
      9 F                    -0.206980
     10 C                     0.447311
     11 O                    -0.464085
     12 O                    -0.301569
     13 C                    -0.058396
     14 H                     0.120992
     15 H                     0.094853
     16 H                     0.094711
     17 C                    -0.355097
     18 H                     0.108361
     19 H                     0.133933
     20 H                     0.128203
     21 H                     0.216286
  ----------------------------------------
  Sum of atomic charges =     0.000000

                    Cartesian Multipole Moments
 -----------------------------------------------------------------
    Charge (ESU x 10^10)
                -0.0000
    Dipole Moment (Debye)
         X       2.5641      Y       0.7834      Z       3.5386
       Tot       4.4396
    Quadrupole Moments (Debye-Ang)
        XX     -90.9125     XY       5.6632     YY     -89.4926
        XZ      -5.4772     YZ      -6.9456     ZZ     -94.8017

 Total job time:  59.05s(wall), 2053.07s(cpu)
        *  Thank you very much for using Q-Chem.  Have a nice day.  *
