 Q-Chem 5.4, Q-Chem, Inc., Pleasanton, CA (2021)
 Q-Chem 5.4.0 for Intel X86 EM64T Linux

User input:
--------------------------------------------------------------
$molecule
0 1
C	-0.798936	-0.619704	0.977293
S	-0.105536	-0.038504	2.484793
C	1.098564	0.972896	1.696193
C	-0.105636	-0.038904	-0.090607
C	0.957864	0.856396	0.290893
S	-0.290336	-0.197704	-1.828207
C	1.047964	0.932496	-2.077207
C	1.588964	1.389696	-0.885307
F	2.609764	2.252596	-0.841807
C	1.392364	1.219096	-3.478807
O	0.807764	0.718096	-4.429207
O	2.422164	2.092896	-3.591907
C	2.804764	2.407096	-4.938907
H	3.643664	3.120196	-4.855807
H	1.960064	2.864196	-5.492907
H	3.123064	1.494396	-5.482007
C	-0.798936	-2.054904	0.977293
H	0.132564	-2.062904	0.430893
H	-0.378336	-2.732804	1.705193
H	-1.274836	-2.586004	0.166293
H	1.805764	1.568096	2.283793
$end

$rem
JOBTYPE		SP
EXCHANGE	HF
CORRELATION	pRIMP2
BASIS		cc-pvtz
METHOD		rimp2
AUX_BASIS	rimp2-cc-pvtz
SOLVENT_METHOD	PCM
PURECART	11111
SYMMETRY	false
MEM_TOTAL	110000
SCF_CONVERGENCE = 6
THRESH=10
GUI = 2
$end

$solvent
dielectric 4.90
$end
--------------------------------------------------------------

             Standard Nuclear Orientation (Angstroms)
    I     Atom           X                Y                Z
 ----------------------------------------------------------------
    1      C      -0.7989360000    -0.6197040000     0.9772930000
    2      S      -0.1055360000    -0.0385040000     2.4847930000
    3      C       1.0985640000     0.9728960000     1.6961930000
    4      C      -0.1056360000    -0.0389040000    -0.0906070000
    5      C       0.9578640000     0.8563960000     0.2908930000
    6      S      -0.2903360000    -0.1977040000    -1.8282070000
    7      C       1.0479640000     0.9324960000    -2.0772070000
    8      C       1.5889640000     1.3896960000    -0.8853070000
    9      F       2.6097640000     2.2525960000    -0.8418070000
   10      C       1.3923640000     1.2190960000    -3.4788070000
   11      O       0.8077640000     0.7180960000    -4.4292070000
   12      O       2.4221640000     2.0928960000    -3.5919070000
   13      C       2.8047640000     2.4070960000    -4.9389070000
   14      H       3.6436640000     3.1201960000    -4.8558070000
   15      H       1.9600640000     2.8641960000    -5.4929070000
   16      H       3.1230640000     1.4943960000    -5.4820070000
   17      C      -0.7989360000    -2.0549040000     0.9772930000
   18      H       0.1325640000    -2.0629040000     0.4308930000
   19      H      -0.3783360000    -2.7328040000     1.7051930000
   20      H      -1.2748360000    -2.5860040000     0.1662930000
   21      H       1.8057640000     1.5680960000     2.2837930000
 ----------------------------------------------------------------

   11   -1389.2170104729      5.14e-07  Convergence criterion met
 Total energy in the final basis set =    -1389.2170104729
        RIMP2         total energy =     -1391.7345064937 a.u.

                    Orbital Energies (a.u.)
 --------------------------------------------------------------

 Alpha MOs
 -- Occupied --
-92.0066 -92.0002 -26.3426 -20.6142 -20.5602 -11.4085 -11.3816 -11.3100
-11.2951 -11.2933 -11.2886 -11.2814 -11.2787 -11.2203  -9.0057  -9.0000
 -6.6864  -6.6856  -6.6854  -6.6809  -6.6802  -6.6792  -1.6598  -1.4666
 -1.3692  -1.2201  -1.1422  -1.0703  -1.0210  -0.9915  -0.9598  -0.9069
 -0.8655  -0.8077  -0.7907  -0.7603  -0.7318  -0.7246  -0.6964  -0.6840
 -0.6734  -0.6614  -0.6112  -0.5985  -0.5955  -0.5793  -0.5649  -0.5622
 -0.5309  -0.5205  -0.5096  -0.4949  -0.4739  -0.4724  -0.4708  -0.4567
 -0.3803  -0.3418  -0.2870

          Ground-State Mulliken Net Atomic Charges

     Atom                 Charge (a.u.)
  ----------------------------------------
      1 C                    -0.076652
      2 S                     0.100551
      3 C                    -0.187660
      4 C                     0.037021
      5 C                    -0.104892
      6 S                     0.024061
      7 C                    -0.153555
      8 C                     0.389446
      9 F                    -0.207052
     10 C                     0.448910
     11 O                    -0.463295
     12 O                    -0.301222
     13 C                    -0.058340
     14 H                     0.121187
     15 H                     0.094970
     16 H                     0.094750
     17 C                    -0.380593
     18 H                     0.123100
     19 H                     0.157511
     20 H                     0.128023
     21 H                     0.213731
  ----------------------------------------
  Sum of atomic charges =     0.000000

                    Cartesian Multipole Moments
 -----------------------------------------------------------------
    Charge (ESU x 10^10)
                -0.0000
    Dipole Moment (Debye)
         X       2.7193      Y       0.3942      Z       2.7046
       Tot       3.8555
    Quadrupole Moments (Debye-Ang)
        XX     -92.1267     XY       4.6355     YY     -89.1666
        XZ      -4.6698     YZ      -5.8029     ZZ     -95.9287

 Total job time:  62.94s(wall), 2266.43s(cpu)
        *  Thank you very much for using Q-Chem.  Have a nice day.  *
