 Q-Chem 5.4, Q-Chem, Inc., Pleasanton, CA (2021)
 Q-Chem 5.4.0 for Intel X86 EM64T Linux

User input:
--------------------------------------------------------------
$molecule
0 1
C	0.002617	-0.991205	0.975276
S	0.003117	-0.086405	2.482776
C	0.002317	1.486095	1.694176
C	0.003417	-0.086805	-0.092624
C	0.001017	1.303395	0.288876
S	0.006217	-0.330305	-1.830224
C	0.000717	1.421295	-2.079224
C	-0.001783	2.129695	-0.887324
F	-0.006583	3.466295	-0.843824
C	0.002617	1.869395	-3.480824
O	0.010517	1.099495	-4.431224
O	-0.004883	3.219895	-3.593924
C	0.000317	3.714995	-4.940924
H	-0.006683	4.815995	-4.857824
H	-0.892783	3.361695	-5.494924
H	0.904117	3.372095	-5.484024
C	0.002617	-2.426405	0.975276
H	-1.059583	-2.434405	1.170176
H	-0.143683	-3.104305	0.147376
H	0.172417	-2.957505	1.900176
H	0.000917	2.410395	2.281776
$end

$rem
JOBTYPE		SP
EXCHANGE	HF
CORRELATION	pRIMP2
BASIS		cc-pvtz
METHOD		rimp2
AUX_BASIS	rimp2-cc-pvtz
SOLVENT_METHOD	PCM
PURECART	11111
SYMMETRY	false
MEM_TOTAL	110000
SCF_CONVERGENCE = 6
THRESH=10
GUI = 2
$end

$solvent
dielectric 4.90
$end
--------------------------------------------------------------

             Standard Nuclear Orientation (Angstroms)
    I     Atom           X                Y                Z
 ----------------------------------------------------------------
    1      C       0.0026170000    -0.9912050000     0.9752760000
    2      S       0.0031170000    -0.0864050000     2.4827760000
    3      C       0.0023170000     1.4860950000     1.6941760000
    4      C       0.0034170000    -0.0868050000    -0.0926240000
    5      C       0.0010170000     1.3033950000     0.2888760000
    6      S       0.0062170000    -0.3303050000    -1.8302240000
    7      C       0.0007170000     1.4212950000    -2.0792240000
    8      C      -0.0017830000     2.1296950000    -0.8873240000
    9      F      -0.0065830000     3.4662950000    -0.8438240000
   10      C       0.0026170000     1.8693950000    -3.4808240000
   11      O       0.0105170000     1.0994950000    -4.4312240000
   12      O      -0.0048830000     3.2198950000    -3.5939240000
   13      C       0.0003170000     3.7149950000    -4.9409240000
   14      H      -0.0066830000     4.8159950000    -4.8578240000
   15      H      -0.8927830000     3.3616950000    -5.4949240000
   16      H       0.9041170000     3.3720950000    -5.4840240000
   17      C       0.0026170000    -2.4264050000     0.9752760000
   18      H      -1.0595830000    -2.4344050000     1.1701760000
   19      H      -0.1436830000    -3.1043050000     0.1473760000
   20      H       0.1724170000    -2.9575050000     1.9001760000
   21      H       0.0009170000     2.4103950000     2.2817760000
 ----------------------------------------------------------------

   11   -1389.2729960961      5.34e-07  Convergence criterion met
 Total energy in the final basis set =    -1389.2729960961
        RIMP2         total energy =     -1391.7761669761 a.u.

                    Orbital Energies (a.u.)
 --------------------------------------------------------------

 Alpha MOs
 -- Occupied --
-92.0064 -91.9893 -26.3394 -20.6133 -20.5594 -11.4071 -11.3770 -11.3037
-11.2942 -11.2911 -11.2879 -11.2787 -11.2777 -11.2318  -9.0053  -8.9895
 -6.6861  -6.6856  -6.6850  -6.6706  -6.6699  -6.6687  -1.6567  -1.4656
 -1.3682  -1.2107  -1.1364  -1.0665  -1.0179  -0.9958  -0.9576  -0.9131
 -0.8626  -0.8041  -0.7876  -0.7580  -0.7305  -0.7217  -0.6920  -0.6830
 -0.6724  -0.6598  -0.6130  -0.5944  -0.5899  -0.5806  -0.5619  -0.5577
 -0.5324  -0.5269  -0.5183  -0.4991  -0.4720  -0.4717  -0.4702  -0.4600
 -0.3840  -0.3453  -0.2798

          Ground-State Mulliken Net Atomic Charges

     Atom                 Charge (a.u.)
  ----------------------------------------
      1 C                     0.048530
      2 S                     0.076855
      3 C                    -0.230677
      4 C                    -0.027457
      5 C                    -0.094111
      6 S                    -0.017711
      7 C                    -0.157326
      8 C                     0.390988
      9 F                    -0.209459
     10 C                     0.445287
     11 O                    -0.461996
     12 O                    -0.300583
     13 C                    -0.058726
     14 H                     0.121099
     15 H                     0.094669
     16 H                     0.094713
     17 C                    -0.391200
     18 H                     0.147575
     19 H                     0.170743
     20 H                     0.145670
     21 H                     0.213116
  ----------------------------------------
  Sum of atomic charges =     0.000000

                    Cartesian Multipole Moments
 -----------------------------------------------------------------
    Charge (ESU x 10^10)
                -0.0000
    Dipole Moment (Debye)
         X      -0.7411      Y      -0.0948      Z       3.4629
       Tot       3.5426
    Quadrupole Moments (Debye-Ang)
        XX     -97.0091     XY       1.9221     YY     -80.2338
        XZ      -0.5319     YZ     -11.1282     ZZ     -96.2265

 Total job time:  55.11s(wall), 1954.98s(cpu)
        *  Thank you very much for using Q-Chem.  Have a nice day.  *
