 Q-Chem 5.4, Q-Chem, Inc., Pleasanton, CA (2021)
 Q-Chem 5.4.0 for Intel X86 EM64T Linux

User input:
--------------------------------------------------------------
$molecule
0 1
C	-0.353465	-0.928548	0.976887
S	-0.043565	-0.078548	2.484387
C	0.493535	1.399452	1.695787
C	-0.043465	-0.078948	-0.091013
C	0.429835	1.228152	0.290487
S	-0.124065	-0.308748	-1.828613
C	0.469835	1.339152	-2.077613
C	0.709835	2.005552	-0.885713
F	1.162435	3.263252	-0.842213
C	0.624835	1.759552	-3.479213
O	0.369035	1.033352	-4.429613
O	1.079735	3.031152	-3.592313
C	1.254035	3.494552	-4.939313
H	1.624035	4.531652	-4.856213
H	0.293935	3.468052	-5.493313
H	1.986035	2.863252	-5.482413
C	-0.353465	-2.363748	0.976887
H	-1.292465	-2.371748	0.443387
H	0.066635	-3.041648	0.248687
H	-0.817865	-2.894848	1.794587
H	0.808335	2.268452	2.283387
$end

$rem
JOBTYPE		SP
EXCHANGE	HF
CORRELATION	pRIMP2
BASIS		cc-pvtz
METHOD		rimp2
AUX_BASIS	rimp2-cc-pvtz
SOLVENT_METHOD	PCM
PURECART	11111
SYMMETRY	false
MEM_TOTAL	110000
SCF_CONVERGENCE = 6
THRESH=10
GUI = 2
$end

$solvent
dielectric 4.90
$end
--------------------------------------------------------------

             Standard Nuclear Orientation (Angstroms)
    I     Atom           X                Y                Z
 ----------------------------------------------------------------
    1      C      -0.3534650000    -0.9285480000     0.9768870000
    2      S      -0.0435650000    -0.0785480000     2.4843870000
    3      C       0.4935350000     1.3994520000     1.6957870000
    4      C      -0.0434650000    -0.0789480000    -0.0910130000
    5      C       0.4298350000     1.2281520000     0.2904870000
    6      S      -0.1240650000    -0.3087480000    -1.8286130000
    7      C       0.4698350000     1.3391520000    -2.0776130000
    8      C       0.7098350000     2.0055520000    -0.8857130000
    9      F       1.1624350000     3.2632520000    -0.8422130000
   10      C       0.6248350000     1.7595520000    -3.4792130000
   11      O       0.3690350000     1.0333520000    -4.4296130000
   12      O       1.0797350000     3.0311520000    -3.5923130000
   13      C       1.2540350000     3.4945520000    -4.9393130000
   14      H       1.6240350000     4.5316520000    -4.8562130000
   15      H       0.2939350000     3.4680520000    -5.4933130000
   16      H       1.9860350000     2.8632520000    -5.4824130000
   17      C      -0.3534650000    -2.3637480000     0.9768870000
   18      H      -1.2924650000    -2.3717480000     0.4433870000
   19      H       0.0666350000    -3.0416480000     0.2486870000
   20      H      -0.8178650000    -2.8948480000     1.7945870000
   21      H       0.8083350000     2.2684520000     2.2833870000
 ----------------------------------------------------------------

   11   -1389.2635516528      4.86e-07  Convergence criterion met
 Total energy in the final basis set =    -1389.2635516528
        RIMP2         total energy =     -1391.7706720087 a.u.

                    Orbital Energies (a.u.)
 --------------------------------------------------------------

 Alpha MOs
 -- Occupied --
-92.0044 -91.9929 -26.3406 -20.6135 -20.5596 -11.4075 -11.3787 -11.2963
-11.2956 -11.2944 -11.2881 -11.2851 -11.2788 -11.2268  -9.0033  -8.9930
 -6.6841  -6.6835  -6.6830  -6.6740  -6.6733  -6.6722  -1.6578  -1.4659
 -1.3685  -1.2124  -1.1358  -1.0666  -1.0184  -0.9952  -0.9580  -0.9134
 -0.8631  -0.8048  -0.7885  -0.7587  -0.7298  -0.7226  -0.6933  -0.6833
 -0.6727  -0.6603  -0.6121  -0.5953  -0.5897  -0.5803  -0.5628  -0.5581
 -0.5363  -0.5292  -0.5078  -0.4966  -0.4736  -0.4713  -0.4700  -0.4564
 -0.3838  -0.3446  -0.2841

          Ground-State Mulliken Net Atomic Charges

     Atom                 Charge (a.u.)
  ----------------------------------------
      1 C                     0.031673
      2 S                     0.082534
      3 C                    -0.215321
      4 C                    -0.041695
      5 C                    -0.083589
      6 S                    -0.006901
      7 C                    -0.155270
      8 C                     0.386806
      9 F                    -0.208249
     10 C                     0.445726
     11 O                    -0.462476
     12 O                    -0.300865
     13 C                    -0.058434
     14 H                     0.121061
     15 H                     0.094723
     16 H                     0.094712
     17 C                    -0.381874
     18 H                     0.136969
     19 H                     0.163994
     20 H                     0.144968
     21 H                     0.211511
  ----------------------------------------
  Sum of atomic charges =     0.000000

                    Cartesian Multipole Moments
 -----------------------------------------------------------------
    Charge (ESU x 10^10)
                -0.0000
    Dipole Moment (Debye)
         X       0.0907      Y       0.2546      Z       2.8872
       Tot       2.8998
    Quadrupole Moments (Debye-Ang)
        XX     -95.1822     XY       5.3164     YY     -82.3386
        XZ      -3.7269     YZ      -8.9502     ZZ     -97.0735

 Total job time:  56.20s(wall), 1933.97s(cpu)
        *  Thank you very much for using Q-Chem.  Have a nice day.  *
