 Q-Chem 5.4, Q-Chem, Inc., Pleasanton, CA (2021)
 Q-Chem 5.4.0 for Intel X86 EM64T Linux

User input:
--------------------------------------------------------------
$molecule
0 1
C	-0.669337	-0.747937	0.973641
S	-0.087437	-0.055137	2.481141
C	0.922863	1.149963	1.692541
C	-0.087437	-0.055537	-0.094259
C	0.804363	1.010863	0.287241
S	-0.241737	-0.244037	-1.831859
C	0.879963	1.101463	-2.080859
C	1.333363	1.645563	-0.888959
F	2.188863	2.672563	-0.845459
C	1.169363	1.443363	-3.482459
O	0.680663	0.848563	-4.432859
O	2.031763	2.482763	-3.595559
C	2.353963	2.858663	-4.942559
H	3.056363	3.706563	-4.859459
H	1.442763	3.162063	-5.496559
H	2.825963	2.015063	-5.485659
C	-0.669337	-2.183137	0.973641
H	-0.474437	-2.191137	2.035841
H	-1.497237	-2.861037	1.119941
H	0.255563	-2.714237	0.803841
H	1.515863	1.858863	2.280141
$end

$rem
JOBTYPE		SP
EXCHANGE	HF
CORRELATION	pRIMP2
BASIS		cc-pvtz
METHOD		rimp2
AUX_BASIS	rimp2-cc-pvtz
SOLVENT_METHOD	PCM
PURECART	11111
SYMMETRY	false
MEM_TOTAL	110000
SCF_CONVERGENCE = 6
THRESH=10
GUI = 2
$end

$solvent
dielectric 4.90
$end
--------------------------------------------------------------

             Standard Nuclear Orientation (Angstroms)
    I     Atom           X                Y                Z
 ----------------------------------------------------------------
    1      C      -0.6693370000    -0.7479370000     0.9736410000
    2      S      -0.0874370000    -0.0551370000     2.4811410000
    3      C       0.9228630000     1.1499630000     1.6925410000
    4      C      -0.0874370000    -0.0555370000    -0.0942590000
    5      C       0.8043630000     1.0108630000     0.2872410000
    6      S      -0.2417370000    -0.2440370000    -1.8318590000
    7      C       0.8799630000     1.1014630000    -2.0808590000
    8      C       1.3333630000     1.6455630000    -0.8889590000
    9      F       2.1888630000     2.6725630000    -0.8454590000
   10      C       1.1693630000     1.4433630000    -3.4824590000
   11      O       0.6806630000     0.8485630000    -4.4328590000
   12      O       2.0317630000     2.4827630000    -3.5955590000
   13      C       2.3539630000     2.8586630000    -4.9425590000
   14      H       3.0563630000     3.7065630000    -4.8594590000
   15      H       1.4427630000     3.1620630000    -5.4965590000
   16      H       2.8259630000     2.0150630000    -5.4856590000
   17      C      -0.6693370000    -2.1831370000     0.9736410000
   18      H      -0.4744370000    -2.1911370000     2.0358410000
   19      H      -1.4972370000    -2.8610370000     1.1199410000
   20      H       0.2555630000    -2.7142370000     0.8038410000
   21      H       1.5158630000     1.8588630000     2.2801410000
 ----------------------------------------------------------------

   11   -1389.2370569551      4.84e-07  Convergence criterion met
 Total energy in the final basis set =    -1389.2370569551
        RIMP2         total energy =     -1391.7482128685 a.u.

                    Orbital Energies (a.u.)
 --------------------------------------------------------------

 Alpha MOs
 -- Occupied --
-92.0049 -91.9964 -26.3418 -20.6135 -20.5595 -11.4076 -11.3806 -11.3114
-11.2944 -11.2938 -11.2882 -11.2793 -11.2773 -11.2192  -9.0045  -8.9964
 -6.6852  -6.6844  -6.6840  -6.6774  -6.6767  -6.6756  -1.6591  -1.4659
 -1.3686  -1.2165  -1.1404  -1.0659  -1.0217  -0.9921  -0.9599  -0.9084
 -0.8654  -0.8093  -0.7896  -0.7586  -0.7324  -0.7238  -0.6930  -0.6833
 -0.6728  -0.6609  -0.6066  -0.6051  -0.5924  -0.5750  -0.5645  -0.5593
 -0.5310  -0.5300  -0.5092  -0.4811  -0.4765  -0.4718  -0.4700  -0.4463
 -0.3899  -0.3433  -0.2945

          Ground-State Mulliken Net Atomic Charges

     Atom                 Charge (a.u.)
  ----------------------------------------
      1 C                    -0.032857
      2 S                     0.081395
      3 C                    -0.182998
      4 C                    -0.001097
      5 C                    -0.083580
      6 S                     0.014536
      7 C                    -0.156314
      8 C                     0.389083
      9 F                    -0.207503
     10 C                     0.446762
     11 O                    -0.463281
     12 O                    -0.301422
     13 C                    -0.058462
     14 H                     0.120977
     15 H                     0.094879
     16 H                     0.094631
     17 C                    -0.361599
     18 H                     0.114566
     19 H                     0.137748
     20 H                     0.139276
     21 H                     0.215259
  ----------------------------------------
  Sum of atomic charges =     0.000000

                    Cartesian Multipole Moments
 -----------------------------------------------------------------
    Charge (ESU x 10^10)
                -0.0000
    Dipole Moment (Debye)
         X       2.0131      Y       0.7854      Z       3.6591
       Tot       4.2495
    Quadrupole Moments (Debye-Ang)
        XX     -92.5221     XY       5.3039     YY     -87.1255
        XZ      -4.9997     YZ      -8.4726     ZZ     -95.0673

 Total job time:  56.69s(wall), 1960.69s(cpu)
        *  Thank you very much for using Q-Chem.  Have a nice day.  *
