 Q-Chem 5.4, Q-Chem, Inc., Pleasanton, CA (2021)
 Q-Chem 5.4.0 for Intel X86 EM64T Linux

User input:
--------------------------------------------------------------
$molecule
0 1
C	-0.092627	-0.987267	0.976554
S	-0.013327	-0.085967	2.484054
C	0.122973	1.480633	1.695454
C	-0.013027	-0.086367	-0.091346
C	0.105773	1.298733	0.290154
S	-0.031427	-0.329267	-1.828946
C	0.115673	1.416233	-2.077946
C	0.174973	2.122133	-0.886046
F	0.286673	3.454033	-0.842546
C	0.156673	1.862433	-3.479546
O	0.097473	1.094833	-4.429946
O	0.266873	3.208433	-3.592646
C	0.315273	3.701233	-4.939646
H	0.404273	4.798633	-4.856546
H	-0.605227	3.427033	-5.493646
H	1.185773	3.280833	-5.482746
C	-0.092627	-2.422467	0.976554
H	0.969573	-2.430467	0.781654
H	0.053673	-3.100367	1.804454
H	-0.262427	-2.953567	0.051654
H	0.202173	2.401533	2.283054
$end

$rem
JOBTYPE		SP
EXCHANGE	HF
CORRELATION	pRIMP2
BASIS		cc-pvtz
METHOD		rimp2
AUX_BASIS	rimp2-cc-pvtz
SOLVENT_METHOD	PCM
PURECART	11111
SYMMETRY	false
MEM_TOTAL	110000
SCF_CONVERGENCE = 6
THRESH=10
GUI = 2
$end

$solvent
dielectric 4.90
$end
--------------------------------------------------------------

             Standard Nuclear Orientation (Angstroms)
    I     Atom           X                Y                Z
 ----------------------------------------------------------------
    1      C      -0.0926270000    -0.9872670000     0.9765540000
    2      S      -0.0133270000    -0.0859670000     2.4840540000
    3      C       0.1229730000     1.4806330000     1.6954540000
    4      C      -0.0130270000    -0.0863670000    -0.0913460000
    5      C       0.1057730000     1.2987330000     0.2901540000
    6      S      -0.0314270000    -0.3292670000    -1.8289460000
    7      C       0.1156730000     1.4162330000    -2.0779460000
    8      C       0.1749730000     2.1221330000    -0.8860460000
    9      F       0.2866730000     3.4540330000    -0.8425460000
   10      C       0.1566730000     1.8624330000    -3.4795460000
   11      O       0.0974730000     1.0948330000    -4.4299460000
   12      O       0.2668730000     3.2084330000    -3.5926460000
   13      C       0.3152730000     3.7012330000    -4.9396460000
   14      H       0.4042730000     4.7986330000    -4.8565460000
   15      H      -0.6052270000     3.4270330000    -5.4936460000
   16      H       1.1857730000     3.2808330000    -5.4827460000
   17      C      -0.0926270000    -2.4224670000     0.9765540000
   18      H       0.9695730000    -2.4304670000     0.7816540000
   19      H       0.0536730000    -3.1003670000     1.8044540000
   20      H      -0.2624270000    -2.9535670000     0.0516540000
   21      H       0.2021730000     2.4015330000     2.2830540000
 ----------------------------------------------------------------

   11   -1389.2734827068      5.23e-07  Convergence criterion met
 Total energy in the final basis set =    -1389.2734827068
        RIMP2         total energy =     -1391.7773568021 a.u.

                    Orbital Energies (a.u.)
 --------------------------------------------------------------

 Alpha MOs
 -- Occupied --
-92.0057 -91.9902 -26.3397 -20.6134 -20.5595 -11.4073 -11.3774 -11.3048
-11.2944 -11.2900 -11.2880 -11.2795 -11.2783 -11.2324  -9.0045  -8.9904
 -6.6854  -6.6848  -6.6843  -6.6715  -6.6708  -6.6696  -1.6570  -1.4657
 -1.3683  -1.2112  -1.1362  -1.0674  -1.0177  -0.9958  -0.9576  -0.9132
 -0.8626  -0.8039  -0.7878  -0.7584  -0.7304  -0.7219  -0.6920  -0.6831
 -0.6725  -0.6598  -0.6120  -0.5950  -0.5902  -0.5855  -0.5607  -0.5603
 -0.5318  -0.5274  -0.5141  -0.5003  -0.4722  -0.4713  -0.4696  -0.4608
 -0.3838  -0.3449  -0.2804

          Ground-State Mulliken Net Atomic Charges

     Atom                 Charge (a.u.)
  ----------------------------------------
      1 C                     0.055421
      2 S                     0.077398
      3 C                    -0.232493
      4 C                    -0.032318
      5 C                    -0.090849
      6 S                    -0.018808
      7 C                    -0.156083
      8 C                     0.387273
      9 F                    -0.209052
     10 C                     0.445840
     11 O                    -0.462017
     12 O                    -0.300641
     13 C                    -0.058707
     14 H                     0.121152
     15 H                     0.094816
     16 H                     0.094600
     17 C                    -0.393189
     18 H                     0.148886
     19 H                     0.167643
     20 H                     0.149193
     21 H                     0.211936
  ----------------------------------------
  Sum of atomic charges =     0.000000

                    Cartesian Multipole Moments
 -----------------------------------------------------------------
    Charge (ESU x 10^10)
                -0.0000
    Dipole Moment (Debye)
         X       0.8684      Y      -0.1411      Z       3.1845
       Tot       3.3038
    Quadrupole Moments (Debye-Ang)
        XX     -97.0593     XY      -0.8336     YY     -80.3061
        XZ       0.0976     YZ     -10.7890     ZZ     -96.7404

 Total job time:  54.89s(wall), 1976.74s(cpu)
        *  Thank you very much for using Q-Chem.  Have a nice day.  *
