 Q-Chem 5.4, Q-Chem, Inc., Pleasanton, CA (2021)
 Q-Chem 5.4.0 for Intel X86 EM64T Linux

User input:
--------------------------------------------------------------
$molecule
0 1
C	-0.266667	-0.955820	0.976092
S	-0.032067	-0.082020	2.483592
C	0.374233	1.437180	1.694992
C	-0.031867	-0.082420	-0.091808
C	0.325733	1.260980	0.289692
S	-0.092167	-0.318420	-1.829408
C	0.355933	1.374980	-2.078408
C	0.536833	2.059780	-0.886508
F	0.878133	3.352180	-0.843008
C	0.473633	1.807280	-3.480008
O	0.282133	1.061580	-4.430408
O	0.816033	3.113680	-3.593108
C	0.949133	3.590580	-4.940108
H	1.227433	4.655880	-4.857008
H	-0.004967	3.480480	-5.494108
H	1.733433	3.025480	-5.483208
C	-0.266667	-2.391020	0.976092
H	-1.331467	-2.399020	0.795892
H	-0.120967	-3.068920	0.148092
H	-0.423367	-2.922120	1.903292
H	0.612033	2.330280	2.282592
$end

$rem
JOBTYPE		SP
EXCHANGE	HF
CORRELATION	pRIMP2
BASIS		cc-pvtz
METHOD		rimp2
AUX_BASIS	rimp2-cc-pvtz
SOLVENT_METHOD	PCM
PURECART	11111
SYMMETRY	false
MEM_TOTAL	110000
SCF_CONVERGENCE = 6
THRESH=10
GUI = 2
$end

$solvent
dielectric 4.90
$end
--------------------------------------------------------------

             Standard Nuclear Orientation (Angstroms)
    I     Atom           X                Y                Z
 ----------------------------------------------------------------
    1      C      -0.2666670000    -0.9558200000     0.9760920000
    2      S      -0.0320670000    -0.0820200000     2.4835920000
    3      C       0.3742330000     1.4371800000     1.6949920000
    4      C      -0.0318670000    -0.0824200000    -0.0918080000
    5      C       0.3257330000     1.2609800000     0.2896920000
    6      S      -0.0921670000    -0.3184200000    -1.8294080000
    7      C       0.3559330000     1.3749800000    -2.0784080000
    8      C       0.5368330000     2.0597800000    -0.8865080000
    9      F       0.8781330000     3.3521800000    -0.8430080000
   10      C       0.4736330000     1.8072800000    -3.4800080000
   11      O       0.2821330000     1.0615800000    -4.4304080000
   12      O       0.8160330000     3.1136800000    -3.5931080000
   13      C       0.9491330000     3.5905800000    -4.9401080000
   14      H       1.2274330000     4.6558800000    -4.8570080000
   15      H      -0.0049670000     3.4804800000    -5.4941080000
   16      H       1.7334330000     3.0254800000    -5.4832080000
   17      C      -0.2666670000    -2.3910200000     0.9760920000
   18      H      -1.3314670000    -2.3990200000     0.7958920000
   19      H      -0.1209670000    -3.0689200000     0.1480920000
   20      H      -0.4233670000    -2.9221200000     1.9032920000
   21      H       0.6120330000     2.3302800000     2.2825920000
 ----------------------------------------------------------------

   11   -1389.2664647754      5.10e-07  Convergence criterion met
 Total energy in the final basis set =    -1389.2664647754
        RIMP2         total energy =     -1391.7719720729 a.u.

                    Orbital Energies (a.u.)
 --------------------------------------------------------------

 Alpha MOs
 -- Occupied --
-92.0058 -91.9909 -26.3398 -20.6134 -20.5594 -11.4073 -11.3776 -11.3002
-11.2942 -11.2927 -11.2880 -11.2809 -11.2783 -11.2292  -9.0046  -8.9910
 -6.6855  -6.6849  -6.6843  -6.6721  -6.6714  -6.6703  -1.6571  -1.4657
 -1.3683  -1.2113  -1.1360  -1.0664  -1.0180  -0.9956  -0.9577  -0.9133
 -0.8627  -0.8043  -0.7879  -0.7583  -0.7300  -0.7220  -0.6925  -0.6831
 -0.6725  -0.6599  -0.6127  -0.5943  -0.5874  -0.5826  -0.5607  -0.5598
 -0.5336  -0.5279  -0.5120  -0.5000  -0.4728  -0.4713  -0.4704  -0.4587
 -0.3828  -0.3447  -0.2808

          Ground-State Mulliken Net Atomic Charges

     Atom                 Charge (a.u.)
  ----------------------------------------
      1 C                     0.039454
      2 S                     0.084422
      3 C                    -0.229154
      4 C                    -0.038018
      5 C                    -0.087328
      6 S                    -0.013227
      7 C                    -0.157022
      8 C                     0.391080
      9 F                    -0.209000
     10 C                     0.445708
     11 O                    -0.462176
     12 O                    -0.300714
     13 C                    -0.058512
     14 H                     0.121065
     15 H                     0.094675
     16 H                     0.094672
     17 C                    -0.385796
     18 H                     0.144650
     19 H                     0.167989
     20 H                     0.145223
     21 H                     0.212011
  ----------------------------------------
  Sum of atomic charges =     0.000000

                    Cartesian Multipole Moments
 -----------------------------------------------------------------
    Charge (ESU x 10^10)
                -0.0000
    Dipole Moment (Debye)
         X      -0.2426      Y       0.0179      Z       3.1774
       Tot       3.1867
    Quadrupole Moments (Debye-Ang)
        XX     -95.9284     XY       4.7936     YY     -81.3786
        XZ      -3.0676     YZ     -10.0338     ZZ     -96.5942

 Total job time:  57.16s(wall), 1944.58s(cpu)
        *  Thank you very much for using Q-Chem.  Have a nice day.  *
