 Q-Chem 5.4, Q-Chem, Inc., Pleasanton, CA (2021)
 Q-Chem 5.4.0 for Intel X86 EM64T Linux

User input:
--------------------------------------------------------------
$molecule
0 1
C	-0.900883	-0.471137	0.978264
S	-0.117083	-0.019137	2.485764
C	1.244417	0.767763	1.697164
C	-0.117183	-0.019537	-0.089636
C	1.085517	0.677463	0.291864
S	-0.326783	-0.143837	-1.827236
C	1.187517	0.736763	-2.076236
C	1.799617	1.093063	-0.884336
F	2.954817	1.765563	-0.840836
C	1.576417	0.959163	-3.477836
O	0.913717	0.567363	-4.428236
O	2.742317	1.640863	-3.590936
C	3.173617	1.883963	-4.937936
H	4.123717	2.440463	-4.854836
H	2.421117	2.480763	-5.491936
H	3.328617	0.929763	-5.481036
C	-0.900883	-1.906337	0.978264
H	-0.908283	-1.914337	-0.101636
H	-0.060183	-2.584237	0.977964
H	-1.841283	-2.437437	0.984964
H	2.044117	1.231163	2.284764
$end

$rem
JOBTYPE		SP
EXCHANGE	HF
CORRELATION	pRIMP2
BASIS		cc-pvtz
METHOD		rimp2
AUX_BASIS	rimp2-cc-pvtz
SOLVENT_METHOD	PCM
PURECART	11111
SYMMETRY	false
MEM_TOTAL	110000
SCF_CONVERGENCE = 6
THRESH=10
GUI = 2
$end

$solvent
dielectric 4.90
$end
--------------------------------------------------------------

             Standard Nuclear Orientation (Angstroms)
    I     Atom           X                Y                Z
 ----------------------------------------------------------------
    1      C      -0.9008830000    -0.4711370000     0.9782640000
    2      S      -0.1170830000    -0.0191370000     2.4857640000
    3      C       1.2444170000     0.7677630000     1.6971640000
    4      C      -0.1171830000    -0.0195370000    -0.0896360000
    5      C       1.0855170000     0.6774630000     0.2918640000
    6      S      -0.3267830000    -0.1438370000    -1.8272360000
    7      C       1.1875170000     0.7367630000    -2.0762360000
    8      C       1.7996170000     1.0930630000    -0.8843360000
    9      F       2.9548170000     1.7655630000    -0.8408360000
   10      C       1.5764170000     0.9591630000    -3.4778360000
   11      O       0.9137170000     0.5673630000    -4.4282360000
   12      O       2.7423170000     1.6408630000    -3.5909360000
   13      C       3.1736170000     1.8839630000    -4.9379360000
   14      H       4.1237170000     2.4404630000    -4.8548360000
   15      H       2.4211170000     2.4807630000    -5.4919360000
   16      H       3.3286170000     0.9297630000    -5.4810360000
   17      C      -0.9008830000    -1.9063370000     0.9782640000
   18      H      -0.9082830000    -1.9143370000    -0.1016360000
   19      H      -0.0601830000    -2.5842370000     0.9779640000
   20      H      -1.8412830000    -2.4374370000     0.9849640000
   21      H       2.0441170000     1.2311630000     2.2847640000
 ----------------------------------------------------------------

   11   -1389.1987524860      6.00e-07  Convergence criterion met
 Total energy in the final basis set =    -1389.1987524860
        RIMP2         total energy =     -1391.7160433618 a.u.

                    Orbital Energies (a.u.)
 --------------------------------------------------------------

 Alpha MOs
 -- Occupied --
-92.0055 -92.0005 -26.3447 -20.6146 -20.5606 -11.4092 -11.3850 -11.3264
-11.3098 -11.2954 -11.2890 -11.2819 -11.2558 -11.2135  -9.0054  -9.0005
 -6.6863  -6.6856  -6.6846  -6.6811  -6.6801  -6.6800  -1.6618  -1.4671
 -1.3698  -1.2247  -1.1430  -1.0737  -1.0225  -0.9907  -0.9607  -0.9069
 -0.8668  -0.8101  -0.7924  -0.7619  -0.7329  -0.7263  -0.6999  -0.6846
 -0.6740  -0.6628  -0.6112  -0.6042  -0.5930  -0.5822  -0.5638  -0.5616
 -0.5311  -0.5169  -0.5133  -0.4893  -0.4762  -0.4731  -0.4695  -0.4260
 -0.3867  -0.3413  -0.3043

          Ground-State Mulliken Net Atomic Charges

     Atom                 Charge (a.u.)
  ----------------------------------------
      1 C                    -0.148110
      2 S                     0.093887
      3 C                    -0.136463
      4 C                     0.088080
      5 C                    -0.119746
      6 S                     0.039655
      7 C                    -0.160455
      8 C                     0.396173
      9 F                    -0.205443
     10 C                     0.448826
     11 O                    -0.464352
     12 O                    -0.301638
     13 C                    -0.058205
     14 H                     0.121276
     15 H                     0.095069
     16 H                     0.094787
     17 C                    -0.347648
     18 H                     0.100108
     19 H                     0.134668
     20 H                     0.113698
     21 H                     0.215833
  ----------------------------------------
  Sum of atomic charges =     0.000000

                    Cartesian Multipole Moments
 -----------------------------------------------------------------
    Charge (ESU x 10^10)
                -0.0000
    Dipole Moment (Debye)
         X       3.3473      Y       0.6968      Z       2.1306
       Tot       4.0286
    Quadrupole Moments (Debye-Ang)
        XX     -89.5412     XY       4.8661     YY     -91.7322
        XZ      -4.6771     YZ      -3.2123     ZZ     -96.7642

 Total job time:  53.27s(wall), 1930.86s(cpu)
        *  Thank you very much for using Q-Chem.  Have a nice day.  *
