 Q-Chem 5.4, Q-Chem, Inc., Pleasanton, CA (2021)
 Q-Chem 5.4.0 for Intel X86 EM64T Linux

User input:
--------------------------------------------------------------
$molecule
0 1
C	-0.000628	-0.991205	0.978067
S	-0.000128	-0.086405	2.485567
C	-0.000928	1.486095	1.696967
C	0.000172	-0.086805	-0.089833
C	-0.002228	1.303395	0.291667
S	0.002972	-0.330305	-1.827433
C	-0.002528	1.421295	-2.076433
C	-0.005028	2.129695	-0.884533
F	-0.009828	3.466295	-0.841033
C	-0.000628	1.869395	-3.478033
O	0.007272	1.099495	-4.428433
O	-0.008128	3.219895	-3.591133
C	-0.002928	3.714995	-4.938133
H	-0.009928	4.815995	-4.855033
H	-0.896028	3.361695	-5.492133
H	0.900872	3.372095	-5.481233
C	-0.000628	-2.426405	0.978067
H	0.532872	-2.434405	0.039067
H	0.727572	-3.104305	1.398167
H	-0.818328	-2.957505	0.513667
H	-0.002328	2.410395	2.284567
$end

$rem
JOBTYPE		SP
EXCHANGE	HF
CORRELATION	pRIMP2
BASIS		cc-pvtz
METHOD		rimp2
AUX_BASIS	rimp2-cc-pvtz
SOLVENT_METHOD	PCM
PURECART	11111
SYMMETRY	false
MEM_TOTAL	110000
SCF_CONVERGENCE = 6
THRESH=10
GUI = 2
$end

$solvent
dielectric 4.90
$end
--------------------------------------------------------------

             Standard Nuclear Orientation (Angstroms)
    I     Atom           X                Y                Z
 ----------------------------------------------------------------
    1      C      -0.0006280000    -0.9912050000     0.9780670000
    2      S      -0.0001280000    -0.0864050000     2.4855670000
    3      C      -0.0009280000     1.4860950000     1.6969670000
    4      C       0.0001720000    -0.0868050000    -0.0898330000
    5      C      -0.0022280000     1.3033950000     0.2916670000
    6      S       0.0029720000    -0.3303050000    -1.8274330000
    7      C      -0.0025280000     1.4212950000    -2.0764330000
    8      C      -0.0050280000     2.1296950000    -0.8845330000
    9      F      -0.0098280000     3.4662950000    -0.8410330000
   10      C      -0.0006280000     1.8693950000    -3.4780330000
   11      O       0.0072720000     1.0994950000    -4.4284330000
   12      O      -0.0081280000     3.2198950000    -3.5911330000
   13      C      -0.0029280000     3.7149950000    -4.9381330000
   14      H      -0.0099280000     4.8159950000    -4.8550330000
   15      H      -0.8960280000     3.3616950000    -5.4921330000
   16      H       0.9008720000     3.3720950000    -5.4812330000
   17      C      -0.0006280000    -2.4264050000     0.9780670000
   18      H       0.5328720000    -2.4344050000     0.0390670000
   19      H       0.7275720000    -3.1043050000     1.3981670000
   20      H      -0.8183280000    -2.9575050000     0.5136670000
   21      H      -0.0023280000     2.4103950000     2.2845670000
 ----------------------------------------------------------------

   11   -1389.2732688291      4.69e-07  Convergence criterion met
 Total energy in the final basis set =    -1389.2732688291
        RIMP2         total energy =     -1391.7789750485 a.u.

                    Orbital Energies (a.u.)
 --------------------------------------------------------------

 Alpha MOs
 -- Occupied --
-92.0038 -91.9933 -26.3410 -20.6137 -20.5597 -11.4077 -11.3794 -11.2973
-11.2971 -11.2946 -11.2882 -11.2873 -11.2789 -11.2276  -9.0027  -8.9935
 -6.6835  -6.6829  -6.6825  -6.6745  -6.6738  -6.6727  -1.6582  -1.4660
 -1.3686  -1.2129  -1.1353  -1.0679  -1.0185  -0.9953  -0.9581  -0.9141
 -0.8633  -0.8048  -0.7888  -0.7591  -0.7300  -0.7230  -0.6939  -0.6834
 -0.6728  -0.6609  -0.6089  -0.6016  -0.5915  -0.5834  -0.5660  -0.5567
 -0.5387  -0.5301  -0.5070  -0.4889  -0.4733  -0.4716  -0.4650  -0.4572
 -0.3893  -0.3446  -0.2896

          Ground-State Mulliken Net Atomic Charges

     Atom                 Charge (a.u.)
  ----------------------------------------
      1 C                     0.050142
      2 S                     0.073278
      3 C                    -0.208552
      4 C                    -0.014871
      5 C                    -0.099113
      6 S                    -0.010448
      7 C                    -0.157503
      8 C                     0.388198
      9 F                    -0.207891
     10 C                     0.445287
     11 O                    -0.462849
     12 O                    -0.300826
     13 C                    -0.058673
     14 H                     0.121183
     15 H                     0.094787
     16 H                     0.094699
     17 C                    -0.379051
     18 H                     0.118315
     19 H                     0.162559
     20 H                     0.138907
     21 H                     0.212421
  ----------------------------------------
  Sum of atomic charges =     0.000000

                    Cartesian Multipole Moments
 -----------------------------------------------------------------
    Charge (ESU x 10^10)
                -0.0000
    Dipole Moment (Debye)
         X       0.3173      Y       0.4440      Z       2.6628
       Tot       2.7181
    Quadrupole Moments (Debye-Ang)
        XX     -96.4100     XY      -0.9990     YY     -80.8765
        XZ       0.6906     YZ      -8.9277     ZZ     -97.8829

 Total job time:  57.26s(wall), 1985.92s(cpu)
        *  Thank you very much for using Q-Chem.  Have a nice day.  *
