 Q-Chem 5.4, Q-Chem, Inc., Pleasanton, CA (2021)
 Q-Chem 5.4.0 for Intel X86 EM64T Linux

User input:
--------------------------------------------------------------
$molecule
0 1
C	-0.903405	-0.471137	0.975331
S	-0.119605	-0.019137	2.482831
C	1.241895	0.767763	1.694231
C	-0.119705	-0.019537	-0.092569
C	1.082995	0.677463	0.288931
S	-0.329305	-0.143837	-1.830169
C	1.184995	0.736763	-2.079169
C	1.797095	1.093063	-0.887269
F	2.952295	1.765563	-0.843769
C	1.573895	0.959163	-3.480769
O	0.911195	0.567363	-4.431169
O	2.739795	1.640863	-3.593869
C	3.171095	1.883963	-4.940869
H	4.121195	2.440463	-4.857769
H	2.418595	2.480763	-5.494869
H	3.326095	0.929763	-5.483969
C	-0.903405	-1.906337	0.975331
H	0.113995	-1.914337	1.337731
H	-1.190705	-2.584237	1.765431
H	-0.588005	-2.437437	0.089431
H	2.041595	1.231163	2.281831
$end

$rem
JOBTYPE		SP
EXCHANGE	HF
CORRELATION	pRIMP2
BASIS		cc-pvtz
METHOD		rimp2
AUX_BASIS	rimp2-cc-pvtz
SOLVENT_METHOD	PCM
PURECART	11111
SYMMETRY	false
MEM_TOTAL	110000
SCF_CONVERGENCE = 6
THRESH=10
GUI = 2
$end

$solvent
dielectric 4.90
$end
--------------------------------------------------------------

             Standard Nuclear Orientation (Angstroms)
    I     Atom           X                Y                Z
 ----------------------------------------------------------------
    1      C      -0.9034050000    -0.4711370000     0.9753310000
    2      S      -0.1196050000    -0.0191370000     2.4828310000
    3      C       1.2418950000     0.7677630000     1.6942310000
    4      C      -0.1197050000    -0.0195370000    -0.0925690000
    5      C       1.0829950000     0.6774630000     0.2889310000
    6      S      -0.3293050000    -0.1438370000    -1.8301690000
    7      C       1.1849950000     0.7367630000    -2.0791690000
    8      C       1.7970950000     1.0930630000    -0.8872690000
    9      F       2.9522950000     1.7655630000    -0.8437690000
   10      C       1.5738950000     0.9591630000    -3.4807690000
   11      O       0.9111950000     0.5673630000    -4.4311690000
   12      O       2.7397950000     1.6408630000    -3.5938690000
   13      C       3.1710950000     1.8839630000    -4.9408690000
   14      H       4.1211950000     2.4404630000    -4.8577690000
   15      H       2.4185950000     2.4807630000    -5.4948690000
   16      H       3.3260950000     0.9297630000    -5.4839690000
   17      C      -0.9034050000    -1.9063370000     0.9753310000
   18      H       0.1139950000    -1.9143370000     1.3377310000
   19      H      -1.1907050000    -2.5842370000     1.7654310000
   20      H      -0.5880050000    -2.4374370000     0.0894310000
   21      H       2.0415950000     1.2311630000     2.2818310000
 ----------------------------------------------------------------

   11   -1389.1977193922      5.65e-07  Convergence criterion met
 Total energy in the final basis set =    -1389.1977193922
        RIMP2         total energy =     -1391.7150680142 a.u.

                    Orbital Energies (a.u.)
 --------------------------------------------------------------

 Alpha MOs
 -- Occupied --
-92.0015 -91.9989 -26.3438 -20.6146 -20.5608 -11.4090 -11.3834 -11.3236
-11.3028 -11.2959 -11.2889 -11.2835 -11.2697 -11.2203  -9.0013  -8.9997
 -6.6823  -6.6816  -6.6805  -6.6803  -6.6794  -6.6792  -1.6610  -1.4670
 -1.3697  -1.2252  -1.1473  -1.0717  -1.0235  -0.9906  -0.9613  -0.9039
 -0.8673  -0.8116  -0.7918  -0.7610  -0.7358  -0.7257  -0.6981  -0.6845
 -0.6738  -0.6625  -0.6155  -0.6043  -0.5960  -0.5701  -0.5635  -0.5526
 -0.5337  -0.5280  -0.5144  -0.5026  -0.4770  -0.4733  -0.4719  -0.4399
 -0.3794  -0.3479  -0.2870

          Ground-State Mulliken Net Atomic Charges

     Atom                 Charge (a.u.)
  ----------------------------------------
      1 C                    -0.093608
      2 S                     0.083195
      3 C                    -0.148849
      4 C                     0.050653
      5 C                    -0.111992
      6 S                     0.034221
      7 C                    -0.154101
      8 C                     0.389518
      9 F                    -0.206364
     10 C                     0.448045
     11 O                    -0.462691
     12 O                    -0.301293
     13 C                    -0.058255
     14 H                     0.121255
     15 H                     0.095148
     16 H                     0.094790
     17 C                    -0.370851
     18 H                     0.100966
     19 H                     0.142083
     20 H                     0.132001
     21 H                     0.216130
  ----------------------------------------
  Sum of atomic charges =     0.000000

                    Cartesian Multipole Moments
 -----------------------------------------------------------------
    Charge (ESU x 10^10)
                -0.0000
    Dipole Moment (Debye)
         X       3.5287      Y       0.2912      Z       2.8708
       Tot       4.5583
    Quadrupole Moments (Debye-Ang)
        XX     -90.8038     XY       4.6166     YY     -91.2721
        XZ      -5.4597     YZ      -5.2741     ZZ     -95.1134

 Total job time:  53.83s(wall), 1950.28s(cpu)
        *  Thank you very much for using Q-Chem.  Have a nice day.  *
