 Q-Chem 5.4, Q-Chem, Inc., Pleasanton, CA (2021)
 Q-Chem 5.4.0 for Intel X86 EM64T Linux

User input:
--------------------------------------------------------------
$molecule
0 1
C	-0.522012	-0.851940	0.974584
S	-0.069212	-0.068640	2.482084
C	0.716388	1.293660	1.693484
C	-0.069112	-0.069040	-0.093316
C	0.623888	1.136060	0.288184
S	-0.188412	-0.281440	-1.830916
C	0.682588	1.238360	-2.079916
C	1.034588	1.852960	-0.888016
F	1.698788	3.012960	-0.844516
C	0.908288	1.625360	-3.481516
O	0.530188	0.954660	-4.431916
O	1.576988	2.798760	-3.594616
C	1.829088	3.224860	-4.941616
H	2.373588	4.181860	-4.858516
H	0.878988	3.365460	-5.495616
H	2.440388	2.476060	-5.484716
C	-0.522012	-2.287140	0.974584
H	0.310088	-2.295140	1.663084
H	-1.062212	-2.965040	1.618784
H	0.077288	-2.818240	0.249984
H	1.177288	2.094760	2.281084
$end

$rem
JOBTYPE		SP
EXCHANGE	HF
CORRELATION	pRIMP2
BASIS		cc-pvtz
METHOD		rimp2
AUX_BASIS	rimp2-cc-pvtz
SOLVENT_METHOD	PCM
PURECART	11111
SYMMETRY	false
MEM_TOTAL	110000
SCF_CONVERGENCE = 6
THRESH=10
GUI = 2
$end

$solvent
dielectric 4.90
$end
--------------------------------------------------------------

             Standard Nuclear Orientation (Angstroms)
    I     Atom           X                Y                Z
 ----------------------------------------------------------------
    1      C      -0.5220120000    -0.8519400000     0.9745840000
    2      S      -0.0692120000    -0.0686400000     2.4820840000
    3      C       0.7163880000     1.2936600000     1.6934840000
    4      C      -0.0691120000    -0.0690400000    -0.0933160000
    5      C       0.6238880000     1.1360600000     0.2881840000
    6      S      -0.1884120000    -0.2814400000    -1.8309160000
    7      C       0.6825880000     1.2383600000    -2.0799160000
    8      C       1.0345880000     1.8529600000    -0.8880160000
    9      F       1.6987880000     3.0129600000    -0.8445160000
   10      C       0.9082880000     1.6253600000    -3.4815160000
   11      O       0.5301880000     0.9546600000    -4.4319160000
   12      O       1.5769880000     2.7987600000    -3.5946160000
   13      C       1.8290880000     3.2248600000    -4.9416160000
   14      H       2.3735880000     4.1818600000    -4.8585160000
   15      H       0.8789880000     3.3654600000    -5.4956160000
   16      H       2.4403880000     2.4760600000    -5.4847160000
   17      C      -0.5220120000    -2.2871400000     0.9745840000
   18      H       0.3100880000    -2.2951400000     1.6630840000
   19      H      -1.0622120000    -2.9650400000     1.6187840000
   20      H       0.0772880000    -2.8182400000     0.2499840000
   21      H       1.1772880000     2.0947600000     2.2810840000
 ----------------------------------------------------------------

   11   -1389.2542810686      5.44e-07  Convergence criterion met
 Total energy in the final basis set =    -1389.2542810686
        RIMP2         total energy =     -1391.7615375326 a.u.

                    Orbital Energies (a.u.)
 --------------------------------------------------------------

 Alpha MOs
 -- Occupied --
-92.0024 -91.9924 -26.3408 -20.6135 -20.5596 -11.4075 -11.3791 -11.3022
-11.2942 -11.2925 -11.2881 -11.2873 -11.2789 -11.2253  -9.0021  -8.9926
 -6.6829  -6.6822  -6.6817  -6.6736  -6.6729  -6.6718  -1.6580  -1.4658
 -1.3685  -1.2143  -1.1390  -1.0664  -1.0197  -0.9933  -0.9587  -0.9103
 -0.8639  -0.8068  -0.7887  -0.7584  -0.7317  -0.7229  -0.6925  -0.6833
 -0.6727  -0.6603  -0.6108  -0.6009  -0.5931  -0.5729  -0.5643  -0.5548
 -0.5366  -0.5296  -0.5120  -0.4948  -0.4737  -0.4713  -0.4707  -0.4515
 -0.3863  -0.3463  -0.2845

          Ground-State Mulliken Net Atomic Charges

     Atom                 Charge (a.u.)
  ----------------------------------------
      1 C                     0.036334
      2 S                     0.072656
      3 C                    -0.202804
      4 C                    -0.054939
      5 C                    -0.079180
      6 S                     0.001045
      7 C                    -0.155490
      8 C                     0.388844
      9 F                    -0.208185
     10 C                     0.445924
     11 O                    -0.462222
     12 O                    -0.301072
     13 C                    -0.058490
     14 H                     0.121060
     15 H                     0.094833
     16 H                     0.094627
     17 C                    -0.381430
     18 H                     0.136717
     19 H                     0.151771
     20 H                     0.146897
     21 H                     0.213102
  ----------------------------------------
  Sum of atomic charges =     0.000000

                    Cartesian Multipole Moments
 -----------------------------------------------------------------
    Charge (ESU x 10^10)
                -0.0000
    Dipole Moment (Debye)
         X       1.7196      Y       0.3538      Z       3.5759
       Tot       3.9836
    Quadrupole Moments (Debye-Ang)
        XX     -94.7335     XY       3.7729     YY     -84.2660
        XZ      -4.0268     YZ      -9.8758     ZZ     -95.6904

 Total job time:  57.31s(wall), 1986.04s(cpu)
        *  Thank you very much for using Q-Chem.  Have a nice day.  *
