 Q-Chem 5.4, Q-Chem, Inc., Pleasanton, CA (2021)
 Q-Chem 5.4.0 for Intel X86 EM64T Linux

User input:
--------------------------------------------------------------
$molecule
0 1
C	-0.270046	-0.955820	0.973787
S	-0.035446	-0.082020	2.481287
C	0.370854	1.437180	1.692687
C	-0.035246	-0.082420	-0.094113
C	0.322354	1.260980	0.287387
S	-0.095546	-0.318420	-1.831713
C	0.352554	1.374980	-2.080713
C	0.533454	2.059780	-0.888813
F	0.874754	3.352180	-0.845313
C	0.470254	1.807280	-3.482313
O	0.278754	1.061580	-4.432713
O	0.812654	3.113680	-3.595413
C	0.945754	3.590580	-4.942413
H	1.224054	4.655880	-4.859313
H	-0.008346	3.480480	-5.496413
H	1.730054	3.025480	-5.485513
C	-0.270046	-2.391020	0.973787
H	0.106354	-2.399020	1.986087
H	-1.059946	-3.068920	1.261587
H	0.611354	-2.922120	0.645887
H	0.608654	2.330280	2.280287
$end

$rem
JOBTYPE		SP
EXCHANGE	HF
CORRELATION	pRIMP2
BASIS		cc-pvtz
METHOD		rimp2
AUX_BASIS	rimp2-cc-pvtz
SOLVENT_METHOD	PCM
PURECART	11111
SYMMETRY	false
MEM_TOTAL	110000
SCF_CONVERGENCE = 6
THRESH=10
GUI = 2
$end

$solvent
dielectric 4.90
$end
--------------------------------------------------------------

             Standard Nuclear Orientation (Angstroms)
    I     Atom           X                Y                Z
 ----------------------------------------------------------------
    1      C      -0.2700460000    -0.9558200000     0.9737870000
    2      S      -0.0354460000    -0.0820200000     2.4812870000
    3      C       0.3708540000     1.4371800000     1.6926870000
    4      C      -0.0352460000    -0.0824200000    -0.0941130000
    5      C       0.3223540000     1.2609800000     0.2873870000
    6      S      -0.0955460000    -0.3184200000    -1.8317130000
    7      C       0.3525540000     1.3749800000    -2.0807130000
    8      C       0.5334540000     2.0597800000    -0.8888130000
    9      F       0.8747540000     3.3521800000    -0.8453130000
   10      C       0.4702540000     1.8072800000    -3.4823130000
   11      O       0.2787540000     1.0615800000    -4.4327130000
   12      O       0.8126540000     3.1136800000    -3.5954130000
   13      C       0.9457540000     3.5905800000    -4.9424130000
   14      H       1.2240540000     4.6558800000    -4.8593130000
   15      H      -0.0083460000     3.4804800000    -5.4964130000
   16      H       1.7300540000     3.0254800000    -5.4855130000
   17      C      -0.2700460000    -2.3910200000     0.9737870000
   18      H       0.1063540000    -2.3990200000     1.9860870000
   19      H      -1.0599460000    -3.0689200000     1.2615870000
   20      H       0.6113540000    -2.9221200000     0.6458870000
   21      H       0.6086540000     2.3302800000     2.2802870000
 ----------------------------------------------------------------

   11   -1389.2660984737      4.91e-07  Convergence criterion met
 Total energy in the final basis set =    -1389.2660984737
        RIMP2         total energy =     -1391.7717880748 a.u.

                    Orbital Energies (a.u.)
 --------------------------------------------------------------

 Alpha MOs
 -- Occupied --
-92.0069 -91.9922 -26.3405 -20.6134 -20.5594 -11.4073 -11.3786 -11.3008
-11.2941 -11.2919 -11.2880 -11.2860 -11.2786 -11.2249  -9.0060  -8.9923
 -6.6867  -6.6861  -6.6856  -6.6733  -6.6726  -6.6715  -1.6577  -1.4657
 -1.3683  -1.2127  -1.1373  -1.0650  -1.0198  -0.9946  -0.9587  -0.9119
 -0.8639  -0.8068  -0.7884  -0.7580  -0.7314  -0.7226  -0.6915  -0.6831
 -0.6725  -0.6605  -0.6075  -0.6027  -0.5921  -0.5757  -0.5658  -0.5564
 -0.5395  -0.5298  -0.5079  -0.4826  -0.4739  -0.4711  -0.4691  -0.4557
 -0.3908  -0.3452  -0.2902

          Ground-State Mulliken Net Atomic Charges

     Atom                 Charge (a.u.)
  ----------------------------------------
      1 C                     0.034159
      2 S                     0.075786
      3 C                    -0.208542
      4 C                    -0.023662
      5 C                    -0.084821
      6 S                    -0.001681
      7 C                    -0.156652
      8 C                     0.388523
      9 F                    -0.208538
     10 C                     0.445789
     11 O                    -0.462316
     12 O                    -0.300934
     13 C                    -0.058486
     14 H                     0.120987
     15 H                     0.094769
     16 H                     0.094637
     17 C                    -0.372515
     18 H                     0.116915
     19 H                     0.149322
     20 H                     0.142824
     21 H                     0.214438
  ----------------------------------------
  Sum of atomic charges =     0.000000

                    Cartesian Multipole Moments
 -----------------------------------------------------------------
    Charge (ESU x 10^10)
                -0.0000
    Dipole Moment (Debye)
         X       0.8439      Y       0.6302      Z       3.8011
       Tot       3.9443
    Quadrupole Moments (Debye-Ang)
        XX     -95.7745     XY       2.2894     YY     -82.1989
        XZ      -2.2224     YZ     -11.0881     ZZ     -95.4573

 Total job time:  59.05s(wall), 1996.07s(cpu)
        *  Thank you very much for using Q-Chem.  Have a nice day.  *
