 Q-Chem 5.4, Q-Chem, Inc., Pleasanton, CA (2021)
 Q-Chem 5.4.0 for Intel X86 EM64T Linux

User input:
--------------------------------------------------------------
$molecule
0 1
C	-0.798667	-0.619704	0.977605
S	-0.105267	-0.038504	2.485105
C	1.098833	0.972896	1.696505
C	-0.105367	-0.038904	-0.090295
C	0.958133	0.856396	0.291205
S	-0.290067	-0.197704	-1.827895
C	1.048233	0.932496	-2.076895
C	1.589233	1.389696	-0.884995
F	2.610033	2.252596	-0.841495
C	1.392633	1.219096	-3.478495
O	0.808033	0.718096	-4.428895
O	2.422433	2.092896	-3.591595
C	2.805033	2.407096	-4.938595
H	3.643933	3.120196	-4.855495
H	1.960333	2.864196	-5.492595
H	3.123333	1.494396	-5.481695
C	-0.798667	-2.054904	0.977605
H	0.023833	-2.062904	0.277705
H	-0.258067	-2.732804	1.621505
H	-1.408267	-2.586004	0.261505
H	1.806033	1.568096	2.284105
$end

$rem
JOBTYPE		SP
EXCHANGE	HF
CORRELATION	pRIMP2
BASIS		cc-pvtz
METHOD		rimp2
AUX_BASIS	rimp2-cc-pvtz
SOLVENT_METHOD	PCM
PURECART	11111
SYMMETRY	false
MEM_TOTAL	110000
SCF_CONVERGENCE = 6
THRESH=10
GUI = 2
$end

$solvent
dielectric 4.90
$end
--------------------------------------------------------------

             Standard Nuclear Orientation (Angstroms)
    I     Atom           X                Y                Z
 ----------------------------------------------------------------
    1      C      -0.7986670000    -0.6197040000     0.9776050000
    2      S      -0.1052670000    -0.0385040000     2.4851050000
    3      C       1.0988330000     0.9728960000     1.6965050000
    4      C      -0.1053670000    -0.0389040000    -0.0902950000
    5      C       0.9581330000     0.8563960000     0.2912050000
    6      S      -0.2900670000    -0.1977040000    -1.8278950000
    7      C       1.0482330000     0.9324960000    -2.0768950000
    8      C       1.5892330000     1.3896960000    -0.8849950000
    9      F       2.6100330000     2.2525960000    -0.8414950000
   10      C       1.3926330000     1.2190960000    -3.4784950000
   11      O       0.8080330000     0.7180960000    -4.4288950000
   12      O       2.4224330000     2.0928960000    -3.5915950000
   13      C       2.8050330000     2.4070960000    -4.9385950000
   14      H       3.6439330000     3.1201960000    -4.8554950000
   15      H       1.9603330000     2.8641960000    -5.4925950000
   16      H       3.1233330000     1.4943960000    -5.4816950000
   17      C      -0.7986670000    -2.0549040000     0.9776050000
   18      H       0.0238330000    -2.0629040000     0.2777050000
   19      H      -0.2580670000    -2.7328040000     1.6215050000
   20      H      -1.4082670000    -2.5860040000     0.2615050000
   21      H       1.8060330000     1.5680960000     2.2841050000
 ----------------------------------------------------------------

   11   -1389.2149637197      5.23e-07  Convergence criterion met
 Total energy in the final basis set =    -1389.2149637197
        RIMP2         total energy =     -1391.7327663827 a.u.

                    Orbital Energies (a.u.)
 --------------------------------------------------------------

 Alpha MOs
 -- Occupied --
-92.0065 -92.0010 -26.3429 -20.6142 -20.5601 -11.4085 -11.3821 -11.3112
-11.2950 -11.2949 -11.2887 -11.2811 -11.2761 -11.2181  -9.0056  -9.0008
 -6.6863  -6.6855  -6.6852  -6.6818  -6.6811  -6.6800  -1.6601  -1.4666
 -1.3693  -1.2203  -1.1418  -1.0706  -1.0211  -0.9913  -0.9599  -0.9069
 -0.8655  -0.8079  -0.7909  -0.7604  -0.7315  -0.7248  -0.6968  -0.6841
 -0.6735  -0.6614  -0.6102  -0.5992  -0.5946  -0.5817  -0.5650  -0.5622
 -0.5308  -0.5202  -0.5105  -0.4914  -0.4741  -0.4724  -0.4695  -0.4553
 -0.3804  -0.3407  -0.2898

          Ground-State Mulliken Net Atomic Charges

     Atom                 Charge (a.u.)
  ----------------------------------------
      1 C                    -0.079384
      2 S                     0.100077
      3 C                    -0.182502
      4 C                     0.037857
      5 C                    -0.105499
      6 S                     0.026388
      7 C                    -0.154760
      8 C                     0.389792
      9 F                    -0.206740
     10 C                     0.448850
     11 O                    -0.463644
     12 O                    -0.301312
     13 C                    -0.058321
     14 H                     0.121184
     15 H                     0.094955
     16 H                     0.094747
     17 C                    -0.379609
     18 H                     0.122055
     19 H                     0.156183
     20 H                     0.125872
     21 H                     0.213812
  ----------------------------------------
  Sum of atomic charges =     0.000000

                    Cartesian Multipole Moments
 -----------------------------------------------------------------
    Charge (ESU x 10^10)
                -0.0000
    Dipole Moment (Debye)
         X       2.7479      Y       0.4976      Z       2.6069
       Tot       3.8202
    Quadrupole Moments (Debye-Ang)
        XX     -91.9414     XY       4.5785     YY     -89.3521
        XZ      -4.4933     YZ      -5.5075     ZZ     -96.1407

 Total job time:  61.83s(wall), 2073.47s(cpu)
        *  Thank you very much for using Q-Chem.  Have a nice day.  *
