 Q-Chem 5.4, Q-Chem, Inc., Pleasanton, CA (2021)
 Q-Chem 5.4.0 for Intel X86 EM64T Linux

User input:
--------------------------------------------------------------
$molecule
0 1
C	-0.901701	-0.471137	0.978203
S	-0.117901	-0.019137	2.485703
C	1.243599	0.767763	1.697103
C	-0.118001	-0.019537	-0.089697
C	1.084699	0.677463	0.291803
S	-0.327601	-0.143837	-1.827297
C	1.186699	0.736763	-2.076297
C	1.798799	1.093063	-0.884397
F	2.953999	1.765563	-0.840897
C	1.575599	0.959163	-3.477897
O	0.912899	0.567363	-4.428297
O	2.741499	1.640863	-3.590997
C	3.172799	1.883963	-4.937997
H	4.122899	2.440463	-4.854897
H	2.420299	2.480763	-5.491997
H	3.327799	0.929763	-5.481097
C	-0.901701	-1.906337	0.978203
H	-0.539301	-1.914337	-0.039197
H	-0.111601	-2.584237	1.265503
H	-1.787601	-2.437437	0.662803
H	2.043299	1.231163	2.284703
$end

$rem
JOBTYPE		SP
EXCHANGE	HF
CORRELATION	pRIMP2
BASIS		cc-pvtz
METHOD		rimp2
AUX_BASIS	rimp2-cc-pvtz
SOLVENT_METHOD	PCM
PURECART	11111
SYMMETRY	false
MEM_TOTAL	110000
SCF_CONVERGENCE = 6
THRESH=10
GUI = 2
$end

$solvent
dielectric 4.90
$end
--------------------------------------------------------------

             Standard Nuclear Orientation (Angstroms)
    I     Atom           X                Y                Z
 ----------------------------------------------------------------
    1      C      -0.9017010000    -0.4711370000     0.9782030000
    2      S      -0.1179010000    -0.0191370000     2.4857030000
    3      C       1.2435990000     0.7677630000     1.6971030000
    4      C      -0.1180010000    -0.0195370000    -0.0896970000
    5      C       1.0846990000     0.6774630000     0.2918030000
    6      S      -0.3276010000    -0.1438370000    -1.8272970000
    7      C       1.1866990000     0.7367630000    -2.0762970000
    8      C       1.7987990000     1.0930630000    -0.8843970000
    9      F       2.9539990000     1.7655630000    -0.8408970000
   10      C       1.5755990000     0.9591630000    -3.4778970000
   11      O       0.9128990000     0.5673630000    -4.4282970000
   12      O       2.7414990000     1.6408630000    -3.5909970000
   13      C       3.1727990000     1.8839630000    -4.9379970000
   14      H       4.1228990000     2.4404630000    -4.8548970000
   15      H       2.4202990000     2.4807630000    -5.4919970000
   16      H       3.3277990000     0.9297630000    -5.4810970000
   17      C      -0.9017010000    -1.9063370000     0.9782030000
   18      H      -0.5393010000    -1.9143370000    -0.0391970000
   19      H      -0.1116010000    -2.5842370000     1.2655030000
   20      H      -1.7876010000    -2.4374370000     0.6628030000
   21      H       2.0432990000     1.2311630000     2.2847030000
 ----------------------------------------------------------------

   11   -1389.1906536225      6.41e-07  Convergence criterion met
 Total energy in the final basis set =    -1389.1906536225
        RIMP2         total energy =     -1391.7099388878 a.u.

                    Orbital Energies (a.u.)
 --------------------------------------------------------------

 Alpha MOs
 -- Occupied --
-92.0060 -92.0031 -26.3447 -20.6145 -20.5604 -11.4090 -11.3851 -11.3249
-11.3080 -11.2951 -11.2890 -11.2814 -11.2572 -11.2116  -9.0058  -9.0027
 -6.6867  -6.6859  -6.6850  -6.6834  -6.6824  -6.6823  -1.6618  -1.4670
 -1.3697  -1.2252  -1.1437  -1.0742  -1.0227  -0.9906  -0.9607  -0.9055
 -0.8668  -0.8102  -0.7924  -0.7619  -0.7329  -0.7263  -0.7002  -0.6845
 -0.6739  -0.6626  -0.6110  -0.6034  -0.5933  -0.5826  -0.5658  -0.5619
 -0.5311  -0.5163  -0.5140  -0.4883  -0.4758  -0.4729  -0.4696  -0.4348
 -0.3822  -0.3369  -0.3028

          Ground-State Mulliken Net Atomic Charges

     Atom                 Charge (a.u.)
  ----------------------------------------
      1 C                    -0.145338
      2 S                     0.099361
      3 C                    -0.142213
      4 C                     0.090414
      5 C                    -0.122221
      6 S                     0.041870
      7 C                    -0.161864
      8 C                     0.396346
      9 F                    -0.205303
     10 C                     0.448819
     11 O                    -0.464751
     12 O                    -0.301659
     13 C                    -0.058196
     14 H                     0.121240
     15 H                     0.095047
     16 H                     0.094751
     17 C                    -0.358605
     18 H                     0.107656
     19 H                     0.137203
     20 H                     0.111457
     21 H                     0.215985
  ----------------------------------------
  Sum of atomic charges =     0.000000

                    Cartesian Multipole Moments
 -----------------------------------------------------------------
    Charge (ESU x 10^10)
                -0.0000
    Dipole Moment (Debye)
         X       3.4996      Y       0.6508      Z       2.2109
       Tot       4.1904
    Quadrupole Moments (Debye-Ang)
        XX     -90.0244     XY       4.3453     YY     -91.8717
        XZ      -4.3500     YZ      -3.3935     ZZ     -96.4393

 Total job time:  54.32s(wall), 1931.68s(cpu)
        *  Thank you very much for using Q-Chem.  Have a nice day.  *
