 Q-Chem 5.4, Q-Chem, Inc., Pleasanton, CA (2021)
 Q-Chem 5.4.0 for Intel X86 EM64T Linux

User input:
--------------------------------------------------------------
$molecule
0 1
C	-0.357972	-0.928548	0.975737
S	-0.048072	-0.078548	2.483237
C	0.489028	1.399452	1.694637
C	-0.047972	-0.078948	-0.092163
C	0.425328	1.228152	0.289337
S	-0.128572	-0.308748	-1.829763
C	0.465328	1.339152	-2.078763
C	0.705328	2.005552	-0.886863
F	1.157928	3.263252	-0.843363
C	0.620328	1.759552	-3.480363
O	0.364528	1.033352	-4.430763
O	1.075228	3.031152	-3.593463
C	1.249528	3.494552	-4.940463
H	1.619528	4.531652	-4.857363
H	0.289428	3.468052	-5.494463
H	1.981528	2.863252	-5.483563
C	-0.357972	-2.363748	0.975737
H	0.706828	-2.371748	1.155937
H	-0.503672	-3.041648	1.803737
H	-0.201272	-2.894848	0.048537
H	0.803828	2.268452	2.282237
$end

$rem
JOBTYPE		SP
EXCHANGE	HF
CORRELATION	pRIMP2
BASIS		cc-pvtz
METHOD		rimp2
AUX_BASIS	rimp2-cc-pvtz
SOLVENT_METHOD	PCM
PURECART	11111
SYMMETRY	false
MEM_TOTAL	110000
SCF_CONVERGENCE = 6
THRESH=10
GUI = 2
$end

$solvent
dielectric 4.90
$end
--------------------------------------------------------------

             Standard Nuclear Orientation (Angstroms)
    I     Atom           X                Y                Z
 ----------------------------------------------------------------
    1      C      -0.3579720000    -0.9285480000     0.9757370000
    2      S      -0.0480720000    -0.0785480000     2.4832370000
    3      C       0.4890280000     1.3994520000     1.6946370000
    4      C      -0.0479720000    -0.0789480000    -0.0921630000
    5      C       0.4253280000     1.2281520000     0.2893370000
    6      S      -0.1285720000    -0.3087480000    -1.8297630000
    7      C       0.4653280000     1.3391520000    -2.0787630000
    8      C       0.7053280000     2.0055520000    -0.8868630000
    9      F       1.1579280000     3.2632520000    -0.8433630000
   10      C       0.6203280000     1.7595520000    -3.4803630000
   11      O       0.3645280000     1.0333520000    -4.4307630000
   12      O       1.0752280000     3.0311520000    -3.5934630000
   13      C       1.2495280000     3.4945520000    -4.9404630000
   14      H       1.6195280000     4.5316520000    -4.8573630000
   15      H       0.2894280000     3.4680520000    -5.4944630000
   16      H       1.9815280000     2.8632520000    -5.4835630000
   17      C      -0.3579720000    -2.3637480000     0.9757370000
   18      H       0.7068280000    -2.3717480000     1.1559370000
   19      H      -0.5036720000    -3.0416480000     1.8037370000
   20      H      -0.2012720000    -2.8948480000     0.0485370000
   21      H       0.8038280000     2.2684520000     2.2822370000
 ----------------------------------------------------------------

   11   -1389.2675647944      5.41e-07  Convergence criterion met
 Total energy in the final basis set =    -1389.2675647944
        RIMP2         total energy =     -1391.7723378585 a.u.

                    Orbital Energies (a.u.)
 --------------------------------------------------------------

 Alpha MOs
 -- Occupied --
-92.0044 -91.9905 -26.3400 -20.6134 -20.5596 -11.4074 -11.3777 -11.3021
-11.2945 -11.2935 -11.2880 -11.2810 -11.2786 -11.2317  -9.0035  -8.9906
 -6.6844  -6.6838  -6.6832  -6.6717  -6.6710  -6.6698  -1.6572  -1.4658
 -1.3684  -1.2123  -1.1376  -1.0672  -1.0183  -0.9948  -0.9579  -0.9120
 -0.8629  -0.8047  -0.7880  -0.7584  -0.7310  -0.7221  -0.6922  -0.6832
 -0.6725  -0.6599  -0.6123  -0.5971  -0.5930  -0.5783  -0.5626  -0.5575
 -0.5315  -0.5260  -0.5189  -0.5000  -0.4723  -0.4713  -0.4703  -0.4586
 -0.3843  -0.3458  -0.2802

          Ground-State Mulliken Net Atomic Charges

     Atom                 Charge (a.u.)
  ----------------------------------------
      1 C                     0.058325
      2 S                     0.075870
      3 C                    -0.229472
      4 C                    -0.064690
      5 C                    -0.077511
      6 S                    -0.012224
      7 C                    -0.154312
      8 C                     0.388238
      9 F                    -0.208804
     10 C                     0.445980
     11 O                    -0.461704
     12 O                    -0.300817
     13 C                    -0.058461
     14 H                     0.121042
     15 H                     0.094817
     16 H                     0.094630
     17 C                    -0.382462
     18 H                     0.150074
     19 H                     0.162688
     20 H                     0.146526
     21 H                     0.212267
  ----------------------------------------
  Sum of atomic charges =     0.000000

                    Cartesian Multipole Moments
 -----------------------------------------------------------------
    Charge (ESU x 10^10)
                -0.0000
    Dipole Moment (Debye)
         X       1.3557      Y      -0.0709      Z       3.3628
       Tot       3.6265
    Quadrupole Moments (Debye-Ang)
        XX     -96.2982     XY       2.0949     YY     -81.8334
        XZ      -2.4613     YZ     -10.5888     ZZ     -96.2737

 Total job time:  56.84s(wall), 1921.63s(cpu)
        *  Thank you very much for using Q-Chem.  Have a nice day.  *
