 Q-Chem 5.4, Q-Chem, Inc., Pleasanton, CA (2021)
 Q-Chem 5.4.0 for Intel X86 EM64T Linux

User input:
--------------------------------------------------------------
$molecule
0 1
C	-0.440543	-0.893839	0.973787
S	-0.057743	-0.074039	2.481287
C	0.606157	1.351461	1.692687
C	-0.057643	-0.074439	-0.094113
C	0.527757	1.186461	0.287387
S	-0.157943	-0.296439	-1.831713
C	0.577257	1.293461	-2.080713
C	0.874457	1.936461	-0.888813
F	1.434957	3.149961	-0.845313
C	0.768357	1.698761	-3.482313
O	0.450257	0.997661	-4.432713
O	1.332357	2.925861	-3.595413
C	1.546357	3.372361	-4.942413
H	2.005257	4.373161	-4.859313
H	0.587557	3.429561	-5.496413
H	2.220557	2.679661	-5.485513
C	-0.440543	-2.329039	0.973787
H	-0.064143	-2.337039	1.986087
H	-1.230443	-3.006939	1.261587
H	0.440857	-2.860139	0.645887
H	0.995457	2.189761	2.280287
$end

$rem
JOBTYPE		SP
EXCHANGE	HF
CORRELATION	pRIMP2
BASIS		cc-pvtz
METHOD		rimp2
AUX_BASIS	rimp2-cc-pvtz
SOLVENT_METHOD	PCM
PURECART	11111
SYMMETRY	false
MEM_TOTAL	110000
SCF_CONVERGENCE = 6
THRESH=10
GUI = 2
$end

$solvent
dielectric 4.90
$end
--------------------------------------------------------------

             Standard Nuclear Orientation (Angstroms)
    I     Atom           X                Y                Z
 ----------------------------------------------------------------
    1      C      -0.4405430000    -0.8938390000     0.9737870000
    2      S      -0.0577430000    -0.0740390000     2.4812870000
    3      C       0.6061570000     1.3514610000     1.6926870000
    4      C      -0.0576430000    -0.0744390000    -0.0941130000
    5      C       0.5277570000     1.1864610000     0.2873870000
    6      S      -0.1579430000    -0.2964390000    -1.8317130000
    7      C       0.5772570000     1.2934610000    -2.0807130000
    8      C       0.8744570000     1.9364610000    -0.8888130000
    9      F       1.4349570000     3.1499610000    -0.8453130000
   10      C       0.7683570000     1.6987610000    -3.4823130000
   11      O       0.4502570000     0.9976610000    -4.4327130000
   12      O       1.3323570000     2.9258610000    -3.5954130000
   13      C       1.5463570000     3.3723610000    -4.9424130000
   14      H       2.0052570000     4.3731610000    -4.8593130000
   15      H       0.5875570000     3.4295610000    -5.4964130000
   16      H       2.2205570000     2.6796610000    -5.4855130000
   17      C      -0.4405430000    -2.3290390000     0.9737870000
   18      H      -0.0641430000    -2.3370390000     1.9860870000
   19      H      -1.2304430000    -3.0069390000     1.2615870000
   20      H       0.4408570000    -2.8601390000     0.6458870000
   21      H       0.9954570000     2.1897610000     2.2802870000
 ----------------------------------------------------------------

   11   -1389.2576901884      4.91e-07  Convergence criterion met
 Total energy in the final basis set =    -1389.2576901884
        RIMP2         total energy =     -1391.7649869330 a.u.

                    Orbital Energies (a.u.)
 --------------------------------------------------------------

 Alpha MOs
 -- Occupied --
-92.0058 -91.9932 -26.3409 -20.6134 -20.5594 -11.4073 -11.3792 -11.3036
-11.2940 -11.2889 -11.2880 -11.2877 -11.2787 -11.2232  -9.0051  -8.9933
 -6.6859  -6.6852  -6.6847  -6.6743  -6.6736  -6.6725  -1.6581  -1.4658
 -1.3684  -1.2137  -1.1382  -1.0652  -1.0203  -0.9937  -0.9590  -0.9108
 -0.8642  -0.8074  -0.7888  -0.7581  -0.7316  -0.7230  -0.6919  -0.6831
 -0.6726  -0.6606  -0.6074  -0.6032  -0.5923  -0.5747  -0.5653  -0.5569
 -0.5377  -0.5299  -0.5083  -0.4833  -0.4747  -0.4713  -0.4697  -0.4520
 -0.3904  -0.3449  -0.2908

          Ground-State Mulliken Net Atomic Charges

     Atom                 Charge (a.u.)
  ----------------------------------------
      1 C                     0.021171
      2 S                     0.075867
      3 C                    -0.201893
      4 C                    -0.030920
      5 C                    -0.079059
      6 S                     0.003003
      7 C                    -0.156299
      8 C                     0.387748
      9 F                    -0.208177
     10 C                     0.446280
     11 O                    -0.462526
     12 O                    -0.301130
     13 C                    -0.058504
     14 H                     0.121016
     15 H                     0.094802
     16 H                     0.094655
     17 C                    -0.370219
     18 H                     0.119162
     19 H                     0.146080
     20 H                     0.144551
     21 H                     0.214391
  ----------------------------------------
  Sum of atomic charges =     0.000000

                    Cartesian Multipole Moments
 -----------------------------------------------------------------
    Charge (ESU x 10^10)
                -0.0000
    Dipole Moment (Debye)
         X       1.2934      Y       0.6718      Z       3.7599
       Tot       4.0325
    Quadrupole Moments (Debye-Ang)
        XX     -94.7681     XY       3.7928     YY     -83.7811
        XZ      -3.5576     YZ     -10.3128     ZZ     -95.3656

 Total job time:  59.06s(wall), 1994.01s(cpu)
        *  Thank you very much for using Q-Chem.  Have a nice day.  *
