 Q-Chem 5.4, Q-Chem, Inc., Pleasanton, CA (2021)
 Q-Chem 5.4.0 for Intel X86 EM64T Linux

User input:
--------------------------------------------------------------
$molecule
0 1
C	-0.519478	-0.851940	0.973626
S	-0.066678	-0.068640	2.481126
C	0.718922	1.293660	1.692526
C	-0.066578	-0.069040	-0.094274
C	0.626422	1.136060	0.287226
S	-0.185878	-0.281440	-1.831874
C	0.685122	1.238360	-2.080874
C	1.037122	1.852960	-0.888974
F	1.701322	3.012960	-0.845474
C	0.910822	1.625360	-3.482474
O	0.532722	0.954660	-4.432874
O	1.579522	2.798760	-3.595574
C	1.831622	3.224860	-4.942574
H	2.376122	4.181860	-4.859474
H	0.881522	3.365460	-5.496574
H	2.442922	2.476060	-5.485674
C	-0.519478	-2.287140	0.973626
H	-0.881878	-2.295140	1.991026
H	-1.309578	-2.965040	0.686326
H	0.366422	-2.818240	1.289026
H	1.179822	2.094760	2.280126
$end

$rem
JOBTYPE		SP
EXCHANGE	HF
CORRELATION	pRIMP2
BASIS		cc-pvtz
METHOD		rimp2
AUX_BASIS	rimp2-cc-pvtz
SOLVENT_METHOD	PCM
PURECART	11111
SYMMETRY	false
MEM_TOTAL	110000
SCF_CONVERGENCE = 6
THRESH=10
GUI = 2
$end

$solvent
dielectric 4.90
$end
--------------------------------------------------------------

             Standard Nuclear Orientation (Angstroms)
    I     Atom           X                Y                Z
 ----------------------------------------------------------------
    1      C      -0.5194780000    -0.8519400000     0.9736260000
    2      S      -0.0666780000    -0.0686400000     2.4811260000
    3      C       0.7189220000     1.2936600000     1.6925260000
    4      C      -0.0665780000    -0.0690400000    -0.0942740000
    5      C       0.6264220000     1.1360600000     0.2872260000
    6      S      -0.1858780000    -0.2814400000    -1.8318740000
    7      C       0.6851220000     1.2383600000    -2.0808740000
    8      C       1.0371220000     1.8529600000    -0.8889740000
    9      F       1.7013220000     3.0129600000    -0.8454740000
   10      C       0.9108220000     1.6253600000    -3.4824740000
   11      O       0.5327220000     0.9546600000    -4.4328740000
   12      O       1.5795220000     2.7987600000    -3.5955740000
   13      C       1.8316220000     3.2248600000    -4.9425740000
   14      H       2.3761220000     4.1818600000    -4.8594740000
   15      H       0.8815220000     3.3654600000    -5.4965740000
   16      H       2.4429220000     2.4760600000    -5.4856740000
   17      C      -0.5194780000    -2.2871400000     0.9736260000
   18      H      -0.8818780000    -2.2951400000     1.9910260000
   19      H      -1.3095780000    -2.9650400000     0.6863260000
   20      H       0.3664220000    -2.8182400000     1.2890260000
   21      H       1.1798220000     2.0947600000     2.2801260000
 ----------------------------------------------------------------

   11   -1389.2536679750      4.62e-07  Convergence criterion met
 Total energy in the final basis set =    -1389.2536679750
        RIMP2         total energy =     -1391.7622657992 a.u.

                    Orbital Energies (a.u.)
 --------------------------------------------------------------

 Alpha MOs
 -- Occupied --
-92.0075 -91.9944 -26.3410 -20.6135 -20.5595 -11.4075 -11.3793 -11.3060
-11.2941 -11.2891 -11.2881 -11.2835 -11.2791 -11.2224  -9.0065  -8.9944
 -6.6873  -6.6866  -6.6862  -6.6755  -6.6747  -6.6737  -1.6582  -1.4658
 -1.3685  -1.2141  -1.1382  -1.0648  -1.0206  -0.9937  -0.9591  -0.9110
 -0.8644  -0.8076  -0.7889  -0.7583  -0.7315  -0.7231  -0.6919  -0.6832
 -0.6727  -0.6605  -0.6083  -0.6011  -0.5914  -0.5784  -0.5648  -0.5587
 -0.5327  -0.5298  -0.5084  -0.4800  -0.4730  -0.4715  -0.4636  -0.4616
 -0.3895  -0.3446  -0.2925

          Ground-State Mulliken Net Atomic Charges

     Atom                 Charge (a.u.)
  ----------------------------------------
      1 C                    -0.021745
      2 S                     0.081903
      3 C                    -0.196266
      4 C                     0.002585
      5 C                    -0.089865
      6 S                     0.006533
      7 C                    -0.159013
      8 C                     0.393012
      9 F                    -0.208315
     10 C                     0.445766
     11 O                    -0.462671
     12 O                    -0.301132
     13 C                    -0.058485
     14 H                     0.121039
     15 H                     0.094790
     16 H                     0.094708
     17 C                    -0.358113
     18 H                     0.108662
     19 H                     0.153588
     20 H                     0.138370
     21 H                     0.214651
  ----------------------------------------
  Sum of atomic charges =     0.000000

                    Cartesian Multipole Moments
 -----------------------------------------------------------------
    Charge (ESU x 10^10)
                -0.0000
    Dipole Moment (Debye)
         X       1.1103      Y       0.7595      Z       3.6723
       Tot       3.9109
    Quadrupole Moments (Debye-Ang)
        XX     -93.6687     XY       5.5642     YY     -84.7264
        XZ      -4.0919     YZ      -9.5134     ZZ     -95.3286

 Total job time:  58.73s(wall), 2001.28s(cpu)
        *  Thank you very much for using Q-Chem.  Have a nice day.  *
