 Q-Chem 5.4, Q-Chem, Inc., Pleasanton, CA (2021)
 Q-Chem 5.4.0 for Intel X86 EM64T Linux

User input:
--------------------------------------------------------------
$molecule
0 1
C	-0.266734	-0.955820	0.976498
S	-0.032134	-0.082020	2.483998
C	0.374166	1.437180	1.695398
C	-0.031934	-0.082420	-0.091402
C	0.325666	1.260980	0.290098
S	-0.092234	-0.318420	-1.829002
C	0.355866	1.374980	-2.078002
C	0.536766	2.059780	-0.886102
F	0.878066	3.352180	-0.842602
C	0.473566	1.807280	-3.479602
O	0.282066	1.061580	-4.430002
O	0.815966	3.113680	-3.592702
C	0.949066	3.590580	-4.939702
H	1.227366	4.655880	-4.856602
H	-0.005034	3.480480	-5.493702
H	1.733366	3.025480	-5.482802
C	-0.266734	-2.391020	0.976498
H	-1.284134	-2.399020	0.614098
H	0.020566	-3.068920	0.186398
H	-0.582134	-2.922120	1.862398
H	0.611966	2.330280	2.282998
$end

$rem
JOBTYPE		SP
EXCHANGE	HF
CORRELATION	pRIMP2
BASIS		cc-pvtz
METHOD		rimp2
AUX_BASIS	rimp2-cc-pvtz
SOLVENT_METHOD	PCM
PURECART	11111
SYMMETRY	false
MEM_TOTAL	110000
SCF_CONVERGENCE = 6
THRESH=10
GUI = 2
$end

$solvent
dielectric 4.90
$end
--------------------------------------------------------------

             Standard Nuclear Orientation (Angstroms)
    I     Atom           X                Y                Z
 ----------------------------------------------------------------
    1      C      -0.2667340000    -0.9558200000     0.9764980000
    2      S      -0.0321340000    -0.0820200000     2.4839980000
    3      C       0.3741660000     1.4371800000     1.6953980000
    4      C      -0.0319340000    -0.0824200000    -0.0914020000
    5      C       0.3256660000     1.2609800000     0.2900980000
    6      S      -0.0922340000    -0.3184200000    -1.8290020000
    7      C       0.3558660000     1.3749800000    -2.0780020000
    8      C       0.5367660000     2.0597800000    -0.8861020000
    9      F       0.8780660000     3.3521800000    -0.8426020000
   10      C       0.4735660000     1.8072800000    -3.4796020000
   11      O       0.2820660000     1.0615800000    -4.4300020000
   12      O       0.8159660000     3.1136800000    -3.5927020000
   13      C       0.9490660000     3.5905800000    -4.9397020000
   14      H       1.2273660000     4.6558800000    -4.8566020000
   15      H      -0.0050340000     3.4804800000    -5.4937020000
   16      H       1.7333660000     3.0254800000    -5.4828020000
   17      C      -0.2667340000    -2.3910200000     0.9764980000
   18      H      -1.2841340000    -2.3990200000     0.6140980000
   19      H       0.0205660000    -3.0689200000     0.1863980000
   20      H      -0.5821340000    -2.9221200000     1.8623980000
   21      H       0.6119660000     2.3302800000     2.2829980000
 ----------------------------------------------------------------

   11   -1389.2669708062      5.02e-07  Convergence criterion met
 Total energy in the final basis set =    -1389.2669708062
        RIMP2         total energy =     -1391.7727987098 a.u.

                    Orbital Energies (a.u.)
 --------------------------------------------------------------

 Alpha MOs
 -- Occupied --
-92.0055 -91.9915 -26.3401 -20.6134 -20.5595 -11.4074 -11.3779 -11.2993
-11.2943 -11.2934 -11.2880 -11.2821 -11.2785 -11.2287  -9.0043  -8.9917
 -6.6851  -6.6845  -6.6840  -6.6727  -6.6720  -6.6709  -1.6573  -1.4658
 -1.3684  -1.2116  -1.1358  -1.0665  -1.0181  -0.9955  -0.9578  -0.9134
 -0.8629  -0.8043  -0.7881  -0.7585  -0.7299  -0.7222  -0.6928  -0.6831
 -0.6726  -0.6601  -0.6126  -0.5946  -0.5883  -0.5819  -0.5618  -0.5590
 -0.5350  -0.5288  -0.5095  -0.4989  -0.4731  -0.4712  -0.4703  -0.4583
 -0.3833  -0.3446  -0.2820

          Ground-State Mulliken Net Atomic Charges

     Atom                 Charge (a.u.)
  ----------------------------------------
      1 C                     0.041089
      2 S                     0.083758
      3 C                    -0.224993
      4 C                    -0.041743
      5 C                    -0.084817
      6 S                    -0.012089
      7 C                    -0.155965
      8 C                     0.388349
      9 F                    -0.208758
     10 C                     0.445470
     11 O                    -0.462291
     12 O                    -0.300740
     13 C                    -0.058497
     14 H                     0.121084
     15 H                     0.094690
     16 H                     0.094679
     17 C                    -0.384320
     18 H                     0.142022
     19 H                     0.166376
     20 H                     0.145043
     21 H                     0.211653
  ----------------------------------------
  Sum of atomic charges =     0.000000

                    Cartesian Multipole Moments
 -----------------------------------------------------------------
    Charge (ESU x 10^10)
                -0.0000
    Dipole Moment (Debye)
         X      -0.1925      Y       0.0889      Z       3.0436
       Tot       3.0509
    Quadrupole Moments (Debye-Ang)
        XX     -95.8752     XY       4.6865     YY     -81.4711
        XZ      -3.1000     YZ      -9.6851     ZZ     -96.8505

 Total job time:  56.28s(wall), 1908.86s(cpu)
        *  Thank you very much for using Q-Chem.  Have a nice day.  *
