 Q-Chem 5.4, Q-Chem, Inc., Pleasanton, CA (2021)
 Q-Chem 5.4.0 for Intel X86 EM64T Linux

User input:
--------------------------------------------------------------
$molecule
0 1
C	-0.437392	-0.893839	0.974891
S	-0.054592	-0.074039	2.482391
C	0.609308	1.351461	1.693791
C	-0.054492	-0.074439	-0.093009
C	0.530908	1.186461	0.288491
S	-0.154792	-0.296439	-1.830609
C	0.580408	1.293461	-2.079609
C	0.877608	1.936461	-0.887709
F	1.438108	3.149961	-0.844209
C	0.771508	1.698761	-3.481209
O	0.453408	0.997661	-4.431609
O	1.335508	2.925861	-3.594309
C	1.549508	3.372361	-4.941309
H	2.008408	4.373161	-4.858209
H	0.590708	3.429561	-5.495309
H	2.223708	2.679661	-5.484409
C	-0.437392	-2.329039	0.974891
H	-1.449692	-2.337039	1.351291
H	-0.725192	-3.006939	0.184991
H	-0.109492	-2.860139	1.856291
H	0.998608	2.189761	2.281391
$end

$rem
JOBTYPE		SP
EXCHANGE	HF
CORRELATION	pRIMP2
BASIS		cc-pvtz
METHOD		rimp2
AUX_BASIS	rimp2-cc-pvtz
SOLVENT_METHOD	PCM
PURECART	11111
SYMMETRY	false
MEM_TOTAL	110000
SCF_CONVERGENCE = 6
THRESH=10
GUI = 2
$end

$solvent
dielectric 4.90
$end
--------------------------------------------------------------

             Standard Nuclear Orientation (Angstroms)
    I     Atom           X                Y                Z
 ----------------------------------------------------------------
    1      C      -0.4373920000    -0.8938390000     0.9748910000
    2      S      -0.0545920000    -0.0740390000     2.4823910000
    3      C       0.6093080000     1.3514610000     1.6937910000
    4      C      -0.0544920000    -0.0744390000    -0.0930090000
    5      C       0.5309080000     1.1864610000     0.2884910000
    6      S      -0.1547920000    -0.2964390000    -1.8306090000
    7      C       0.5804080000     1.2934610000    -2.0796090000
    8      C       0.8776080000     1.9364610000    -0.8877090000
    9      F       1.4381080000     3.1499610000    -0.8442090000
   10      C       0.7715080000     1.6987610000    -3.4812090000
   11      O       0.4534080000     0.9976610000    -4.4316090000
   12      O       1.3355080000     2.9258610000    -3.5943090000
   13      C       1.5495080000     3.3723610000    -4.9413090000
   14      H       2.0084080000     4.3731610000    -4.8582090000
   15      H       0.5907080000     3.4295610000    -5.4953090000
   16      H       2.2237080000     2.6796610000    -5.4844090000
   17      C      -0.4373920000    -2.3290390000     0.9748910000
   18      H      -1.4496920000    -2.3370390000     1.3512910000
   19      H      -0.7251920000    -3.0069390000     0.1849910000
   20      H      -0.1094920000    -2.8601390000     1.8562910000
   21      H       0.9986080000     2.1897610000     2.2813910000
 ----------------------------------------------------------------

   11   -1389.2561421696      4.87e-07  Convergence criterion met
 Total energy in the final basis set =    -1389.2561421696
        RIMP2         total energy =     -1391.7634860821 a.u.

                    Orbital Energies (a.u.)
 --------------------------------------------------------------

 Alpha MOs
 -- Occupied --
-92.0059 -91.9915 -26.3400 -20.6133 -20.5594 -11.4072 -11.3779 -11.2978
-11.2940 -11.2939 -11.2879 -11.2832 -11.2783 -11.2256  -9.0049  -8.9916
 -6.6857  -6.6851  -6.6846  -6.6727  -6.6720  -6.6709  -1.6573  -1.4657
 -1.3682  -1.2120  -1.1367  -1.0653  -1.0187  -0.9947  -0.9580  -0.9126
 -0.8631  -0.8053  -0.7880  -0.7581  -0.7303  -0.7222  -0.6919  -0.6830
 -0.6724  -0.6597  -0.6120  -0.5948  -0.5877  -0.5820  -0.5625  -0.5586
 -0.5315  -0.5262  -0.5117  -0.4968  -0.4721  -0.4717  -0.4708  -0.4582
 -0.3824  -0.3449  -0.2819

          Ground-State Mulliken Net Atomic Charges

     Atom                 Charge (a.u.)
  ----------------------------------------
      1 C                    -0.004760
      2 S                     0.078270
      3 C                    -0.213435
      4 C                    -0.003244
      5 C                    -0.093163
      6 S                    -0.005753
      7 C                    -0.157425
      8 C                     0.391293
      9 F                    -0.208958
     10 C                     0.446705
     11 O                    -0.462274
     12 O                    -0.300908
     13 C                    -0.058546
     14 H                     0.121045
     15 H                     0.094707
     16 H                     0.094676
     17 C                    -0.383242
     18 H                     0.138531
     19 H                     0.165290
     20 H                     0.147365
     21 H                     0.213825
  ----------------------------------------
  Sum of atomic charges =     0.000000

                    Cartesian Multipole Moments
 -----------------------------------------------------------------
    Charge (ESU x 10^10)
                -0.0000
    Dipole Moment (Debye)
         X       0.2481      Y       0.2316      Z       3.4687
       Tot       3.4853
    Quadrupole Moments (Debye-Ang)
        XX     -94.5529     XY       6.1594     YY     -83.1372
        XZ      -4.0210     YZ      -9.8319     ZZ     -95.8489

 Total job time:  58.18s(wall), 1971.64s(cpu)
        *  Thank you very much for using Q-Chem.  Have a nice day.  *
