 Q-Chem 5.4, Q-Chem, Inc., Pleasanton, CA (2021)
 Q-Chem 5.4.0 for Intel X86 EM64T Linux

User input:
--------------------------------------------------------------
$molecule
0 1
C	-0.269199	-0.955820	0.978269
S	-0.034599	-0.082020	2.485769
C	0.371701	1.437180	1.697169
C	-0.034399	-0.082420	-0.089631
C	0.323201	1.260980	0.291869
S	-0.094699	-0.318420	-1.827231
C	0.353401	1.374980	-2.076231
C	0.534301	2.059780	-0.884331
F	0.875601	3.352180	-0.840831
C	0.471101	1.807280	-3.477831
O	0.279601	1.061580	-4.428231
O	0.813501	3.113680	-3.590931
C	0.946601	3.590580	-4.937931
H	1.224901	4.655880	-4.854831
H	-0.007499	3.480480	-5.491931
H	1.730901	3.025480	-5.481031
C	-0.269199	-2.391020	0.978269
H	-0.088999	-2.399020	-0.086531
H	0.558801	-3.068920	1.123969
H	-1.196399	-2.922120	0.821569
H	0.609501	2.330280	2.284769
$end

$rem
JOBTYPE		SP
EXCHANGE	HF
CORRELATION	pRIMP2
BASIS		cc-pvtz
METHOD		rimp2
AUX_BASIS	rimp2-cc-pvtz
SOLVENT_METHOD	PCM
PURECART	11111
SYMMETRY	false
MEM_TOTAL	110000
SCF_CONVERGENCE = 6
THRESH=10
GUI = 2
$end

$solvent
dielectric 4.90
$end
--------------------------------------------------------------

             Standard Nuclear Orientation (Angstroms)
    I     Atom           X                Y                Z
 ----------------------------------------------------------------
    1      C      -0.2691990000    -0.9558200000     0.9782690000
    2      S      -0.0345990000    -0.0820200000     2.4857690000
    3      C       0.3717010000     1.4371800000     1.6971690000
    4      C      -0.0343990000    -0.0824200000    -0.0896310000
    5      C       0.3232010000     1.2609800000     0.2918690000
    6      S      -0.0946990000    -0.3184200000    -1.8272310000
    7      C       0.3534010000     1.3749800000    -2.0762310000
    8      C       0.5343010000     2.0597800000    -0.8843310000
    9      F       0.8756010000     3.3521800000    -0.8408310000
   10      C       0.4711010000     1.8072800000    -3.4778310000
   11      O       0.2796010000     1.0615800000    -4.4282310000
   12      O       0.8135010000     3.1136800000    -3.5909310000
   13      C       0.9466010000     3.5905800000    -4.9379310000
   14      H       1.2249010000     4.6558800000    -4.8548310000
   15      H      -0.0074990000     3.4804800000    -5.4919310000
   16      H       1.7309010000     3.0254800000    -5.4810310000
   17      C      -0.2691990000    -2.3910200000     0.9782690000
   18      H      -0.0889990000    -2.3990200000    -0.0865310000
   19      H       0.5588010000    -3.0689200000     1.1239690000
   20      H      -1.1963990000    -2.9221200000     0.8215690000
   21      H       0.6095010000     2.3302800000     2.2847690000
 ----------------------------------------------------------------

   11   -1389.2681856460      4.60e-07  Convergence criterion met
 Total energy in the final basis set =    -1389.2681856460
        RIMP2         total energy =     -1391.7751003686 a.u.

                    Orbital Energies (a.u.)
 --------------------------------------------------------------

 Alpha MOs
 -- Occupied --
-92.0029 -91.9945 -26.3415 -20.6138 -20.5598 -11.4078 -11.3801 -11.3014
-11.2947 -11.2926 -11.2907 -11.2883 -11.2790 -11.2254  -9.0020  -8.9947
 -6.6828  -6.6821  -6.6818  -6.6757  -6.6750  -6.6739  -1.6586  -1.4661
 -1.3688  -1.2141  -1.1356  -1.0682  -1.0190  -0.9945  -0.9584  -0.9139
 -0.8637  -0.8055  -0.7892  -0.7594  -0.7301  -0.7234  -0.6947  -0.6835
 -0.6730  -0.6612  -0.6063  -0.6049  -0.5918  -0.5838  -0.5659  -0.5566
 -0.5374  -0.5302  -0.5073  -0.4871  -0.4735  -0.4719  -0.4647  -0.4513
 -0.3924  -0.3446  -0.2928

          Ground-State Mulliken Net Atomic Charges

     Atom                 Charge (a.u.)
  ----------------------------------------
      1 C                     0.026589
      2 S                     0.075602
      3 C                    -0.200254
      4 C                    -0.017986
      5 C                    -0.094850
      6 S                    -0.006524
      7 C                    -0.157645
      8 C                     0.390314
      9 F                    -0.207481
     10 C                     0.444987
     11 O                    -0.462951
     12 O                    -0.301088
     13 C                    -0.058495
     14 H                     0.121139
     15 H                     0.094801
     16 H                     0.094701
     17 C                    -0.359553
     18 H                     0.114154
     19 H                     0.155200
     20 H                     0.136612
     21 H                     0.212729
  ----------------------------------------
  Sum of atomic charges =     0.000000

                    Cartesian Multipole Moments
 -----------------------------------------------------------------
    Charge (ESU x 10^10)
                -0.0000
    Dipole Moment (Debye)
         X       0.7049      Y       0.6558      Z       2.5560
       Tot       2.7314
    Quadrupole Moments (Debye-Ang)
        XX     -95.6007     XY       2.4645     YY     -82.0311
        XZ      -1.7164     YZ      -8.0619     ZZ     -98.0298

 Total job time:  59.14s(wall), 2033.53s(cpu)
        *  Thank you very much for using Q-Chem.  Have a nice day.  *
