 Q-Chem 5.4, Q-Chem, Inc., Pleasanton, CA (2021)
 Q-Chem 5.4.0 for Intel X86 EM64T Linux

User input:
--------------------------------------------------------------
$molecule
0 1
C	-0.670826	-0.747937	0.976939
S	-0.088926	-0.055137	2.484439
C	0.921374	1.149963	1.695839
C	-0.088926	-0.055537	-0.090961
C	0.802874	1.010863	0.290539
S	-0.243226	-0.244037	-1.828561
C	0.878474	1.101463	-2.077561
C	1.331874	1.645563	-0.885661
F	2.187374	2.672563	-0.842161
C	1.167874	1.443363	-3.479161
O	0.679174	0.848563	-4.429561
O	2.030274	2.482763	-3.592261
C	2.352474	2.858663	-4.939261
H	3.054874	3.706563	-4.856161
H	1.441274	3.162063	-5.493261
H	2.824474	2.015063	-5.482361
C	-0.670826	-2.183137	0.976939
H	0.341474	-2.191137	0.600539
H	-0.383026	-2.861037	1.766839
H	-0.998726	-2.714237	0.095539
H	1.514374	1.858863	2.283439
$end

$rem
JOBTYPE		SP
EXCHANGE	HF
CORRELATION	pRIMP2
BASIS		cc-pvtz
METHOD		rimp2
AUX_BASIS	rimp2-cc-pvtz
SOLVENT_METHOD	PCM
PURECART	11111
SYMMETRY	false
MEM_TOTAL	110000
SCF_CONVERGENCE = 6
THRESH=10
GUI = 2
$end

$solvent
dielectric 4.90
$end
--------------------------------------------------------------

             Standard Nuclear Orientation (Angstroms)
    I     Atom           X                Y                Z
 ----------------------------------------------------------------
    1      C      -0.6708260000    -0.7479370000     0.9769390000
    2      S      -0.0889260000    -0.0551370000     2.4844390000
    3      C       0.9213740000     1.1499630000     1.6958390000
    4      C      -0.0889260000    -0.0555370000    -0.0909610000
    5      C       0.8028740000     1.0108630000     0.2905390000
    6      S      -0.2432260000    -0.2440370000    -1.8285610000
    7      C       0.8784740000     1.1014630000    -2.0775610000
    8      C       1.3318740000     1.6455630000    -0.8856610000
    9      F       2.1873740000     2.6725630000    -0.8421610000
   10      C       1.1678740000     1.4433630000    -3.4791610000
   11      O       0.6791740000     0.8485630000    -4.4295610000
   12      O       2.0302740000     2.4827630000    -3.5922610000
   13      C       2.3524740000     2.8586630000    -4.9392610000
   14      H       3.0548740000     3.7065630000    -4.8561610000
   15      H       1.4412740000     3.1620630000    -5.4932610000
   16      H       2.8244740000     2.0150630000    -5.4823610000
   17      C      -0.6708260000    -2.1831370000     0.9769390000
   18      H       0.3414740000    -2.1911370000     0.6005390000
   19      H      -0.3830260000    -2.8610370000     1.7668390000
   20      H      -0.9987260000    -2.7142370000     0.0955390000
   21      H       1.5143740000     1.8588630000     2.2834390000
 ----------------------------------------------------------------

   11   -1389.2403967335      4.99e-07  Convergence criterion met
 Total energy in the final basis set =    -1389.2403967335
        RIMP2         total energy =     -1391.7528955816 a.u.

                    Orbital Energies (a.u.)
 --------------------------------------------------------------

 Alpha MOs
 -- Occupied --
-92.0059 -91.9959 -26.3414 -20.6139 -20.5600 -11.4081 -11.3797 -11.3013
-11.2950 -11.2908 -11.2884 -11.2864 -11.2805 -11.2259  -9.0050  -8.9958
 -6.6857  -6.6850  -6.6846  -6.6768  -6.6761  -6.6751  -1.6586  -1.4663
 -1.3689  -1.2164  -1.1401  -1.0687  -1.0196  -0.9926  -0.9589  -0.9091
 -0.8643  -0.8061  -0.7895  -0.7594  -0.7310  -0.7235  -0.6944  -0.6837
 -0.6731  -0.6606  -0.6114  -0.5964  -0.5955  -0.5798  -0.5630  -0.5618
 -0.5308  -0.5229  -0.5099  -0.4996  -0.4730  -0.4721  -0.4709  -0.4592
 -0.3817  -0.3441  -0.2833

          Ground-State Mulliken Net Atomic Charges

     Atom                 Charge (a.u.)
  ----------------------------------------
      1 C                    -0.017483
      2 S                     0.090765
      3 C                    -0.210471
      4 C                    -0.007912
      5 C                    -0.088380
      6 S                     0.005743
      7 C                    -0.152722
      8 C                     0.388512
      9 F                    -0.207878
     10 C                     0.448032
     11 O                    -0.462379
     12 O                    -0.301028
     13 C                    -0.058444
     14 H                     0.121148
     15 H                     0.094973
     16 H                     0.094643
     17 C                    -0.385642
     18 H                     0.137062
     19 H                     0.162622
     20 H                     0.136350
     21 H                     0.212492
  ----------------------------------------
  Sum of atomic charges =     0.000000

                    Cartesian Multipole Moments
 -----------------------------------------------------------------
    Charge (ESU x 10^10)
                -0.0000
    Dipole Moment (Debye)
         X       2.1164      Y       0.1924      Z       2.8899
       Tot       3.5872
    Quadrupole Moments (Debye-Ang)
        XX     -93.6973     XY       4.4324     YY     -86.3920
        XZ      -4.3264     YZ      -7.5545     ZZ     -96.2915

 Total job time:  63.99s(wall), 2224.31s(cpu)
        *  Thank you very much for using Q-Chem.  Have a nice day.  *
