 Q-Chem 5.4, Q-Chem, Inc., Pleasanton, CA (2021)
 Q-Chem 5.4.0 for Intel X86 EM64T Linux

User input:
--------------------------------------------------------------
$molecule
0 1
C	-0.670649	-0.747937	0.974584
S	-0.088749	-0.055137	2.482084
C	0.921551	1.149963	1.693484
C	-0.088749	-0.055537	-0.093316
C	0.803051	1.010863	0.288184
S	-0.243049	-0.244037	-1.830916
C	0.878651	1.101463	-2.079916
C	1.332051	1.645563	-0.888016
F	2.187551	2.672563	-0.844516
C	1.168051	1.443363	-3.481516
O	0.679351	0.848563	-4.431916
O	2.030451	2.482763	-3.594616
C	2.352651	2.858663	-4.941616
H	3.055051	3.706563	-4.858516
H	1.441451	3.162063	-5.495616
H	2.824651	2.015063	-5.484716
C	-0.670649	-2.183137	0.974584
H	0.161451	-2.191137	1.663084
H	-1.210849	-2.861037	1.618784
H	-0.071349	-2.714237	0.249984
H	1.514551	1.858863	2.281084
$end

$rem
JOBTYPE		SP
EXCHANGE	HF
CORRELATION	pRIMP2
BASIS		cc-pvtz
METHOD		rimp2
AUX_BASIS	rimp2-cc-pvtz
SOLVENT_METHOD	PCM
PURECART	11111
SYMMETRY	false
MEM_TOTAL	110000
SCF_CONVERGENCE = 6
THRESH=10
GUI = 2
$end

$solvent
dielectric 4.90
$end
--------------------------------------------------------------

             Standard Nuclear Orientation (Angstroms)
    I     Atom           X                Y                Z
 ----------------------------------------------------------------
    1      C      -0.6706490000    -0.7479370000     0.9745840000
    2      S      -0.0887490000    -0.0551370000     2.4820840000
    3      C       0.9215510000     1.1499630000     1.6934840000
    4      C      -0.0887490000    -0.0555370000    -0.0933160000
    5      C       0.8030510000     1.0108630000     0.2881840000
    6      S      -0.2430490000    -0.2440370000    -1.8309160000
    7      C       0.8786510000     1.1014630000    -2.0799160000
    8      C       1.3320510000     1.6455630000    -0.8880160000
    9      F       2.1875510000     2.6725630000    -0.8445160000
   10      C       1.1680510000     1.4433630000    -3.4815160000
   11      O       0.6793510000     0.8485630000    -4.4319160000
   12      O       2.0304510000     2.4827630000    -3.5946160000
   13      C       2.3526510000     2.8586630000    -4.9416160000
   14      H       3.0550510000     3.7065630000    -4.8585160000
   15      H       1.4414510000     3.1620630000    -5.4956160000
   16      H       2.8246510000     2.0150630000    -5.4847160000
   17      C      -0.6706490000    -2.1831370000     0.9745840000
   18      H       0.1614510000    -2.1911370000     1.6630840000
   19      H      -1.2108490000    -2.8610370000     1.6187840000
   20      H      -0.0713490000    -2.7142370000     0.2499840000
   21      H       1.5145510000     1.8588630000     2.2810840000
 ----------------------------------------------------------------

   11   -1389.2386002855      5.53e-07  Convergence criterion met
 Total energy in the final basis set =    -1389.2386002855
        RIMP2         total energy =     -1391.7487743837 a.u.

                    Orbital Energies (a.u.)
 --------------------------------------------------------------

 Alpha MOs
 -- Occupied --
-92.0007 -91.9945 -26.3416 -20.6136 -20.5598 -11.4077 -11.3803 -11.3081
-11.2943 -11.2919 -11.2883 -11.2858 -11.2796 -11.2222  -9.0008  -8.9946
 -6.6816  -6.6808  -6.6804  -6.6756  -6.6749  -6.6738  -1.6588  -1.4661
 -1.3687  -1.2166  -1.1409  -1.0671  -1.0207  -0.9921  -0.9594  -0.9085
 -0.8647  -0.8082  -0.7894  -0.7589  -0.7324  -0.7236  -0.6936  -0.6835
 -0.6729  -0.6606  -0.6112  -0.6019  -0.5936  -0.5712  -0.5640  -0.5547
 -0.5351  -0.5295  -0.5130  -0.4959  -0.4747  -0.4718  -0.4710  -0.4469
 -0.3851  -0.3465  -0.2854

          Ground-State Mulliken Net Atomic Charges

     Atom                 Charge (a.u.)
  ----------------------------------------
      1 C                     0.005372
      2 S                     0.073223
      3 C                    -0.185842
      4 C                    -0.032311
      5 C                    -0.087549
      6 S                     0.009741
      7 C                    -0.155024
      8 C                     0.388955
      9 F                    -0.207595
     10 C                     0.446387
     11 O                    -0.462535
     12 O                    -0.301241
     13 C                    -0.058479
     14 H                     0.121041
     15 H                     0.094940
     16 H                     0.094613
     17 C                    -0.381373
     18 H                     0.133491
     19 H                     0.146633
     20 H                     0.143984
     21 H                     0.213569
  ----------------------------------------
  Sum of atomic charges =     0.000000

                    Cartesian Multipole Moments
 -----------------------------------------------------------------
    Charge (ESU x 10^10)
                -0.0000
    Dipole Moment (Debye)
         X       2.2441      Y       0.4328      Z       3.4643
       Tot       4.1503
    Quadrupole Moments (Debye-Ang)
        XX     -93.3229     XY       4.5653     YY     -86.6410
        XZ      -4.9283     YZ      -8.5807     ZZ     -95.5345

 Total job time:  67.46s(wall), 2553.62s(cpu)
        *  Thank you very much for using Q-Chem.  Have a nice day.  *
