 Q-Chem 5.4, Q-Chem, Inc., Pleasanton, CA (2021)
 Q-Chem 5.4.0 for Intel X86 EM64T Linux

User input:
--------------------------------------------------------------
$molecule
0 1
C	-0.667726	-0.747937	0.973763
S	-0.085826	-0.055137	2.481263
C	0.924474	1.149963	1.692663
C	-0.085826	-0.055537	-0.094137
C	0.805974	1.010863	0.287363
S	-0.240126	-0.244037	-1.831737
C	0.881574	1.101463	-2.080737
C	1.334974	1.645563	-0.888837
F	2.190474	2.672563	-0.845337
C	1.170974	1.443363	-3.482337
O	0.682274	0.848563	-4.432737
O	2.033374	2.482763	-3.595437
C	2.355574	2.858663	-4.942437
H	3.057974	3.706563	-4.859337
H	1.444374	3.162063	-5.496437
H	2.827574	2.015063	-5.485537
C	-0.667726	-2.183137	0.973763
H	-1.201226	-2.191137	1.912763
H	-1.395926	-2.861037	0.553663
H	0.149974	-2.714237	1.438163
H	1.517474	1.858863	2.280263
$end

$rem
JOBTYPE		SP
EXCHANGE	HF
CORRELATION	pRIMP2
BASIS		cc-pvtz
METHOD		rimp2
AUX_BASIS	rimp2-cc-pvtz
SOLVENT_METHOD	PCM
PURECART	11111
SYMMETRY	false
MEM_TOTAL	110000
SCF_CONVERGENCE = 6
THRESH=10
GUI = 2
$end

$solvent
dielectric 4.90
$end
--------------------------------------------------------------

             Standard Nuclear Orientation (Angstroms)
    I     Atom           X                Y                Z
 ----------------------------------------------------------------
    1      C      -0.6677260000    -0.7479370000     0.9737630000
    2      S      -0.0858260000    -0.0551370000     2.4812630000
    3      C       0.9244740000     1.1499630000     1.6926630000
    4      C      -0.0858260000    -0.0555370000    -0.0941370000
    5      C       0.8059740000     1.0108630000     0.2873630000
    6      S      -0.2401260000    -0.2440370000    -1.8317370000
    7      C       0.8815740000     1.1014630000    -2.0807370000
    8      C       1.3349740000     1.6455630000    -0.8888370000
    9      F       2.1904740000     2.6725630000    -0.8453370000
   10      C       1.1709740000     1.4433630000    -3.4823370000
   11      O       0.6822740000     0.8485630000    -4.4327370000
   12      O       2.0333740000     2.4827630000    -3.5954370000
   13      C       2.3555740000     2.8586630000    -4.9424370000
   14      H       3.0579740000     3.7065630000    -4.8593370000
   15      H       1.4443740000     3.1620630000    -5.4964370000
   16      H       2.8275740000     2.0150630000    -5.4855370000
   17      C      -0.6677260000    -2.1831370000     0.9737630000
   18      H      -1.2012260000    -2.1911370000     1.9127630000
   19      H      -1.3959260000    -2.8610370000     0.5536630000
   20      H       0.1499740000    -2.7142370000     1.4381630000
   21      H       1.5174740000     1.8588630000     2.2802630000
 ----------------------------------------------------------------

   11   -1389.2397394676      4.66e-07  Convergence criterion met
 Total energy in the final basis set =    -1389.2397394676
        RIMP2         total energy =     -1391.7506835346 a.u.

                    Orbital Energies (a.u.)
 --------------------------------------------------------------

 Alpha MOs
 -- Occupied --
-92.0065 -91.9964 -26.3415 -20.6136 -20.5596 -11.4077 -11.3802 -11.3111
-11.2942 -11.2927 -11.2882 -11.2795 -11.2765 -11.2199  -9.0057  -8.9964
 -6.6864  -6.6857  -6.6853  -6.6774  -6.6767  -6.6756  -1.6588  -1.4660
 -1.3687  -1.2158  -1.1393  -1.0652  -1.0212  -0.9927  -0.9596  -0.9100
 -0.8650  -0.8085  -0.7894  -0.7587  -0.7318  -0.7236  -0.6927  -0.6834
 -0.6729  -0.6605  -0.6095  -0.6001  -0.5909  -0.5789  -0.5646  -0.5599
 -0.5305  -0.5270  -0.5091  -0.4812  -0.4729  -0.4718  -0.4634  -0.4609
 -0.3865  -0.3443  -0.2929

          Ground-State Mulliken Net Atomic Charges

     Atom                 Charge (a.u.)
  ----------------------------------------
      1 C                    -0.062886
      2 S                     0.085050
      3 C                    -0.180687
      4 C                     0.032806
      5 C                    -0.097631
      6 S                     0.015287
      7 C                    -0.159443
      8 C                     0.392716
      9 F                    -0.207843
     10 C                     0.446652
     11 O                    -0.463040
     12 O                    -0.301280
     13 C                    -0.058467
     14 H                     0.121029
     15 H                     0.094881
     16 H                     0.094692
     17 C                    -0.364236
     18 H                     0.109778
     19 H                     0.150770
     20 H                     0.136790
     21 H                     0.215064
  ----------------------------------------
  Sum of atomic charges =     0.000000

                    Cartesian Multipole Moments
 -----------------------------------------------------------------
    Charge (ESU x 10^10)
                -0.0000
    Dipole Moment (Debye)
         X       1.5765      Y       0.7780      Z       3.5188
       Tot       3.9335
    Quadrupole Moments (Debye-Ang)
        XX     -92.0838     XY       6.4628     YY     -86.9303
        XZ      -4.9490     YZ      -8.0992     ZZ     -95.2129

 Total job time:  56.61s(wall), 1996.71s(cpu)
        *  Thank you very much for using Q-Chem.  Have a nice day.  *
