 Q-Chem 5.4, Q-Chem, Inc., Pleasanton, CA (2021)
 Q-Chem 5.4.0 for Intel X86 EM64T Linux

User input:
--------------------------------------------------------------
$molecule
0 1
C	-0.268383	-0.955820	0.978188
S	-0.033783	-0.082020	2.485688
C	0.372517	1.437180	1.697088
C	-0.033583	-0.082420	-0.089712
C	0.324017	1.260980	0.291788
S	-0.093883	-0.318420	-1.827312
C	0.354217	1.374980	-2.076312
C	0.535117	2.059780	-0.884412
F	0.876417	3.352180	-0.840912
C	0.471917	1.807280	-3.477912
O	0.280417	1.061580	-4.428312
O	0.814317	3.113680	-3.591012
C	0.947417	3.590580	-4.938012
H	1.225717	4.655880	-4.854912
H	-0.006683	3.480480	-5.492012
H	1.731717	3.025480	-5.481112
C	-0.268383	-2.391020	0.978188
H	-0.463283	-2.399020	-0.084012
H	0.559517	-3.068920	0.831888
H	-1.193283	-2.922120	1.147988
H	0.610317	2.330280	2.284688
$end

$rem
JOBTYPE		SP
EXCHANGE	HF
CORRELATION	pRIMP2
BASIS		cc-pvtz
METHOD		rimp2
AUX_BASIS	rimp2-cc-pvtz
SOLVENT_METHOD	PCM
PURECART	11111
SYMMETRY	false
MEM_TOTAL	110000
SCF_CONVERGENCE = 6
THRESH=10
GUI = 2
$end

$solvent
dielectric 4.90
$end
--------------------------------------------------------------

             Standard Nuclear Orientation (Angstroms)
    I     Atom           X                Y                Z
 ----------------------------------------------------------------
    1      C      -0.2683830000    -0.9558200000     0.9781880000
    2      S      -0.0337830000    -0.0820200000     2.4856880000
    3      C       0.3725170000     1.4371800000     1.6970880000
    4      C      -0.0335830000    -0.0824200000    -0.0897120000
    5      C       0.3240170000     1.2609800000     0.2917880000
    6      S      -0.0938830000    -0.3184200000    -1.8273120000
    7      C       0.3542170000     1.3749800000    -2.0763120000
    8      C       0.5351170000     2.0597800000    -0.8844120000
    9      F       0.8764170000     3.3521800000    -0.8409120000
   10      C       0.4719170000     1.8072800000    -3.4779120000
   11      O       0.2804170000     1.0615800000    -4.4283120000
   12      O       0.8143170000     3.1136800000    -3.5910120000
   13      C       0.9474170000     3.5905800000    -4.9380120000
   14      H       1.2257170000     4.6558800000    -4.8549120000
   15      H      -0.0066830000     3.4804800000    -5.4920120000
   16      H       1.7317170000     3.0254800000    -5.4811120000
   17      C      -0.2683830000    -2.3910200000     0.9781880000
   18      H      -0.4632830000    -2.3990200000    -0.0840120000
   19      H       0.5595170000    -3.0689200000     0.8318880000
   20      H      -1.1932830000    -2.9221200000     1.1479880000
   21      H       0.6103170000     2.3302800000     2.2846880000
 ----------------------------------------------------------------

   11   -1389.2688166821      4.57e-07  Convergence criterion met
 Total energy in the final basis set =    -1389.2688166821
        RIMP2         total energy =     -1391.7755739415 a.u.

                    Orbital Energies (a.u.)
 --------------------------------------------------------------

 Alpha MOs
 -- Occupied --
-92.0024 -91.9944 -26.3415 -20.6137 -20.5598 -11.4078 -11.3801 -11.3020
-11.2947 -11.2922 -11.2910 -11.2883 -11.2790 -11.2256  -9.0016  -8.9946
 -6.6824  -6.6817  -6.6813  -6.6757  -6.6750  -6.6738  -1.6586  -1.4661
 -1.3687  -1.2141  -1.1355  -1.0680  -1.0190  -0.9947  -0.9584  -0.9142
 -0.8637  -0.8056  -0.7892  -0.7594  -0.7301  -0.7234  -0.6948  -0.6835
 -0.6730  -0.6613  -0.6086  -0.6027  -0.5918  -0.5825  -0.5658  -0.5559
 -0.5389  -0.5302  -0.5073  -0.4874  -0.4736  -0.4719  -0.4654  -0.4497
 -0.3931  -0.3449  -0.2927

          Ground-State Mulliken Net Atomic Charges

     Atom                 Charge (a.u.)
  ----------------------------------------
      1 C                     0.027064
      2 S                     0.075384
      3 C                    -0.199720
      4 C                    -0.021625
      5 C                    -0.093349
      6 S                    -0.006623
      7 C                    -0.157522
      8 C                     0.390701
      9 F                    -0.207491
     10 C                     0.445150
     11 O                    -0.462914
     12 O                    -0.301074
     13 C                    -0.058493
     14 H                     0.121135
     15 H                     0.094791
     16 H                     0.094705
     17 C                    -0.354755
     18 H                     0.110648
     19 H                     0.150044
     20 H                     0.140965
     21 H                     0.212980
  ----------------------------------------
  Sum of atomic charges =     0.000000

                    Cartesian Multipole Moments
 -----------------------------------------------------------------
    Charge (ESU x 10^10)
                -0.0000
    Dipole Moment (Debye)
         X       0.4842      Y       0.6771      Z       2.5501
       Tot       2.6825
    Quadrupole Moments (Debye-Ang)
        XX     -95.4759     XY       3.1189     YY     -82.0068
        XZ      -2.1704     YZ      -7.9847     ZZ     -98.0578

 Total job time:  61.14s(wall), 1926.55s(cpu)
        *  Thank you very much for using Q-Chem.  Have a nice day.  *
