 Q-Chem 5.4, Q-Chem, Inc., Pleasanton, CA (2021)
 Q-Chem 5.4.0 for Intel X86 EM64T Linux

User input:
--------------------------------------------------------------
$molecule
0 1
C	-0.666410	-0.747937	0.976498
S	-0.084510	-0.055137	2.483998
C	0.925790	1.149963	1.695398
C	-0.084510	-0.055537	-0.091402
C	0.807290	1.010863	0.290098
S	-0.238810	-0.244037	-1.829002
C	0.882890	1.101463	-2.078002
C	1.336290	1.645563	-0.886102
F	2.191790	2.672563	-0.842602
C	1.172290	1.443363	-3.479602
O	0.683590	0.848563	-4.430002
O	2.034690	2.482763	-3.592702
C	2.356890	2.858663	-4.939702
H	3.059290	3.706563	-4.856602
H	1.445690	3.162063	-5.493702
H	2.828890	2.015063	-5.482802
C	-0.666410	-2.183137	0.976498
H	-1.683810	-2.191137	0.614098
H	-0.379110	-2.861037	0.186398
H	-0.981810	-2.714237	1.862398
H	1.518790	1.858863	2.282998
$end

$rem
JOBTYPE		SP
EXCHANGE	HF
CORRELATION	pRIMP2
BASIS		cc-pvtz
METHOD		rimp2
AUX_BASIS	rimp2-cc-pvtz
SOLVENT_METHOD	PCM
PURECART	11111
SYMMETRY	false
MEM_TOTAL	110000
SCF_CONVERGENCE = 6
THRESH=10
GUI = 2
$end

$solvent
dielectric 4.90
$end
--------------------------------------------------------------

             Standard Nuclear Orientation (Angstroms)
    I     Atom           X                Y                Z
 ----------------------------------------------------------------
    1      C      -0.6664100000    -0.7479370000     0.9764980000
    2      S      -0.0845100000    -0.0551370000     2.4839980000
    3      C       0.9257900000     1.1499630000     1.6953980000
    4      C      -0.0845100000    -0.0555370000    -0.0914020000
    5      C       0.8072900000     1.0108630000     0.2900980000
    6      S      -0.2388100000    -0.2440370000    -1.8290020000
    7      C       0.8828900000     1.1014630000    -2.0780020000
    8      C       1.3362900000     1.6455630000    -0.8861020000
    9      F       2.1917900000     2.6725630000    -0.8426020000
   10      C       1.1722900000     1.4433630000    -3.4796020000
   11      O       0.6835900000     0.8485630000    -4.4300020000
   12      O       2.0346900000     2.4827630000    -3.5927020000
   13      C       2.3568900000     2.8586630000    -4.9397020000
   14      H       3.0592900000     3.7065630000    -4.8566020000
   15      H       1.4456900000     3.1620630000    -5.4937020000
   16      H       2.8288900000     2.0150630000    -5.4828020000
   17      C      -0.6664100000    -2.1831370000     0.9764980000
   18      H      -1.6838100000    -2.1911370000     0.6140980000
   19      H      -0.3791100000    -2.8610370000     0.1863980000
   20      H      -0.9818100000    -2.7142370000     1.8623980000
   21      H       1.5187900000     1.8588630000     2.2829980000
 ----------------------------------------------------------------

   11   -1389.2353508991      4.68e-07  Convergence criterion met
 Total energy in the final basis set =    -1389.2353508991
        RIMP2         total energy =     -1391.7481332856 a.u.

                    Orbital Energies (a.u.)
 --------------------------------------------------------------

 Alpha MOs
 -- Occupied --
-92.0020 -91.9964 -26.3415 -20.6137 -20.5597 -11.4078 -11.3802 -11.3055
-11.2943 -11.2923 -11.2883 -11.2816 -11.2795 -11.2200  -9.0014  -8.9964
 -6.6822  -6.6813  -6.6810  -6.6774  -6.6767  -6.6756  -1.6587  -1.4661
 -1.3687  -1.2151  -1.1374  -1.0662  -1.0195  -0.9932  -0.9586  -0.9116
 -0.8641  -0.8065  -0.7893  -0.7592  -0.7301  -0.7235  -0.6941  -0.6835
 -0.6729  -0.6603  -0.6121  -0.5954  -0.5910  -0.5752  -0.5625  -0.5585
 -0.5335  -0.5280  -0.5061  -0.4993  -0.4749  -0.4718  -0.4708  -0.4499
 -0.3792  -0.3444  -0.2842

          Ground-State Mulliken Net Atomic Charges

     Atom                 Charge (a.u.)
  ----------------------------------------
      1 C                    -0.026868
      2 S                     0.087096
      3 C                    -0.191996
      4 C                    -0.009077
      5 C                    -0.088001
      6 S                     0.009999
      7 C                    -0.156916
      8 C                     0.390705
      9 F                    -0.207382
     10 C                     0.447187
     11 O                    -0.463174
     12 O                    -0.301197
     13 C                    -0.058445
     14 H                     0.121104
     15 H                     0.094847
     16 H                     0.094658
     17 C                    -0.392710
     18 H                     0.136899
     19 H                     0.159730
     20 H                     0.141676
     21 H                     0.211865
  ----------------------------------------
  Sum of atomic charges =     0.000000

                    Cartesian Multipole Moments
 -----------------------------------------------------------------
    Charge (ESU x 10^10)
                -0.0000
    Dipole Moment (Debye)
         X       1.0512      Y       0.4420      Z       2.8434
       Tot       3.0636
    Quadrupole Moments (Debye-Ang)
        XX     -92.0433     XY       7.1490     YY     -86.6568
        XZ      -5.6951     YZ      -7.0570     ZZ     -96.4759

 Total job time:  59.02s(wall), 1945.03s(cpu)
        *  Thank you very much for using Q-Chem.  Have a nice day.  *
