 Q-Chem 5.4, Q-Chem, Inc., Pleasanton, CA (2021)
 Q-Chem 5.4.0 for Intel X86 EM64T Linux

User input:
--------------------------------------------------------------
$molecule
0 1
C	-0.670347	-0.747937	0.977605
S	-0.088447	-0.055137	2.485105
C	0.921853	1.149963	1.696505
C	-0.088447	-0.055537	-0.090295
C	0.803353	1.010863	0.291205
S	-0.242747	-0.244037	-1.827895
C	0.878953	1.101463	-2.076895
C	1.332353	1.645563	-0.884995
F	2.187853	2.672563	-0.841495
C	1.168353	1.443363	-3.478495
O	0.679653	0.848563	-4.428895
O	2.030753	2.482763	-3.591595
C	2.352953	2.858663	-4.938595
H	3.055353	3.706563	-4.855495
H	1.441753	3.162063	-5.492595
H	2.824953	2.015063	-5.481695
C	-0.670347	-2.183137	0.977605
H	0.152153	-2.191137	0.277705
H	-0.129747	-2.861037	1.621505
H	-1.279947	-2.714237	0.261505
H	1.514853	1.858863	2.284105
$end

$rem
JOBTYPE		SP
EXCHANGE	HF
CORRELATION	pRIMP2
BASIS		cc-pvtz
METHOD		rimp2
AUX_BASIS	rimp2-cc-pvtz
SOLVENT_METHOD	PCM
PURECART	11111
SYMMETRY	false
MEM_TOTAL	110000
SCF_CONVERGENCE = 6
THRESH=10
GUI = 2
$end

$solvent
dielectric 4.90
$end
--------------------------------------------------------------

             Standard Nuclear Orientation (Angstroms)
    I     Atom           X                Y                Z
 ----------------------------------------------------------------
    1      C      -0.6703470000    -0.7479370000     0.9776050000
    2      S      -0.0884470000    -0.0551370000     2.4851050000
    3      C       0.9218530000     1.1499630000     1.6965050000
    4      C      -0.0884470000    -0.0555370000    -0.0902950000
    5      C       0.8033530000     1.0108630000     0.2912050000
    6      S      -0.2427470000    -0.2440370000    -1.8278950000
    7      C       0.8789530000     1.1014630000    -2.0768950000
    8      C       1.3323530000     1.6455630000    -0.8849950000
    9      F       2.1878530000     2.6725630000    -0.8414950000
   10      C       1.1683530000     1.4433630000    -3.4784950000
   11      O       0.6796530000     0.8485630000    -4.4288950000
   12      O       2.0307530000     2.4827630000    -3.5915950000
   13      C       2.3529530000     2.8586630000    -4.9385950000
   14      H       3.0553530000     3.7065630000    -4.8554950000
   15      H       1.4417530000     3.1620630000    -5.4925950000
   16      H       2.8249530000     2.0150630000    -5.4816950000
   17      C      -0.6703470000    -2.1831370000     0.9776050000
   18      H       0.1521530000    -2.1911370000     0.2777050000
   19      H      -0.1297470000    -2.8610370000     1.6215050000
   20      H      -1.2799470000    -2.7142370000     0.2615050000
   21      H       1.5148530000     1.8588630000     2.2841050000
 ----------------------------------------------------------------

   11   -1389.2368984661      4.89e-07  Convergence criterion met
 Total energy in the final basis set =    -1389.2368984661
        RIMP2         total energy =     -1391.7505144806 a.u.

                    Orbital Energies (a.u.)
 --------------------------------------------------------------

 Alpha MOs
 -- Occupied --
-92.0062 -91.9976 -26.3419 -20.6140 -20.5600 -11.4081 -11.3807 -11.3037
-11.2948 -11.2894 -11.2885 -11.2862 -11.2802 -11.2220  -9.0052  -8.9975
 -6.6859  -6.6852  -6.6849  -6.6785  -6.6778  -6.6767  -1.6591  -1.4664
 -1.3690  -1.2168  -1.1395  -1.0690  -1.0198  -0.9923  -0.9591  -0.9093
 -0.8645  -0.8064  -0.7899  -0.7597  -0.7305  -0.7239  -0.6951  -0.6838
 -0.6732  -0.6609  -0.6095  -0.5980  -0.5936  -0.5844  -0.5638  -0.5616
 -0.5306  -0.5236  -0.5093  -0.4919  -0.4734  -0.4721  -0.4682  -0.4593
 -0.3821  -0.3425  -0.2880

          Ground-State Mulliken Net Atomic Charges

     Atom                 Charge (a.u.)
  ----------------------------------------
      1 C                    -0.029506
      2 S                     0.091885
      3 C                    -0.200916
      4 C                     0.001830
      5 C                    -0.091480
      6 S                     0.011272
      7 C                    -0.154150
      8 C                     0.387792
      9 F                    -0.207287
     10 C                     0.448106
     11 O                    -0.462983
     12 O                    -0.301182
     13 C                    -0.058409
     14 H                     0.121154
     15 H                     0.094954
     16 H                     0.094646
     17 C                    -0.385077
     18 H                     0.130355
     19 H                     0.162618
     20 H                     0.133884
     21 H                     0.212493
  ----------------------------------------
  Sum of atomic charges =     0.000000

                    Cartesian Multipole Moments
 -----------------------------------------------------------------
    Charge (ESU x 10^10)
                -0.0000
    Dipole Moment (Debye)
         X       2.1212      Y       0.4200      Z       2.6944
       Tot       3.4548
    Quadrupole Moments (Debye-Ang)
        XX     -93.3398     XY       4.4284     YY     -86.7933
        XZ      -4.0234     YZ      -6.8934     ZZ     -96.6450

 Total job time:  58.84s(wall), 2018.85s(cpu)
        *  Thank you very much for using Q-Chem.  Have a nice day.  *
