 Q-Chem 5.4, Q-Chem, Inc., Pleasanton, CA (2021)
 Q-Chem 5.4.0 for Intel X86 EM64T Linux

User input:
--------------------------------------------------------------
$molecule
0 1
C	-0.088004	-0.987267	0.975680
S	-0.008704	-0.085967	2.483180
C	0.127596	1.480633	1.694580
C	-0.008404	-0.086367	-0.092220
C	0.110396	1.298733	0.289280
S	-0.026804	-0.329267	-1.829820
C	0.120296	1.416233	-2.078820
C	0.179596	2.122133	-0.886920
F	0.291296	3.454033	-0.843420
C	0.161296	1.862433	-3.480420
O	0.102096	1.094833	-4.430820
O	0.271496	3.208433	-3.593520
C	0.319896	3.701233	-4.940520
H	0.408896	4.798633	-4.857420
H	-0.600604	3.427033	-5.494520
H	1.190396	3.280833	-5.483620
C	-0.088004	-2.422467	0.975680
H	-1.167904	-2.430467	0.983080
H	-0.088304	-3.100367	0.134980
H	-0.081304	-2.953567	1.916080
H	0.206796	2.401533	2.282180
$end

$rem
JOBTYPE		SP
EXCHANGE	HF
CORRELATION	pRIMP2
BASIS		cc-pvtz
METHOD		rimp2
AUX_BASIS	rimp2-cc-pvtz
SOLVENT_METHOD	PCM
PURECART	11111
SYMMETRY	false
MEM_TOTAL	110000
SCF_CONVERGENCE = 6
THRESH=10
GUI = 2
$end

$solvent
dielectric 4.90
$end
--------------------------------------------------------------

             Standard Nuclear Orientation (Angstroms)
    I     Atom           X                Y                Z
 ----------------------------------------------------------------
    1      C      -0.0880040000    -0.9872670000     0.9756800000
    2      S      -0.0087040000    -0.0859670000     2.4831800000
    3      C       0.1275960000     1.4806330000     1.6945800000
    4      C      -0.0084040000    -0.0863670000    -0.0922200000
    5      C       0.1103960000     1.2987330000     0.2892800000
    6      S      -0.0268040000    -0.3292670000    -1.8298200000
    7      C       0.1202960000     1.4162330000    -2.0788200000
    8      C       0.1795960000     2.1221330000    -0.8869200000
    9      F       0.2912960000     3.4540330000    -0.8434200000
   10      C       0.1612960000     1.8624330000    -3.4804200000
   11      O       0.1020960000     1.0948330000    -4.4308200000
   12      O       0.2714960000     3.2084330000    -3.5935200000
   13      C       0.3198960000     3.7012330000    -4.9405200000
   14      H       0.4088960000     4.7986330000    -4.8574200000
   15      H      -0.6006040000     3.4270330000    -5.4945200000
   16      H       1.1903960000     3.2808330000    -5.4836200000
   17      C      -0.0880040000    -2.4224670000     0.9756800000
   18      H      -1.1679040000    -2.4304670000     0.9830800000
   19      H      -0.0883040000    -3.1003670000     0.1349800000
   20      H      -0.0813040000    -2.9535670000     1.9160800000
   21      H       0.2067960000     2.4015330000     2.2821800000
 ----------------------------------------------------------------

   11   -1389.2719372730      5.26e-07  Convergence criterion met
 Total energy in the final basis set =    -1389.2719372730
        RIMP2         total energy =     -1391.7756361446 a.u.

                    Orbital Energies (a.u.)
 --------------------------------------------------------------

 Alpha MOs
 -- Occupied --
-92.0065 -91.9897 -26.3395 -20.6133 -20.5594 -11.4072 -11.3771 -11.3034
-11.2942 -11.2907 -11.2879 -11.2789 -11.2778 -11.2314  -9.0053  -8.9899
 -6.6861  -6.6856  -6.6850  -6.6709  -6.6703  -6.6691  -1.6568  -1.4656
 -1.3682  -1.2107  -1.1361  -1.0666  -1.0178  -0.9959  -0.9576  -0.9132
 -0.8626  -0.8040  -0.7876  -0.7581  -0.7303  -0.7217  -0.6922  -0.6830
 -0.6724  -0.6598  -0.6130  -0.5941  -0.5882  -0.5825  -0.5609  -0.5591
 -0.5325  -0.5269  -0.5167  -0.4998  -0.4721  -0.4717  -0.4702  -0.4600
 -0.3834  -0.3450  -0.2798

          Ground-State Mulliken Net Atomic Charges

     Atom                 Charge (a.u.)
  ----------------------------------------
      1 C                     0.047434
      2 S                     0.080129
      3 C                    -0.232403
      4 C                    -0.028648
      5 C                    -0.093130
      6 S                    -0.017829
      7 C                    -0.157718
      8 C                     0.391180
      9 F                    -0.209352
     10 C                     0.445447
     11 O                    -0.462019
     12 O                    -0.300597
     13 C                    -0.058724
     14 H                     0.121111
     15 H                     0.094695
     16 H                     0.094685
     17 C                    -0.391260
     18 H                     0.147935
     19 H                     0.170473
     20 H                     0.145900
     21 H                     0.212692
  ----------------------------------------
  Sum of atomic charges =     0.000000

                    Cartesian Multipole Moments
 -----------------------------------------------------------------
    Charge (ESU x 10^10)
                -0.0000
    Dipole Moment (Debye)
         X      -0.5992      Y      -0.0989      Z       3.3386
       Tot       3.3934
    Quadrupole Moments (Debye-Ang)
        XX     -96.8211     XY       2.9651     YY     -80.3677
        XZ      -1.4624     YZ     -10.8045     ZZ     -96.4171

 Total job time:  54.02s(wall), 1941.91s(cpu)
        *  Thank you very much for using Q-Chem.  Have a nice day.  *
