 Q-Chem 5.4, Q-Chem, Inc., Pleasanton, CA (2021)
 Q-Chem 5.4.0 for Intel X86 EM64T Linux

User input:
--------------------------------------------------------------
$molecule
0 1
C	-0.519089	-0.851940	0.973763
S	-0.066289	-0.068640	2.481263
C	0.719311	1.293660	1.692663
C	-0.066189	-0.069040	-0.094137
C	0.626811	1.136060	0.287363
S	-0.185489	-0.281440	-1.831737
C	0.685511	1.238360	-2.080737
C	1.037511	1.852960	-0.888837
F	1.701711	3.012960	-0.845337
C	0.911211	1.625360	-3.482337
O	0.533111	0.954660	-4.432737
O	1.579911	2.798760	-3.595437
C	1.832011	3.224860	-4.942437
H	2.376511	4.181860	-4.859337
H	0.881911	3.365460	-5.496437
H	2.443311	2.476060	-5.485537
C	-0.519089	-2.287140	0.973763
H	-1.052589	-2.295140	1.912763
H	-1.247289	-2.965040	0.553663
H	0.298611	-2.818240	1.438163
H	1.180211	2.094760	2.280263
$end

$rem
JOBTYPE		SP
EXCHANGE	HF
CORRELATION	pRIMP2
BASIS		cc-pvtz
METHOD		rimp2
AUX_BASIS	rimp2-cc-pvtz
SOLVENT_METHOD	PCM
PURECART	11111
SYMMETRY	false
MEM_TOTAL	110000
SCF_CONVERGENCE = 6
THRESH=10
GUI = 2
$end

$solvent
dielectric 4.90
$end
--------------------------------------------------------------

             Standard Nuclear Orientation (Angstroms)
    I     Atom           X                Y                Z
 ----------------------------------------------------------------
    1      C      -0.5190890000    -0.8519400000     0.9737630000
    2      S      -0.0662890000    -0.0686400000     2.4812630000
    3      C       0.7193110000     1.2936600000     1.6926630000
    4      C      -0.0661890000    -0.0690400000    -0.0941370000
    5      C       0.6268110000     1.1360600000     0.2873630000
    6      S      -0.1854890000    -0.2814400000    -1.8317370000
    7      C       0.6855110000     1.2383600000    -2.0807370000
    8      C       1.0375110000     1.8529600000    -0.8888370000
    9      F       1.7017110000     3.0129600000    -0.8453370000
   10      C       0.9112110000     1.6253600000    -3.4823370000
   11      O       0.5331110000     0.9546600000    -4.4327370000
   12      O       1.5799110000     2.7987600000    -3.5954370000
   13      C       1.8320110000     3.2248600000    -4.9424370000
   14      H       2.3765110000     4.1818600000    -4.8593370000
   15      H       0.8819110000     3.3654600000    -5.4964370000
   16      H       2.4433110000     2.4760600000    -5.4855370000
   17      C      -0.5190890000    -2.2871400000     0.9737630000
   18      H      -1.0525890000    -2.2951400000     1.9127630000
   19      H      -1.2472890000    -2.9650400000     0.5536630000
   20      H       0.2986110000    -2.8182400000     1.4381630000
   21      H       1.1802110000     2.0947600000     2.2802630000
 ----------------------------------------------------------------

   11   -1389.2533984364      4.61e-07  Convergence criterion met
 Total energy in the final basis set =    -1389.2533984364
        RIMP2         total energy =     -1391.7619118357 a.u.

                    Orbital Energies (a.u.)
 --------------------------------------------------------------

 Alpha MOs
 -- Occupied --
-92.0073 -91.9940 -26.3408 -20.6135 -20.5595 -11.4075 -11.3791 -11.3054
-11.2941 -11.2885 -11.2881 -11.2844 -11.2790 -11.2225  -9.0063  -8.9941
 -6.6871  -6.6865  -6.6860  -6.6751  -6.6744  -6.6733  -1.6581  -1.4658
 -1.3685  -1.2138  -1.1380  -1.0647  -1.0203  -0.9938  -0.9590  -0.9113
 -0.8642  -0.8073  -0.7888  -0.7583  -0.7313  -0.7229  -0.6919  -0.6832
 -0.6727  -0.6604  -0.6093  -0.5995  -0.5909  -0.5793  -0.5646  -0.5587
 -0.5319  -0.5295  -0.5086  -0.4818  -0.4727  -0.4715  -0.4654  -0.4618
 -0.3878  -0.3448  -0.2908

          Ground-State Mulliken Net Atomic Charges

     Atom                 Charge (a.u.)
  ----------------------------------------
      1 C                    -0.031015
      2 S                     0.081483
      3 C                    -0.195101
      4 C                     0.013793
      5 C                    -0.094590
      6 S                     0.005453
      7 C                    -0.159691
      8 C                     0.393434
      9 F                    -0.208458
     10 C                     0.445927
     11 O                    -0.462621
     12 O                    -0.301086
     13 C                    -0.058496
     14 H                     0.121045
     15 H                     0.094781
     16 H                     0.094714
     17 C                    -0.364308
     18 H                     0.113117
     19 H                     0.157095
     20 H                     0.140110
     21 H                     0.214414
  ----------------------------------------
  Sum of atomic charges =     0.000000

                    Cartesian Multipole Moments
 -----------------------------------------------------------------
    Charge (ESU x 10^10)
                -0.0000
    Dipole Moment (Debye)
         X       0.9844      Y       0.7042      Z       3.6398
       Tot       3.8358
    Quadrupole Moments (Debye-Ang)
        XX     -93.6462     XY       5.8503     YY     -84.6377
        XZ      -4.1126     YZ      -9.4610     ZZ     -95.3784

 Total job time:  58.47s(wall), 2012.82s(cpu)
        *  Thank you very much for using Q-Chem.  Have a nice day.  *
