 Q-Chem 5.4, Q-Chem, Inc., Pleasanton, CA (2021)
 Q-Chem 5.4.0 for Intel X86 EM64T Linux

User input:
--------------------------------------------------------------
$molecule
0 1
C	-0.354286	-0.928548	0.973964
S	-0.044386	-0.078548	2.481464
C	0.492714	1.399452	1.692864
C	-0.044286	-0.078948	-0.093936
C	0.429014	1.228152	0.287564
S	-0.124886	-0.308748	-1.831536
C	0.469014	1.339152	-2.080536
C	0.709014	2.005552	-0.888636
F	1.161614	3.263252	-0.845136
C	0.624014	1.759552	-3.482136
O	0.368214	1.033352	-4.432536
O	1.078914	3.031152	-3.595236
C	1.253214	3.494552	-4.942236
H	1.623214	4.531652	-4.859136
H	0.293114	3.468052	-5.496236
H	1.985214	2.863252	-5.485336
C	-0.354286	-2.363748	0.973964
H	-1.042786	-2.371748	1.806064
H	-0.998486	-3.041648	0.433764
H	0.370314	-2.894848	1.573264
H	0.807514	2.268452	2.280464
$end

$rem
JOBTYPE		SP
EXCHANGE	HF
CORRELATION	pRIMP2
BASIS		cc-pvtz
METHOD		rimp2
AUX_BASIS	rimp2-cc-pvtz
SOLVENT_METHOD	PCM
PURECART	11111
SYMMETRY	false
MEM_TOTAL	110000
SCF_CONVERGENCE = 6
THRESH=10
GUI = 2
$end

$solvent
dielectric 4.90
$end
--------------------------------------------------------------

             Standard Nuclear Orientation (Angstroms)
    I     Atom           X                Y                Z
 ----------------------------------------------------------------
    1      C      -0.3542860000    -0.9285480000     0.9739640000
    2      S      -0.0443860000    -0.0785480000     2.4814640000
    3      C       0.4927140000     1.3994520000     1.6928640000
    4      C      -0.0442860000    -0.0789480000    -0.0939360000
    5      C       0.4290140000     1.2281520000     0.2875640000
    6      S      -0.1248860000    -0.3087480000    -1.8315360000
    7      C       0.4690140000     1.3391520000    -2.0805360000
    8      C       0.7090140000     2.0055520000    -0.8886360000
    9      F       1.1616140000     3.2632520000    -0.8451360000
   10      C       0.6240140000     1.7595520000    -3.4821360000
   11      O       0.3682140000     1.0333520000    -4.4325360000
   12      O       1.0789140000     3.0311520000    -3.5952360000
   13      C       1.2532140000     3.4945520000    -4.9422360000
   14      H       1.6232140000     4.5316520000    -4.8591360000
   15      H       0.2931140000     3.4680520000    -5.4962360000
   16      H       1.9852140000     2.8632520000    -5.4853360000
   17      C      -0.3542860000    -2.3637480000     0.9739640000
   18      H      -1.0427860000    -2.3717480000     1.8060640000
   19      H      -0.9984860000    -3.0416480000     0.4337640000
   20      H       0.3703140000    -2.8948480000     1.5732640000
   21      H       0.8075140000     2.2684520000     2.2804640000
 ----------------------------------------------------------------

   11   -1389.2628287473      4.78e-07  Convergence criterion met
 Total energy in the final basis set =    -1389.2628287473
        RIMP2         total energy =     -1391.7690702432 a.u.

                    Orbital Energies (a.u.)
 --------------------------------------------------------------

 Alpha MOs
 -- Occupied --
-92.0074 -91.9919 -26.3402 -20.6134 -20.5594 -11.4073 -11.3782 -11.3004
-11.2941 -11.2917 -11.2880 -11.2846 -11.2785 -11.2251  -9.0063  -8.9921
 -6.6871  -6.6865  -6.6860  -6.6731  -6.6724  -6.6713  -1.6575  -1.4657
 -1.3683  -1.2124  -1.1370  -1.0648  -1.0195  -0.9948  -0.9585  -0.9124
 -0.8636  -0.8062  -0.7882  -0.7580  -0.7309  -0.7224  -0.6915  -0.6831
 -0.6725  -0.6602  -0.6104  -0.5978  -0.5906  -0.5798  -0.5644  -0.5575
 -0.5339  -0.5295  -0.5090  -0.4862  -0.4725  -0.4711  -0.4692  -0.4606
 -0.3871  -0.3452  -0.2873

          Ground-State Mulliken Net Atomic Charges

     Atom                 Charge (a.u.)
  ----------------------------------------
      1 C                    -0.012843
      2 S                     0.076562
      3 C                    -0.202741
      4 C                     0.013568
      5 C                    -0.099479
      6 S                    -0.003931
      7 C                    -0.159034
      8 C                     0.392232
      9 F                    -0.208966
     10 C                     0.445718
     11 O                    -0.462293
     12 O                    -0.300878
     13 C                    -0.058495
     14 H                     0.120963
     15 H                     0.094734
     16 H                     0.094720
     17 C                    -0.371977
     18 H                     0.121999
     19 H                     0.164237
     20 H                     0.141818
     21 H                     0.214086
  ----------------------------------------
  Sum of atomic charges =     0.000000

                    Cartesian Multipole Moments
 -----------------------------------------------------------------
    Charge (ESU x 10^10)
                -0.0000
    Dipole Moment (Debye)
         X       0.3567      Y       0.5164      Z       3.6916
       Tot       3.7446
    Quadrupole Moments (Debye-Ang)
        XX     -95.0675     XY       4.9185     YY     -82.6135
        XZ      -2.9978     YZ     -10.5049     ZZ     -95.5348

 Total job time:  152.97s(wall), 7654.75s(cpu)
        *  Thank you very much for using Q-Chem.  Have a nice day.  *
