 Q-Chem 5.4, Q-Chem, Inc., Pleasanton, CA (2021)
 Q-Chem 5.4.0 for Intel X86 EM64T Linux

User input:
--------------------------------------------------------------
$molecule
0 1
C	-0.522416	-0.851940	0.975737
S	-0.069616	-0.068640	2.483237
C	0.715984	1.293660	1.694637
C	-0.069516	-0.069040	-0.092163
C	0.623484	1.136060	0.289337
S	-0.188816	-0.281440	-1.829763
C	0.682184	1.238360	-2.078763
C	1.034184	1.852960	-0.886863
F	1.698384	3.012960	-0.843363
C	0.907884	1.625360	-3.480363
O	0.529784	0.954660	-4.430763
O	1.576584	2.798760	-3.593463
C	1.828684	3.224860	-4.940463
H	2.373184	4.181860	-4.857363
H	0.878584	3.365460	-5.494463
H	2.439984	2.476060	-5.483563
C	-0.522416	-2.287140	0.975737
H	0.542384	-2.295140	1.155937
H	-0.668116	-2.965040	1.803737
H	-0.365716	-2.818240	0.048537
H	1.176884	2.094760	2.282237
$end

$rem
JOBTYPE		SP
EXCHANGE	HF
CORRELATION	pRIMP2
BASIS		cc-pvtz
METHOD		rimp2
AUX_BASIS	rimp2-cc-pvtz
SOLVENT_METHOD	PCM
PURECART	11111
SYMMETRY	false
MEM_TOTAL	110000
SCF_CONVERGENCE = 6
THRESH=10
GUI = 2
$end

$solvent
dielectric 4.90
$end
--------------------------------------------------------------

             Standard Nuclear Orientation (Angstroms)
    I     Atom           X                Y                Z
 ----------------------------------------------------------------
    1      C      -0.5224160000    -0.8519400000     0.9757370000
    2      S      -0.0696160000    -0.0686400000     2.4832370000
    3      C       0.7159840000     1.2936600000     1.6946370000
    4      C      -0.0695160000    -0.0690400000    -0.0921630000
    5      C       0.6234840000     1.1360600000     0.2893370000
    6      S      -0.1888160000    -0.2814400000    -1.8297630000
    7      C       0.6821840000     1.2383600000    -2.0787630000
    8      C       1.0341840000     1.8529600000    -0.8868630000
    9      F       1.6983840000     3.0129600000    -0.8433630000
   10      C       0.9078840000     1.6253600000    -3.4803630000
   11      O       0.5297840000     0.9546600000    -4.4307630000
   12      O       1.5765840000     2.7987600000    -3.5934630000
   13      C       1.8286840000     3.2248600000    -4.9404630000
   14      H       2.3731840000     4.1818600000    -4.8573630000
   15      H       0.8785840000     3.3654600000    -5.4944630000
   16      H       2.4399840000     2.4760600000    -5.4835630000
   17      C      -0.5224160000    -2.2871400000     0.9757370000
   18      H       0.5423840000    -2.2951400000     1.1559370000
   19      H      -0.6681160000    -2.9650400000     1.8037370000
   20      H      -0.3657160000    -2.8182400000     0.0485370000
   21      H       1.1768840000     2.0947600000     2.2822370000
 ----------------------------------------------------------------

   11   -1389.2579072791      5.42e-07  Convergence criterion met
 Total energy in the final basis set =    -1389.2579072791
        RIMP2         total energy =     -1391.7650315765 a.u.

                    Orbital Energies (a.u.)
 --------------------------------------------------------------

 Alpha MOs
 -- Occupied --
-92.0034 -91.9919 -26.3404 -20.6136 -20.5598 -11.4076 -11.3784 -11.2982
-11.2972 -11.2947 -11.2882 -11.2834 -11.2793 -11.2301  -9.0028  -8.9920
 -6.6836  -6.6830  -6.6825  -6.6731  -6.6724  -6.6712  -1.6577  -1.4660
 -1.3686  -1.2139  -1.1389  -1.0675  -1.0189  -0.9937  -0.9583  -0.9107
 -0.8635  -0.8055  -0.7885  -0.7587  -0.7313  -0.7226  -0.6928  -0.6834
 -0.6727  -0.6601  -0.6124  -0.5982  -0.5937  -0.5755  -0.5631  -0.5573
 -0.5317  -0.5261  -0.5180  -0.5004  -0.4728  -0.4715  -0.4708  -0.4567
 -0.3838  -0.3462  -0.2806

          Ground-State Mulliken Net Atomic Charges

     Atom                 Charge (a.u.)
  ----------------------------------------
      1 C                     0.046425
      2 S                     0.076025
      3 C                    -0.221078
      4 C                    -0.065193
      5 C                    -0.074427
      6 S                    -0.006077
      7 C                    -0.153292
      8 C                     0.388364
      9 F                    -0.208452
     10 C                     0.446432
     11 O                    -0.461739
     12 O                    -0.300915
     13 C                    -0.058477
     14 H                     0.121125
     15 H                     0.094860
     16 H                     0.094632
     17 C                    -0.379922
     18 H                     0.146215
     19 H                     0.159666
     20 H                     0.143456
     21 H                     0.212372
  ----------------------------------------
  Sum of atomic charges =     0.000000

                    Cartesian Multipole Moments
 -----------------------------------------------------------------
    Charge (ESU x 10^10)
                -0.0000
    Dipole Moment (Debye)
         X       1.7259      Y       0.0212      Z       3.2818
       Tot       3.7080
    Quadrupole Moments (Debye-Ang)
        XX     -95.1764     XY       3.5713     YY     -83.7530
        XZ      -3.7639     YZ      -9.5930     ZZ     -96.1860

 Total job time:  60.12s(wall), 1976.95s(cpu)
        *  Thank you very much for using Q-Chem.  Have a nice day.  *
