 Q-Chem 5.4, Q-Chem, Inc., Pleasanton, CA (2021)
 Q-Chem 5.4.0 for Intel X86 EM64T Linux

User input:
--------------------------------------------------------------
$molecule
0 1
C	-0.438548	-0.893839	0.973763
S	-0.055748	-0.074039	2.481263
C	0.608152	1.351461	1.692663
C	-0.055648	-0.074439	-0.094137
C	0.529752	1.186461	0.287363
S	-0.155948	-0.296439	-1.831737
C	0.579252	1.293461	-2.080737
C	0.876452	1.936461	-0.888837
F	1.436952	3.149961	-0.845337
C	0.770352	1.698761	-3.482337
O	0.452252	0.997661	-4.432737
O	1.334352	2.925861	-3.595437
C	1.548352	3.372361	-4.942437
H	2.007252	4.373161	-4.859337
H	0.589552	3.429561	-5.496437
H	2.222552	2.679661	-5.485537
C	-0.438548	-2.329039	0.973763
H	-0.972048	-2.337039	1.912763
H	-1.166748	-3.006939	0.553663
H	0.379152	-2.860139	1.438163
H	0.997452	2.189761	2.280263
$end

$rem
JOBTYPE		SP
EXCHANGE	HF
CORRELATION	pRIMP2
BASIS		cc-pvtz
METHOD		rimp2
AUX_BASIS	rimp2-cc-pvtz
SOLVENT_METHOD	PCM
PURECART	11111
SYMMETRY	false
MEM_TOTAL	110000
SCF_CONVERGENCE = 6
THRESH=10
GUI = 2
$end

$solvent
dielectric 4.90
$end
--------------------------------------------------------------

             Standard Nuclear Orientation (Angstroms)
    I     Atom           X                Y                Z
 ----------------------------------------------------------------
    1      C      -0.4385480000    -0.8938390000     0.9737630000
    2      S      -0.0557480000    -0.0740390000     2.4812630000
    3      C       0.6081520000     1.3514610000     1.6926630000
    4      C      -0.0556480000    -0.0744390000    -0.0941370000
    5      C       0.5297520000     1.1864610000     0.2873630000
    6      S      -0.1559480000    -0.2964390000    -1.8317370000
    7      C       0.5792520000     1.2934610000    -2.0807370000
    8      C       0.8764520000     1.9364610000    -0.8888370000
    9      F       1.4369520000     3.1499610000    -0.8453370000
   10      C       0.7703520000     1.6987610000    -3.4823370000
   11      O       0.4522520000     0.9976610000    -4.4327370000
   12      O       1.3343520000     2.9258610000    -3.5954370000
   13      C       1.5483520000     3.3723610000    -4.9424370000
   14      H       2.0072520000     4.3731610000    -4.8593370000
   15      H       0.5895520000     3.4295610000    -5.4964370000
   16      H       2.2225520000     2.6796610000    -5.4855370000
   17      C      -0.4385480000    -2.3290390000     0.9737630000
   18      H      -0.9720480000    -2.3370390000     1.9127630000
   19      H      -1.1667480000    -3.0069390000     0.5536630000
   20      H       0.3791520000    -2.8601390000     1.4381630000
   21      H       0.9974520000     2.1897610000     2.2802630000
 ----------------------------------------------------------------

   11   -1389.2587692718      4.66e-07  Convergence criterion met
 Total energy in the final basis set =    -1389.2587692718
        RIMP2         total energy =     -1391.7661658309 a.u.

                    Orbital Energies (a.u.)
 --------------------------------------------------------------

 Alpha MOs
 -- Occupied --
-92.0076 -91.9932 -26.3406 -20.6134 -20.5595 -11.4074 -11.3788 -11.3032
-11.2941 -11.2880 -11.2879 -11.2865 -11.2788 -11.2237  -9.0066  -8.9933
 -6.6873  -6.6867  -6.6862  -6.6743  -6.6736  -6.6725  -1.6579  -1.4658
 -1.3684  -1.2132  -1.1375  -1.0647  -1.0200  -0.9943  -0.9588  -0.9118
 -0.8640  -0.8069  -0.7885  -0.7581  -0.7312  -0.7227  -0.6917  -0.6832
 -0.6726  -0.6604  -0.6094  -0.5994  -0.5910  -0.5792  -0.5647  -0.5581
 -0.5335  -0.5297  -0.5085  -0.4822  -0.4727  -0.4714  -0.4664  -0.4618
 -0.3883  -0.3450  -0.2901

          Ground-State Mulliken Net Atomic Charges

     Atom                 Charge (a.u.)
  ----------------------------------------
      1 C                    -0.018407
      2 S                     0.079901
      3 C                    -0.199695
      4 C                     0.008969
      5 C                    -0.095176
      6 S                     0.001501
      7 C                    -0.159700
      8 C                     0.393386
      9 F                    -0.208666
     10 C                     0.445786
     11 O                    -0.462485
     12 O                    -0.301017
     13 C                    -0.058537
     14 H                     0.121040
     15 H                     0.094777
     16 H                     0.094715
     17 C                    -0.365005
     18 H                     0.114553
     19 H                     0.159857
     20 H                     0.139961
     21 H                     0.214242
  ----------------------------------------
  Sum of atomic charges =     0.000000

                    Cartesian Multipole Moments
 -----------------------------------------------------------------
    Charge (ESU x 10^10)
                -0.0000
    Dipole Moment (Debye)
         X       0.7249      Y       0.6602      Z       3.6861
       Tot       3.8142
    Quadrupole Moments (Debye-Ang)
        XX     -94.3714     XY       5.3151     YY     -83.6271
        XZ      -3.5585     YZ     -10.0367     ZZ     -95.4283

 Total job time:  59.18s(wall), 1997.41s(cpu)
        *  Thank you very much for using Q-Chem.  Have a nice day.  *
