 Q-Chem 5.4, Q-Chem, Inc., Pleasanton, CA (2021)
 Q-Chem 5.4.0 for Intel X86 EM64T Linux

User input:
--------------------------------------------------------------
$molecule
0 1
C	-0.903269	-0.471137	0.974943
S	-0.119469	-0.019137	2.482443
C	1.242031	0.767763	1.693843
C	-0.119569	-0.019537	-0.092957
C	1.083131	0.677463	0.288543
S	-0.329169	-0.143837	-1.830557
C	1.185131	0.736763	-2.079557
C	1.797231	1.093063	-0.887657
F	2.952431	1.765563	-0.844157
C	1.574031	0.959163	-3.481157
O	0.911331	0.567363	-4.431557
O	2.739931	1.640863	-3.594257
C	3.171231	1.883963	-4.941257
H	4.121331	2.440463	-4.858157
H	2.418731	2.480763	-5.495257
H	3.326231	0.929763	-5.484357
C	-0.903269	-1.906337	0.974943
H	0.035731	-1.914337	1.508443
H	-1.323369	-2.584237	1.703143
H	-0.438869	-2.437437	0.157243
H	2.041731	1.231163	2.281443
$end

$rem
JOBTYPE		SP
EXCHANGE	HF
CORRELATION	pRIMP2
BASIS		cc-pvtz
METHOD		rimp2
AUX_BASIS	rimp2-cc-pvtz
SOLVENT_METHOD	PCM
PURECART	11111
SYMMETRY	false
MEM_TOTAL	110000
SCF_CONVERGENCE = 6
THRESH=10
GUI = 2
$end

$solvent
dielectric 4.90
$end
--------------------------------------------------------------

             Standard Nuclear Orientation (Angstroms)
    I     Atom           X                Y                Z
 ----------------------------------------------------------------
    1      C      -0.9032690000    -0.4711370000     0.9749430000
    2      S      -0.1194690000    -0.0191370000     2.4824430000
    3      C       1.2420310000     0.7677630000     1.6938430000
    4      C      -0.1195690000    -0.0195370000    -0.0929570000
    5      C       1.0831310000     0.6774630000     0.2885430000
    6      S      -0.3291690000    -0.1438370000    -1.8305570000
    7      C       1.1851310000     0.7367630000    -2.0795570000
    8      C       1.7972310000     1.0930630000    -0.8876570000
    9      F       2.9524310000     1.7655630000    -0.8441570000
   10      C       1.5740310000     0.9591630000    -3.4811570000
   11      O       0.9113310000     0.5673630000    -4.4315570000
   12      O       2.7399310000     1.6408630000    -3.5942570000
   13      C       3.1712310000     1.8839630000    -4.9412570000
   14      H       4.1213310000     2.4404630000    -4.8581570000
   15      H       2.4187310000     2.4807630000    -5.4952570000
   16      H       3.3262310000     0.9297630000    -5.4843570000
   17      C      -0.9032690000    -1.9063370000     0.9749430000
   18      H       0.0357310000    -1.9143370000     1.5084430000
   19      H      -1.3233690000    -2.5842370000     1.7031430000
   20      H      -0.4388690000    -2.4374370000     0.1572430000
   21      H       2.0417310000     1.2311630000     2.2814430000
 ----------------------------------------------------------------

   11   -1389.1939495036      5.96e-07  Convergence criterion met
 Total energy in the final basis set =    -1389.1939495036
        RIMP2         total energy =     -1391.7109972722 a.u.

                    Orbital Energies (a.u.)
 --------------------------------------------------------------

 Alpha MOs
 -- Occupied --
-92.0014 -91.9979 -26.3440 -20.6144 -20.5606 -11.4089 -11.3837 -11.3250
-11.3045 -11.2956 -11.2888 -11.2829 -11.2678 -11.2175  -9.0012  -8.9989
 -6.6822  -6.6815  -6.6804  -6.6795  -6.6785  -6.6784  -1.6611  -1.4669
 -1.3696  -1.2252  -1.1474  -1.0713  -1.0239  -0.9904  -0.9615  -0.9034
 -0.8674  -0.8122  -0.7918  -0.7608  -0.7359  -0.7258  -0.6979  -0.6844
 -0.6737  -0.6624  -0.6147  -0.6049  -0.5956  -0.5701  -0.5634  -0.5521
 -0.5337  -0.5282  -0.5155  -0.5013  -0.4773  -0.4732  -0.4718  -0.4368
 -0.3795  -0.3475  -0.2875

          Ground-State Mulliken Net Atomic Charges

     Atom                 Charge (a.u.)
  ----------------------------------------
      1 C                    -0.091439
      2 S                     0.079961
      3 C                    -0.143240
      4 C                     0.047191
      5 C                    -0.112894
      6 S                     0.035762
      7 C                    -0.154151
      8 C                     0.389889
      9 F                    -0.206165
     10 C                     0.447696
     11 O                    -0.462977
     12 O                    -0.301404
     13 C                    -0.058272
     14 H                     0.121209
     15 H                     0.095118
     16 H                     0.094761
     17 C                    -0.374570
     18 H                     0.107337
     19 H                     0.137811
     20 H                     0.131841
     21 H                     0.216536
  ----------------------------------------
  Sum of atomic charges =     0.000000

                    Cartesian Multipole Moments
 -----------------------------------------------------------------
    Charge (ESU x 10^10)
                -0.0000
    Dipole Moment (Debye)
         X       3.5950      Y       0.3419      Z       2.9801
       Tot       4.6821
    Quadrupole Moments (Debye-Ang)
        XX     -90.6908     XY       4.4940     YY     -91.4462
        XZ      -5.4704     YZ      -5.4475     ZZ     -95.0331

 Total job time:  54.15s(wall), 1945.51s(cpu)
        *  Thank you very much for using Q-Chem.  Have a nice day.  *
