 Q-Chem 5.4, Q-Chem, Inc., Pleasanton, CA (2021)
 Q-Chem 5.4.0 for Intel X86 EM64T Linux

User input:
--------------------------------------------------------------
$molecule
0 1
C	-0.902495	-0.471137	0.973997
S	-0.118695	-0.019137	2.481497
C	1.242805	0.767763	1.692897
C	-0.118795	-0.019537	-0.093903
C	1.083905	0.677463	0.287597
S	-0.328395	-0.143837	-1.831503
C	1.185905	0.736763	-2.080503
C	1.798005	1.093063	-0.888603
F	2.953205	1.765563	-0.845103
C	1.574805	0.959163	-3.482103
O	0.912105	0.567363	-4.432503
O	2.740705	1.640863	-3.595203
C	3.172005	1.883963	-4.942203
H	4.122105	2.440463	-4.859103
H	2.419505	2.480763	-5.496203
H	3.327005	0.929763	-5.485303
C	-0.902495	-1.906337	0.973997
H	-0.356095	-1.914337	1.905497
H	-1.630395	-2.584237	1.394597
H	-0.091495	-2.437437	0.498097
H	2.042505	1.231163	2.280497
$end

$rem
JOBTYPE		SP
EXCHANGE	HF
CORRELATION	pRIMP2
BASIS		cc-pvtz
METHOD		rimp2
AUX_BASIS	rimp2-cc-pvtz
SOLVENT_METHOD	PCM
PURECART	11111
SYMMETRY	false
MEM_TOTAL	110000
SCF_CONVERGENCE = 6
THRESH=10
GUI = 2
$end

$solvent
dielectric 4.90
$end
--------------------------------------------------------------

             Standard Nuclear Orientation (Angstroms)
    I     Atom           X                Y                Z
 ----------------------------------------------------------------
    1      C      -0.9024950000    -0.4711370000     0.9739970000
    2      S      -0.1186950000    -0.0191370000     2.4814970000
    3      C       1.2428050000     0.7677630000     1.6928970000
    4      C      -0.1187950000    -0.0195370000    -0.0939030000
    5      C       1.0839050000     0.6774630000     0.2875970000
    6      S      -0.3283950000    -0.1438370000    -1.8315030000
    7      C       1.1859050000     0.7367630000    -2.0805030000
    8      C       1.7980050000     1.0930630000    -0.8886030000
    9      F       2.9532050000     1.7655630000    -0.8451030000
   10      C       1.5748050000     0.9591630000    -3.4821030000
   11      O       0.9121050000     0.5673630000    -4.4325030000
   12      O       2.7407050000     1.6408630000    -3.5952030000
   13      C       3.1720050000     1.8839630000    -4.9422030000
   14      H       4.1221050000     2.4404630000    -4.8591030000
   15      H       2.4195050000     2.4807630000    -5.4962030000
   16      H       3.3270050000     0.9297630000    -5.4853030000
   17      C      -0.9024950000    -1.9063370000     0.9739970000
   18      H      -0.3560950000    -1.9143370000     1.9054970000
   19      H      -1.6303950000    -2.5842370000     1.3945970000
   20      H      -0.0914950000    -2.4374370000     0.4980970000
   21      H       2.0425050000     1.2311630000     2.2804970000
 ----------------------------------------------------------------

   11   -1389.1860089768      5.94e-07  Convergence criterion met
 Total energy in the final basis set =    -1389.1860089768
        RIMP2         total energy =     -1391.7030023070 a.u.

                    Orbital Energies (a.u.)
 --------------------------------------------------------------

 Alpha MOs
 -- Occupied --
-92.0019 -91.9997 -26.3441 -20.6139 -20.5598 -11.4081 -11.3841 -11.3274
-11.3083 -11.2939 -11.2886 -11.2808 -11.2603 -11.2110  -9.0018  -9.0007
 -6.6828  -6.6820  -6.6813  -6.6810  -6.6801  -6.6801  -1.6612  -1.4663
 -1.3690  -1.2245  -1.1471  -1.0700  -1.0248  -0.9898  -0.9620  -0.9023
 -0.8680  -0.8136  -0.7917  -0.7601  -0.7357  -0.7258  -0.6970  -0.6838
 -0.6733  -0.6623  -0.6112  -0.6065  -0.5941  -0.5714  -0.5641  -0.5584
 -0.5307  -0.5220  -0.5146  -0.4946  -0.4789  -0.4727  -0.4715  -0.4321
 -0.3825  -0.3409  -0.2936

          Ground-State Mulliken Net Atomic Charges

     Atom                 Charge (a.u.)
  ----------------------------------------
      1 C                    -0.121476
      2 S                     0.086931
      3 C                    -0.134081
      4 C                     0.072447
      5 C                    -0.120345
      6 S                     0.039686
      7 C                    -0.157422
      8 C                     0.393098
      9 F                    -0.206037
     10 C                     0.447883
     11 O                    -0.464556
     12 O                    -0.301772
     13 C                    -0.058326
     14 H                     0.121027
     15 H                     0.094964
     16 H                     0.094652
     17 C                    -0.381328
     18 H                     0.122446
     19 H                     0.127527
     20 H                     0.127474
     21 H                     0.217209
  ----------------------------------------
  Sum of atomic charges =     0.000000

                    Cartesian Multipole Moments
 -----------------------------------------------------------------
    Charge (ESU x 10^10)
                -0.0000
    Dipole Moment (Debye)
         X       3.5923      Y       0.5433      Z       3.3951
       Tot       4.9726
    Quadrupole Moments (Debye-Ang)
        XX     -90.2712     XY       4.3995     YY     -91.9209
        XZ      -5.4958     YZ      -5.7388     ZZ     -94.4711

 Total job time:  55.28s(wall), 1930.06s(cpu)
        *  Thank you very much for using Q-Chem.  Have a nice day.  *
