 Q-Chem 5.4, Q-Chem, Inc., Pleasanton, CA (2021)
 Q-Chem 5.4.0 for Intel X86 EM64T Linux

User input:
--------------------------------------------------------------
$molecule
0 1
C	-0.182738	-0.975447	0.975737
S	-0.025138	-0.084547	2.483237
C	0.247162	1.464253	1.694637
C	-0.024938	-0.084847	-0.092163
C	0.214162	1.284553	0.289337
S	-0.064438	-0.325247	-1.829763
C	0.234262	1.400753	-2.078763
C	0.354862	2.098753	-0.886863
F	0.582262	3.415953	-0.843363
C	0.313962	1.841653	-3.480363
O	0.188162	1.082153	-4.430763
O	0.541162	3.172953	-3.593463
C	0.632262	3.659653	-4.940463
H	0.816562	4.745153	-4.857363
H	-0.308638	3.466753	-5.494463
H	1.462762	3.165053	-5.483563
C	-0.182738	-2.410647	0.975737
H	0.882062	-2.418647	1.155937
H	-0.328438	-3.088547	1.803737
H	-0.026038	-2.941747	0.048537
H	0.406262	2.374753	2.282237
$end

$rem
JOBTYPE		SP
EXCHANGE	HF
CORRELATION	pRIMP2
BASIS		cc-pvtz
METHOD		rimp2
AUX_BASIS	rimp2-cc-pvtz
SOLVENT_METHOD	PCM
PURECART	11111
SYMMETRY	false
MEM_TOTAL	110000
SCF_CONVERGENCE = 6
THRESH=10
GUI = 2
$end

$solvent
dielectric 4.90
$end
--------------------------------------------------------------

             Standard Nuclear Orientation (Angstroms)
    I     Atom           X                Y                Z
 ----------------------------------------------------------------
    1      C      -0.1827380000    -0.9754470000     0.9757370000
    2      S      -0.0251380000    -0.0845470000     2.4832370000
    3      C       0.2471620000     1.4642530000     1.6946370000
    4      C      -0.0249380000    -0.0848470000    -0.0921630000
    5      C       0.2141620000     1.2845530000     0.2893370000
    6      S      -0.0644380000    -0.3252470000    -1.8297630000
    7      C       0.2342620000     1.4007530000    -2.0787630000
    8      C       0.3548620000     2.0987530000    -0.8868630000
    9      F       0.5822620000     3.4159530000    -0.8433630000
   10      C       0.3139620000     1.8416530000    -3.4803630000
   11      O       0.1881620000     1.0821530000    -4.4307630000
   12      O       0.5411620000     3.1729530000    -3.5934630000
   13      C       0.6322620000     3.6596530000    -4.9404630000
   14      H       0.8165620000     4.7451530000    -4.8573630000
   15      H      -0.3086380000     3.4667530000    -5.4944630000
   16      H       1.4627620000     3.1650530000    -5.4835630000
   17      C      -0.1827380000    -2.4106470000     0.9757370000
   18      H       0.8820620000    -2.4186470000     1.1559370000
   19      H      -0.3284380000    -3.0885470000     1.8037370000
   20      H      -0.0260380000    -2.9417470000     0.0485370000
   21      H       0.4062620000     2.3747530000     2.2822370000
 ----------------------------------------------------------------

   11   -1389.2726318591      5.36e-07  Convergence criterion met
 Total energy in the final basis set =    -1389.2726318591
        RIMP2         total energy =     -1391.7761426955 a.u.

                    Orbital Energies (a.u.)
 --------------------------------------------------------------

 Alpha MOs
 -- Occupied --
-92.0050 -91.9897 -26.3396 -20.6133 -20.5595 -11.4072 -11.3773 -11.3040
-11.2943 -11.2915 -11.2879 -11.2798 -11.2782 -11.2324  -9.0040  -8.9899
 -6.6849  -6.6843  -6.6837  -6.6710  -6.6703  -6.6691  -1.6569  -1.4657
 -1.3683  -1.2113  -1.1367  -1.0670  -1.0179  -0.9955  -0.9577  -0.9128
 -0.8626  -0.8043  -0.7877  -0.7582  -0.7308  -0.7219  -0.6918  -0.6831
 -0.6724  -0.6598  -0.6122  -0.5963  -0.5921  -0.5809  -0.5621  -0.5578
 -0.5314  -0.5256  -0.5192  -0.4998  -0.4720  -0.4713  -0.4699  -0.4596
 -0.3844  -0.3455  -0.2800

          Ground-State Mulliken Net Atomic Charges

     Atom                 Charge (a.u.)
  ----------------------------------------
      1 C                     0.056012
      2 S                     0.074534
      3 C                    -0.230933
      4 C                    -0.044114
      5 C                    -0.087174
      6 S                    -0.016132
      7 C                    -0.156067
      8 C                     0.388803
      9 F                    -0.209156
     10 C                     0.445679
     11 O                    -0.461809
     12 O                    -0.300731
     13 C                    -0.058657
     14 H                     0.121092
     15 H                     0.094794
     16 H                     0.094625
     17 C                    -0.387376
     18 H                     0.150402
     19 H                     0.164909
     20 H                     0.148833
     21 H                     0.212469
  ----------------------------------------
  Sum of atomic charges =     0.000000

                    Cartesian Multipole Moments
 -----------------------------------------------------------------
    Charge (ESU x 10^10)
                -0.0000
    Dipole Moment (Debye)
         X       1.0337      Y      -0.1167      Z       3.4150
       Tot       3.5699
    Quadrupole Moments (Debye-Ang)
        XX     -96.9486     XY       0.2164     YY     -80.5960
        XZ      -0.9477     YZ     -11.1837     ZZ     -96.3133

 Total job time:  59.78s(wall), 2155.74s(cpu)
        *  Thank you very much for using Q-Chem.  Have a nice day.  *
