 Q-Chem 5.4, Q-Chem, Inc., Pleasanton, CA (2021)
 Q-Chem 5.4.0 for Intel X86 EM64T Linux

User input:
--------------------------------------------------------------
$molecule
0 1
C	-0.794669	-0.619704	0.975680
S	-0.101269	-0.038504	2.483180
C	1.102831	0.972896	1.694580
C	-0.101369	-0.038904	-0.092220
C	0.962131	0.856396	0.289280
S	-0.286069	-0.197704	-1.829820
C	1.052231	0.932496	-2.078820
C	1.593231	1.389696	-0.886920
F	2.614031	2.252596	-0.843420
C	1.396631	1.219096	-3.480420
O	0.812031	0.718096	-4.430820
O	2.426431	2.092896	-3.593520
C	2.809031	2.407096	-4.940520
H	3.647931	3.120196	-4.857420
H	1.964331	2.864196	-5.494520
H	3.127331	1.494396	-5.483620
C	-0.794669	-2.054904	0.975680
H	-1.874569	-2.062904	0.983080
H	-0.794969	-2.732804	0.134980
H	-0.787969	-2.586004	1.916080
H	1.810031	1.568096	2.282180
$end

$rem
JOBTYPE		SP
EXCHANGE	HF
CORRELATION	pRIMP2
BASIS		cc-pvtz
METHOD		rimp2
AUX_BASIS	rimp2-cc-pvtz
SOLVENT_METHOD	PCM
PURECART	11111
SYMMETRY	false
MEM_TOTAL	110000
SCF_CONVERGENCE = 6
THRESH=10
GUI = 2
$end

$solvent
dielectric 4.90
$end
--------------------------------------------------------------

             Standard Nuclear Orientation (Angstroms)
    I     Atom           X                Y                Z
 ----------------------------------------------------------------
    1      C      -0.7946690000    -0.6197040000     0.9756800000
    2      S      -0.1012690000    -0.0385040000     2.4831800000
    3      C       1.1028310000     0.9728960000     1.6945800000
    4      C      -0.1013690000    -0.0389040000    -0.0922200000
    5      C       0.9621310000     0.8563960000     0.2892800000
    6      S      -0.2860690000    -0.1977040000    -1.8298200000
    7      C       1.0522310000     0.9324960000    -2.0788200000
    8      C       1.5932310000     1.3896960000    -0.8869200000
    9      F       2.6140310000     2.2525960000    -0.8434200000
   10      C       1.3966310000     1.2190960000    -3.4804200000
   11      O       0.8120310000     0.7180960000    -4.4308200000
   12      O       2.4264310000     2.0928960000    -3.5935200000
   13      C       2.8090310000     2.4070960000    -4.9405200000
   14      H       3.6479310000     3.1201960000    -4.8574200000
   15      H       1.9643310000     2.8641960000    -5.4945200000
   16      H       3.1273310000     1.4943960000    -5.4836200000
   17      C      -0.7946690000    -2.0549040000     0.9756800000
   18      H      -1.8745690000    -2.0629040000     0.9830800000
   19      H      -0.7949690000    -2.7328040000     0.1349800000
   20      H      -0.7879690000    -2.5860040000     1.9160800000
   21      H       1.8100310000     1.5680960000     2.2821800000
 ----------------------------------------------------------------

   11   -1389.2121552612      4.98e-07  Convergence criterion met
 Total energy in the final basis set =    -1389.2121552612
        RIMP2         total energy =     -1391.7280445227 a.u.

                    Orbital Energies (a.u.)
 --------------------------------------------------------------

 Alpha MOs
 -- Occupied --
-92.0018 -91.9986 -26.3421 -20.6138 -20.5597 -11.4079 -11.3811 -11.3130
-11.2970 -11.2940 -11.2884 -11.2796 -11.2704 -11.2149  -9.0014  -8.9986
 -6.6822  -6.6813  -6.6810  -6.6795  -6.6788  -6.6778  -1.6593  -1.4661
 -1.3688  -1.2172  -1.1392  -1.0662  -1.0206  -0.9917  -0.9593  -0.9097
 -0.8649  -0.8081  -0.7898  -0.7594  -0.7310  -0.7240  -0.6945  -0.6836
 -0.6730  -0.6603  -0.6127  -0.5953  -0.5907  -0.5723  -0.5639  -0.5597
 -0.5321  -0.5259  -0.5040  -0.4997  -0.4753  -0.4720  -0.4712  -0.4480
 -0.3750  -0.3438  -0.2837

          Ground-State Mulliken Net Atomic Charges

     Atom                 Charge (a.u.)
  ----------------------------------------
      1 C                    -0.081261
      2 S                     0.089734
      3 C                    -0.172169
      4 C                     0.036471
      5 C                    -0.101252
      6 S                     0.022327
      7 C                    -0.159050
      8 C                     0.393194
      9 F                    -0.207200
     10 C                     0.447956
     11 O                    -0.463834
     12 O                    -0.301327
     13 C                    -0.058387
     14 H                     0.121089
     15 H                     0.094816
     16 H                     0.094714
     17 C                    -0.397654
     18 H                     0.134910
     19 H                     0.155092
     20 H                     0.137893
     21 H                     0.213937
  ----------------------------------------
  Sum of atomic charges =     0.000000

                    Cartesian Multipole Moments
 -----------------------------------------------------------------
    Charge (ESU x 10^10)
                -0.0000
    Dipole Moment (Debye)
         X       1.7174      Y       0.4824      Z       2.9664
       Tot       3.4614
    Quadrupole Moments (Debye-Ang)
        XX     -90.5176     XY       7.0463     YY     -89.1925
        XZ      -5.9797     YZ      -6.0416     ZZ     -95.6323

 Total job time:  61.87s(wall), 2052.31s(cpu)
        *  Thank you very much for using Q-Chem.  Have a nice day.  *
