 Q-Chem 5.4, Q-Chem, Inc., Pleasanton, CA (2021)
 Q-Chem 5.4.0 for Intel X86 EM64T Linux

User input:
--------------------------------------------------------------
$molecule
0 1
C	0.001316	-0.991205	0.973763
S	0.001816	-0.086405	2.481263
C	0.001016	1.486095	1.692663
C	0.002116	-0.086805	-0.094137
C	-0.000284	1.303395	0.287363
S	0.004916	-0.330305	-1.831737
C	-0.000584	1.421295	-2.080737
C	-0.003084	2.129695	-0.888837
F	-0.007884	3.466295	-0.845337
C	0.001316	1.869395	-3.482337
O	0.009216	1.099495	-4.432737
O	-0.006184	3.219895	-3.595437
C	-0.000984	3.714995	-4.942437
H	-0.007984	4.815995	-4.859337
H	-0.894084	3.361695	-5.496437
H	0.902816	3.372095	-5.485537
C	0.001316	-2.426405	0.973763
H	-0.532184	-2.434405	1.912763
H	-0.726884	-3.104305	0.553663
H	0.819016	-2.957505	1.438163
H	-0.000384	2.410395	2.280263
$end

$rem
JOBTYPE		SP
EXCHANGE	HF
CORRELATION	pRIMP2
BASIS		cc-pvtz
METHOD		rimp2
AUX_BASIS	rimp2-cc-pvtz
SOLVENT_METHOD	PCM
PURECART	11111
SYMMETRY	false
MEM_TOTAL	110000
SCF_CONVERGENCE = 6
THRESH=10
GUI = 2
$end

$solvent
dielectric 4.90
$end
--------------------------------------------------------------

             Standard Nuclear Orientation (Angstroms)
    I     Atom           X                Y                Z
 ----------------------------------------------------------------
    1      C       0.0013160000    -0.9912050000     0.9737630000
    2      S       0.0018160000    -0.0864050000     2.4812630000
    3      C       0.0010160000     1.4860950000     1.6926630000
    4      C       0.0021160000    -0.0868050000    -0.0941370000
    5      C      -0.0002840000     1.3033950000     0.2873630000
    6      S       0.0049160000    -0.3303050000    -1.8317370000
    7      C      -0.0005840000     1.4212950000    -2.0807370000
    8      C      -0.0030840000     2.1296950000    -0.8888370000
    9      F      -0.0078840000     3.4662950000    -0.8453370000
   10      C       0.0013160000     1.8693950000    -3.4823370000
   11      O       0.0092160000     1.0994950000    -4.4327370000
   12      O      -0.0061840000     3.2198950000    -3.5954370000
   13      C      -0.0009840000     3.7149950000    -4.9424370000
   14      H      -0.0079840000     4.8159950000    -4.8593370000
   15      H      -0.8940840000     3.3616950000    -5.4964370000
   16      H       0.9028160000     3.3720950000    -5.4855370000
   17      C       0.0013160000    -2.4264050000     0.9737630000
   18      H      -0.5321840000    -2.4344050000     1.9127630000
   19      H      -0.7268840000    -3.1043050000     0.5536630000
   20      H       0.8190160000    -2.9575050000     1.4381630000
   21      H      -0.0003840000     2.4103950000     2.2802630000
 ----------------------------------------------------------------

   11   -1389.2706827835      4.97e-07  Convergence criterion met
 Total energy in the final basis set =    -1389.2706827835
        RIMP2         total energy =     -1391.7751556784 a.u.

                    Orbital Energies (a.u.)
 --------------------------------------------------------------

 Alpha MOs
 -- Occupied --
-92.0076 -91.9911 -26.3401 -20.6133 -20.5594 -11.4072 -11.3780 -11.2985
-11.2949 -11.2941 -11.2879 -11.2837 -11.2783 -11.2264  -9.0065  -8.9912
 -6.6873  -6.6867  -6.6862  -6.6723  -6.6716  -6.6705  -1.6574  -1.4657
 -1.3683  -1.2118  -1.1367  -1.0649  -1.0194  -0.9953  -0.9584  -0.9127
 -0.8634  -0.8060  -0.7881  -0.7579  -0.7312  -0.7223  -0.6913  -0.6830
 -0.6725  -0.6605  -0.6096  -0.5995  -0.5916  -0.5774  -0.5654  -0.5559
 -0.5392  -0.5298  -0.5083  -0.4844  -0.4732  -0.4709  -0.4692  -0.4591
 -0.3895  -0.3454  -0.2881

          Ground-State Mulliken Net Atomic Charges

     Atom                 Charge (a.u.)
  ----------------------------------------
      1 C                     0.031116
      2 S                     0.075223
      3 C                    -0.210103
      4 C                    -0.004527
      5 C                    -0.095654
      6 S                    -0.007785
      7 C                    -0.157694
      8 C                     0.390391
      9 F                    -0.208979
     10 C                     0.445202
     11 O                    -0.462305
     12 O                    -0.300725
     13 C                    -0.058703
     14 H                     0.121042
     15 H                     0.094724
     16 H                     0.094711
     17 C                    -0.376778
     18 H                     0.118705
     19 H                     0.161252
     20 H                     0.136485
     21 H                     0.214401
  ----------------------------------------
  Sum of atomic charges =     0.000000

                    Cartesian Multipole Moments
 -----------------------------------------------------------------
    Charge (ESU x 10^10)
                -0.0000
    Dipole Moment (Debye)
         X      -0.3400      Y       0.5194      Z       3.8110
       Tot       3.8612
    Quadrupole Moments (Debye-Ang)
        XX     -96.4222     XY       1.0268     YY     -81.0669
        XZ       0.0374     YZ     -11.4503     ZZ     -95.5491

 Total job time:  57.07s(wall), 1960.79s(cpu)
        *  Thank you very much for using Q-Chem.  Have a nice day.  *
