 Q-Chem 5.4, Q-Chem, Inc., Pleasanton, CA (2021)
 Q-Chem 5.4.0 for Intel X86 EM64T Linux

User input:
--------------------------------------------------------------
$molecule
0 1
C	-0.268845	-0.955820	0.973560
S	-0.034245	-0.082020	2.481060
C	0.372055	1.437180	1.692460
C	-0.034045	-0.082420	-0.094340
C	0.323555	1.260980	0.287160
S	-0.094345	-0.318420	-1.831940
C	0.353755	1.374980	-2.080940
C	0.534655	2.059780	-0.889040
F	0.875955	3.352180	-0.845540
C	0.471455	1.807280	-3.482540
O	0.279955	1.061580	-4.432940
O	0.813855	3.113680	-3.595640
C	0.946955	3.590580	-4.942640
H	1.225255	4.655880	-4.859540
H	-0.007145	3.480480	-5.496640
H	1.731255	3.025480	-5.485740
C	-0.268845	-2.391020	0.973560
H	-0.449045	-2.399020	2.038360
H	-1.096845	-3.068920	0.827860
H	0.658355	-2.922120	1.130260
H	0.609855	2.330280	2.280060
$end

$rem
JOBTYPE		SP
EXCHANGE	HF
CORRELATION	pRIMP2
BASIS		cc-pvtz
METHOD		rimp2
AUX_BASIS	rimp2-cc-pvtz
SOLVENT_METHOD	PCM
PURECART	11111
SYMMETRY	false
MEM_TOTAL	110000
SCF_CONVERGENCE = 6
THRESH=10
GUI = 2
$end

$solvent
dielectric 4.90
$end
--------------------------------------------------------------

             Standard Nuclear Orientation (Angstroms)
    I     Atom           X                Y                Z
 ----------------------------------------------------------------
    1      C      -0.2688450000    -0.9558200000     0.9735600000
    2      S      -0.0342450000    -0.0820200000     2.4810600000
    3      C       0.3720550000     1.4371800000     1.6924600000
    4      C      -0.0340450000    -0.0824200000    -0.0943400000
    5      C       0.3235550000     1.2609800000     0.2871600000
    6      S      -0.0943450000    -0.3184200000    -1.8319400000
    7      C       0.3537550000     1.3749800000    -2.0809400000
    8      C       0.5346550000     2.0597800000    -0.8890400000
    9      F       0.8759550000     3.3521800000    -0.8455400000
   10      C       0.4714550000     1.8072800000    -3.4825400000
   11      O       0.2799550000     1.0615800000    -4.4329400000
   12      O       0.8138550000     3.1136800000    -3.5956400000
   13      C       0.9469550000     3.5905800000    -4.9426400000
   14      H       1.2252550000     4.6558800000    -4.8595400000
   15      H      -0.0071450000     3.4804800000    -5.4966400000
   16      H       1.7312550000     3.0254800000    -5.4857400000
   17      C      -0.2688450000    -2.3910200000     0.9735600000
   18      H      -0.4490450000    -2.3990200000     2.0383600000
   19      H      -1.0968450000    -3.0689200000     0.8278600000
   20      H       0.6583550000    -2.9221200000     1.1302600000
   21      H       0.6098550000     2.3302800000     2.2800600000
 ----------------------------------------------------------------

   11   -1389.2663145965      4.74e-07  Convergence criterion met
 Total energy in the final basis set =    -1389.2663145965
        RIMP2         total energy =     -1391.7723307701 a.u.

                    Orbital Energies (a.u.)
 --------------------------------------------------------------

 Alpha MOs
 -- Occupied --
-92.0085 -91.9925 -26.3405 -20.6134 -20.5594 -11.4073 -11.3785 -11.3014
-11.2941 -11.2903 -11.2880 -11.2859 -11.2787 -11.2248  -9.0073  -8.9926
 -6.6880  -6.6874  -6.6869  -6.6737  -6.6730  -6.6719  -1.6577  -1.4657
 -1.3683  -1.2126  -1.1372  -1.0647  -1.0200  -0.9948  -0.9588  -0.9121
 -0.8640  -0.8068  -0.7885  -0.7580  -0.7313  -0.7226  -0.6914  -0.6831
 -0.6726  -0.6606  -0.6075  -0.6022  -0.5917  -0.5772  -0.5658  -0.5572
 -0.5385  -0.5299  -0.5077  -0.4793  -0.4733  -0.4712  -0.4646  -0.4616
 -0.3915  -0.3450  -0.2918

          Ground-State Mulliken Net Atomic Charges

     Atom                 Charge (a.u.)
  ----------------------------------------
      1 C                     0.019236
      2 S                     0.077717
      3 C                    -0.208116
      4 C                    -0.010215
      5 C                    -0.090309
      6 S                    -0.001922
      7 C                    -0.158092
      8 C                     0.392443
      9 F                    -0.208760
     10 C                     0.445078
     11 O                    -0.462369
     12 O                    -0.300912
     13 C                    -0.058503
     14 H                     0.120992
     15 H                     0.094757
     16 H                     0.094676
     17 C                    -0.362439
     18 H                     0.110085
     19 H                     0.156291
     20 H                     0.135735
     21 H                     0.214625
  ----------------------------------------
  Sum of atomic charges =     0.000000

                    Cartesian Multipole Moments
 -----------------------------------------------------------------
    Charge (ESU x 10^10)
                -0.0000
    Dipole Moment (Debye)
         X       0.5117      Y       0.7050      Z       3.7987
       Tot       3.8973
    Quadrupole Moments (Debye-Ang)
        XX     -95.5239     XY       3.2318     YY     -82.2484
        XZ      -2.2043     YZ     -10.9498     ZZ     -95.4239

 Total job time:  58.00s(wall), 1928.36s(cpu)
        *  Thank you very much for using Q-Chem.  Have a nice day.  *
