 Q-Chem 5.4, Q-Chem, Inc., Pleasanton, CA (2021)
 Q-Chem 5.4.0 for Intel X86 EM64T Linux

User input:
--------------------------------------------------------------
$molecule
0 1
C	-0.796784	-0.619704	0.978264
S	-0.103384	-0.038504	2.485764
C	1.100716	0.972896	1.697164
C	-0.103484	-0.038904	-0.089636
C	0.960016	0.856396	0.291864
S	-0.288184	-0.197704	-1.827236
C	1.050116	0.932496	-2.076236
C	1.591116	1.389696	-0.884336
F	2.611916	2.252596	-0.840836
C	1.394516	1.219096	-3.477836
O	0.809916	0.718096	-4.428236
O	2.424316	2.092896	-3.590936
C	2.806916	2.407096	-4.937936
H	3.645816	3.120196	-4.854836
H	1.962216	2.864196	-5.491936
H	3.125216	1.494396	-5.481036
C	-0.796784	-2.054904	0.978264
H	-0.804184	-2.062904	-0.101636
H	0.043916	-2.732804	0.977964
H	-1.737184	-2.586004	0.984964
H	1.807916	1.568096	2.284764
$end

$rem
JOBTYPE		SP
EXCHANGE	HF
CORRELATION	pRIMP2
BASIS		cc-pvtz
METHOD		rimp2
AUX_BASIS	rimp2-cc-pvtz
SOLVENT_METHOD	PCM
PURECART	11111
SYMMETRY	false
MEM_TOTAL	110000
SCF_CONVERGENCE = 6
THRESH=10
GUI = 2
$end

$solvent
dielectric 4.90
$end
--------------------------------------------------------------

             Standard Nuclear Orientation (Angstroms)
    I     Atom           X                Y                Z
 ----------------------------------------------------------------
    1      C      -0.7967840000    -0.6197040000     0.9782640000
    2      S      -0.1033840000    -0.0385040000     2.4857640000
    3      C       1.1007160000     0.9728960000     1.6971640000
    4      C      -0.1034840000    -0.0389040000    -0.0896360000
    5      C       0.9600160000     0.8563960000     0.2918640000
    6      S      -0.2881840000    -0.1977040000    -1.8272360000
    7      C       1.0501160000     0.9324960000    -2.0762360000
    8      C       1.5911160000     1.3896960000    -0.8843360000
    9      F       2.6119160000     2.2525960000    -0.8408360000
   10      C       1.3945160000     1.2190960000    -3.4778360000
   11      O       0.8099160000     0.7180960000    -4.4282360000
   12      O       2.4243160000     2.0928960000    -3.5909360000
   13      C       2.8069160000     2.4070960000    -4.9379360000
   14      H       3.6458160000     3.1201960000    -4.8548360000
   15      H       1.9622160000     2.8641960000    -5.4919360000
   16      H       3.1252160000     1.4943960000    -5.4810360000
   17      C      -0.7967840000    -2.0549040000     0.9782640000
   18      H      -0.8041840000    -2.0629040000    -0.1016360000
   19      H       0.0439160000    -2.7328040000     0.9779640000
   20      H      -1.7371840000    -2.5860040000     0.9849640000
   21      H       1.8079160000     1.5680960000     2.2847640000
 ----------------------------------------------------------------

   11   -1389.2219793506      5.22e-07  Convergence criterion met
 Total energy in the final basis set =    -1389.2219793506
        RIMP2         total energy =     -1391.7368671714 a.u.

                    Orbital Energies (a.u.)
 --------------------------------------------------------------

 Alpha MOs
 -- Occupied --
-92.0020 -92.0007 -26.3436 -20.6143 -20.5603 -11.4087 -11.3834 -11.3187
-11.3035 -11.2951 -11.2888 -11.2808 -11.2672 -11.2163  -9.0020  -9.0004
 -6.6829  -6.6822  -6.6812  -6.6811  -6.6802  -6.6801  -1.6608  -1.4668
 -1.3694  -1.2207  -1.1401  -1.0711  -1.0213  -0.9913  -0.9599  -0.9094
 -0.8657  -0.8086  -0.7913  -0.7610  -0.7314  -0.7254  -0.6979  -0.6843
 -0.6736  -0.6620  -0.6091  -0.6034  -0.5925  -0.5835  -0.5635  -0.5605
 -0.5308  -0.5223  -0.5112  -0.4885  -0.4752  -0.4728  -0.4684  -0.4331
 -0.3893  -0.3432  -0.3001

          Ground-State Mulliken Net Atomic Charges

     Atom                 Charge (a.u.)
  ----------------------------------------
      1 C                    -0.098154
      2 S                     0.088066
      3 C                    -0.157920
      4 C                     0.044662
      5 C                    -0.102534
      6 S                     0.025229
      7 C                    -0.158396
      8 C                     0.392894
      9 F                    -0.205972
     10 C                     0.448102
     11 O                    -0.463913
     12 O                    -0.301507
     13 C                    -0.058316
     14 H                     0.121210
     15 H                     0.094956
     16 H                     0.094801
     17 C                    -0.345162
     18 H                     0.103729
     19 H                     0.145221
     20 H                     0.118550
     21 H                     0.214455
  ----------------------------------------
  Sum of atomic charges =     0.000000

                    Cartesian Multipole Moments
 -----------------------------------------------------------------
    Charge (ESU x 10^10)
                -0.0000
    Dipole Moment (Debye)
         X       2.6011      Y       0.8356      Z       2.2615
       Tot       3.5466
    Quadrupole Moments (Debye-Ang)
        XX     -90.7876     XY       5.4211     YY     -89.4396
        XZ      -4.6462     YZ      -4.4587     ZZ     -97.2256

 Total job time:  57.94s(wall), 2005.77s(cpu)
        *  Thank you very much for using Q-Chem.  Have a nice day.  *
