 Q-Chem 5.4, Q-Chem, Inc., Pleasanton, CA (2021)
 Q-Chem 5.4.0 for Intel X86 EM64T Linux

User input:
--------------------------------------------------------------
$molecule
0 1
C	-0.438936	-0.893839	0.973626
S	-0.056136	-0.074039	2.481126
C	0.607764	1.351461	1.692526
C	-0.056036	-0.074439	-0.094274
C	0.529364	1.186461	0.287226
S	-0.156336	-0.296439	-1.831874
C	0.578864	1.293461	-2.080874
C	0.876064	1.936461	-0.888974
F	1.436564	3.149961	-0.845474
C	0.769964	1.698761	-3.482474
O	0.451864	0.997661	-4.432874
O	1.333964	2.925861	-3.595574
C	1.547964	3.372361	-4.942574
H	2.006864	4.373161	-4.859474
H	0.589164	3.429561	-5.496574
H	2.222164	2.679661	-5.485674
C	-0.438936	-2.329039	0.973626
H	-0.801336	-2.337039	1.991026
H	-1.229036	-3.006939	0.686326
H	0.446964	-2.860139	1.289026
H	0.997064	2.189761	2.280126
$end

$rem
JOBTYPE		SP
EXCHANGE	HF
CORRELATION	pRIMP2
BASIS		cc-pvtz
METHOD		rimp2
AUX_BASIS	rimp2-cc-pvtz
SOLVENT_METHOD	PCM
PURECART	11111
SYMMETRY	false
MEM_TOTAL	110000
SCF_CONVERGENCE = 6
THRESH=10
GUI = 2
$end

$solvent
dielectric 4.90
$end
--------------------------------------------------------------

             Standard Nuclear Orientation (Angstroms)
    I     Atom           X                Y                Z
 ----------------------------------------------------------------
    1      C      -0.4389360000    -0.8938390000     0.9736260000
    2      S      -0.0561360000    -0.0740390000     2.4811260000
    3      C       0.6077640000     1.3514610000     1.6925260000
    4      C      -0.0560360000    -0.0744390000    -0.0942740000
    5      C       0.5293640000     1.1864610000     0.2872260000
    6      S      -0.1563360000    -0.2964390000    -1.8318740000
    7      C       0.5788640000     1.2934610000    -2.0808740000
    8      C       0.8760640000     1.9364610000    -0.8889740000
    9      F       1.4365640000     3.1499610000    -0.8454740000
   10      C       0.7699640000     1.6987610000    -3.4824740000
   11      O       0.4518640000     0.9976610000    -4.4328740000
   12      O       1.3339640000     2.9258610000    -3.5955740000
   13      C       1.5479640000     3.3723610000    -4.9425740000
   14      H       2.0068640000     4.3731610000    -4.8594740000
   15      H       0.5891640000     3.4295610000    -5.4965740000
   16      H       2.2221640000     2.6796610000    -5.4856740000
   17      C      -0.4389360000    -2.3290390000     0.9736260000
   18      H      -0.8013360000    -2.3370390000     1.9910260000
   19      H      -1.2290360000    -3.0069390000     0.6863260000
   20      H       0.4469640000    -2.8601390000     1.2890260000
   21      H       0.9970640000     2.1897610000     2.2801260000
 ----------------------------------------------------------------

   11   -1389.2589436128      4.65e-07  Convergence criterion met
 Total energy in the final basis set =    -1389.2589436128
        RIMP2         total energy =     -1391.7664725829 a.u.

                    Orbital Energies (a.u.)
 --------------------------------------------------------------

 Alpha MOs
 -- Occupied --
-92.0079 -91.9935 -26.3407 -20.6134 -20.5595 -11.4074 -11.3789 -11.3039
-11.2941 -11.2880 -11.2878 -11.2863 -11.2789 -11.2235  -9.0068  -8.9936
 -6.6876  -6.6869  -6.6865  -6.6746  -6.6739  -6.6728  -1.6580  -1.4658
 -1.3684  -1.2134  -1.1377  -1.0647  -1.0203  -0.9941  -0.9589  -0.9116
 -0.8642  -0.8072  -0.7887  -0.7581  -0.7313  -0.7229  -0.6917  -0.6832
 -0.6726  -0.6605  -0.6084  -0.6010  -0.5914  -0.5783  -0.5650  -0.5581
 -0.5346  -0.5299  -0.5082  -0.4802  -0.4730  -0.4714  -0.4636  -0.4627
 -0.3899  -0.3448  -0.2918

          Ground-State Mulliken Net Atomic Charges

     Atom                 Charge (a.u.)
  ----------------------------------------
      1 C                    -0.008955
      2 S                     0.080474
      3 C                    -0.200955
      4 C                    -0.002037
      5 C                    -0.090477
      6 S                     0.002807
      7 C                    -0.159119
      8 C                     0.393147
      9 F                    -0.208524
     10 C                     0.445612
     11 O                    -0.462533
     12 O                    -0.301062
     13 C                    -0.058526
     14 H                     0.121036
     15 H                     0.094788
     16 H                     0.094710
     17 C                    -0.359523
     18 H                     0.110005
     19 H                     0.156473
     20 H                     0.138200
     21 H                     0.214459
  ----------------------------------------
  Sum of atomic charges =     0.000000

                    Cartesian Multipole Moments
 -----------------------------------------------------------------
    Charge (ESU x 10^10)
                -0.0000
    Dipole Moment (Debye)
         X       0.8523      Y       0.7245      Z       3.7151
       Tot       3.8798
    Quadrupole Moments (Debye-Ang)
        XX     -94.3739     XY       5.0206     YY     -83.7291
        XZ      -3.5319     YZ     -10.0746     ZZ     -95.3790

 Total job time:  58.61s(wall), 2054.39s(cpu)
        *  Thank you very much for using Q-Chem.  Have a nice day.  *
