 Q-Chem 5.4, Q-Chem, Inc., Pleasanton, CA (2021)
 Q-Chem 5.4.0 for Intel X86 EM64T Linux

User input:
--------------------------------------------------------------
$molecule
0 1
C	-0.795369	-0.619704	0.974225
S	-0.101969	-0.038504	2.481725
C	1.102131	0.972896	1.693125
C	-0.102069	-0.038904	-0.093675
C	0.961431	0.856396	0.287825
S	-0.286769	-0.197704	-1.831275
C	1.051531	0.932496	-2.080275
C	1.592531	1.389696	-0.888375
F	2.613331	2.252596	-0.844875
C	1.395931	1.219096	-3.481875
O	0.811331	0.718096	-4.432275
O	2.425731	2.092896	-3.594975
C	2.808331	2.407096	-4.941975
H	3.647231	3.120196	-4.858875
H	1.963631	2.864196	-5.495975
H	3.126631	1.494396	-5.485075
C	-0.795369	-2.054904	0.974225
H	-1.617869	-2.062904	1.674125
H	-1.335969	-2.732804	0.330325
H	-0.185769	-2.586004	1.690325
H	1.809331	1.568096	2.280725
$end

$rem
JOBTYPE		SP
EXCHANGE	HF
CORRELATION	pRIMP2
BASIS		cc-pvtz
METHOD		rimp2
AUX_BASIS	rimp2-cc-pvtz
SOLVENT_METHOD	PCM
PURECART	11111
SYMMETRY	false
MEM_TOTAL	110000
SCF_CONVERGENCE = 6
THRESH=10
GUI = 2
$end

$solvent
dielectric 4.90
$end
--------------------------------------------------------------

             Standard Nuclear Orientation (Angstroms)
    I     Atom           X                Y                Z
 ----------------------------------------------------------------
    1      C      -0.7953690000    -0.6197040000     0.9742250000
    2      S      -0.1019690000    -0.0385040000     2.4817250000
    3      C       1.1021310000     0.9728960000     1.6931250000
    4      C      -0.1020690000    -0.0389040000    -0.0936750000
    5      C       0.9614310000     0.8563960000     0.2878250000
    6      S      -0.2867690000    -0.1977040000    -1.8312750000
    7      C       1.0515310000     0.9324960000    -2.0802750000
    8      C       1.5925310000     1.3896960000    -0.8883750000
    9      F       2.6133310000     2.2525960000    -0.8448750000
   10      C       1.3959310000     1.2190960000    -3.4818750000
   11      O       0.8113310000     0.7180960000    -4.4322750000
   12      O       2.4257310000     2.0928960000    -3.5949750000
   13      C       2.8083310000     2.4070960000    -4.9419750000
   14      H       3.6472310000     3.1201960000    -4.8588750000
   15      H       1.9636310000     2.8641960000    -5.4959750000
   16      H       3.1266310000     1.4943960000    -5.4850750000
   17      C      -0.7953690000    -2.0549040000     0.9742250000
   18      H      -1.6178690000    -2.0629040000     1.6741250000
   19      H      -1.3359690000    -2.7328040000     0.3303250000
   20      H      -0.1857690000    -2.5860040000     1.6903250000
   21      H       1.8093310000     1.5680960000     2.2807250000
 ----------------------------------------------------------------

   11   -1389.2180911395      5.02e-07  Convergence criterion met
 Total energy in the final basis set =    -1389.2180911395
        RIMP2         total energy =     -1391.7319728197 a.u.

                    Orbital Energies (a.u.)
 --------------------------------------------------------------

 Alpha MOs
 -- Occupied --
-92.0047 -91.9989 -26.3422 -20.6138 -20.5598 -11.4080 -11.3813 -11.3172
-11.2974 -11.2942 -11.2884 -11.2800 -11.2674 -11.2158  -9.0042  -8.9988
 -6.6850  -6.6842  -6.6839  -6.6798  -6.6791  -6.6780  -1.6595  -1.4662
 -1.3688  -1.2179  -1.1406  -1.0659  -1.0218  -0.9916  -0.9600  -0.9088
 -0.8656  -0.8094  -0.7900  -0.7593  -0.7322  -0.7242  -0.6940  -0.6836
 -0.6731  -0.6605  -0.6118  -0.5980  -0.5902  -0.5774  -0.5652  -0.5607
 -0.5308  -0.5232  -0.5089  -0.4850  -0.4732  -0.4717  -0.4687  -0.4550
 -0.3798  -0.3439  -0.2906

          Ground-State Mulliken Net Atomic Charges

     Atom                 Charge (a.u.)
  ----------------------------------------
      1 C                    -0.115404
      2 S                     0.086660
      3 C                    -0.158104
      4 C                     0.076050
      5 C                    -0.109658
      6 S                     0.024757
      7 C                    -0.158708
      8 C                     0.391218
      9 F                    -0.207427
     10 C                     0.447731
     11 O                    -0.463578
     12 O                    -0.301339
     13 C                    -0.058400
     14 H                     0.121076
     15 H                     0.094859
     16 H                     0.094765
     17 C                    -0.384397
     18 H                     0.120757
     19 H                     0.149924
     20 H                     0.133288
     21 H                     0.215930
  ----------------------------------------
  Sum of atomic charges =     0.000000

                    Cartesian Multipole Moments
 -----------------------------------------------------------------
    Charge (ESU x 10^10)
                -0.0000
    Dipole Moment (Debye)
         X       2.0585      Y       0.7005      Z       3.2694
       Tot       3.9264
    Quadrupole Moments (Debye-Ang)
        XX     -90.5044     XY       6.7907     YY     -89.2973
        XZ      -5.4425     YZ      -6.3902     ZZ     -95.0668

 Total job time:  58.51s(wall), 2024.46s(cpu)
        *  Thank you very much for using Q-Chem.  Have a nice day.  *
