 Q-Chem 5.4, Q-Chem, Inc., Pleasanton, CA (2021)
 Q-Chem 5.4.0 for Intel X86 EM64T Linux

User input:
--------------------------------------------------------------
$molecule
0 1
C	-0.795640	-0.619704	0.977832
S	-0.102240	-0.038504	2.485332
C	1.101860	0.972896	1.696732
C	-0.102340	-0.038904	-0.090068
C	0.961160	0.856396	0.291432
S	-0.287040	-0.197704	-1.827668
C	1.051260	0.932496	-2.076668
C	1.592260	1.389696	-0.884768
F	2.613060	2.252596	-0.841268
C	1.395660	1.219096	-3.478268
O	0.811060	0.718096	-4.428668
O	2.425460	2.092896	-3.591368
C	2.808060	2.407096	-4.938368
H	3.646960	3.120196	-4.855268
H	1.963360	2.864196	-5.492368
H	3.126360	1.494396	-5.481468
C	-0.795640	-2.054904	0.977832
H	-1.342040	-2.062904	0.046332
H	-0.067740	-2.732804	0.557232
H	-1.606640	-2.586004	1.453732
H	1.809060	1.568096	2.284332
$end

$rem
JOBTYPE		SP
EXCHANGE	HF
CORRELATION	pRIMP2
BASIS		cc-pvtz
METHOD		rimp2
AUX_BASIS	rimp2-cc-pvtz
SOLVENT_METHOD	PCM
PURECART	11111
SYMMETRY	false
MEM_TOTAL	110000
SCF_CONVERGENCE = 6
THRESH=10
GUI = 2
$end

$solvent
dielectric 4.90
$end
--------------------------------------------------------------

             Standard Nuclear Orientation (Angstroms)
    I     Atom           X                Y                Z
 ----------------------------------------------------------------
    1      C      -0.7956400000    -0.6197040000     0.9778320000
    2      S      -0.1022400000    -0.0385040000     2.4853320000
    3      C       1.1018600000     0.9728960000     1.6967320000
    4      C      -0.1023400000    -0.0389040000    -0.0900680000
    5      C       0.9611600000     0.8563960000     0.2914320000
    6      S      -0.2870400000    -0.1977040000    -1.8276680000
    7      C       1.0512600000     0.9324960000    -2.0766680000
    8      C       1.5922600000     1.3896960000    -0.8847680000
    9      F       2.6130600000     2.2525960000    -0.8412680000
   10      C       1.3956600000     1.2190960000    -3.4782680000
   11      O       0.8110600000     0.7180960000    -4.4286680000
   12      O       2.4254600000     2.0928960000    -3.5913680000
   13      C       2.8080600000     2.4070960000    -4.9383680000
   14      H       3.6469600000     3.1201960000    -4.8552680000
   15      H       1.9633600000     2.8641960000    -5.4923680000
   16      H       3.1263600000     1.4943960000    -5.4814680000
   17      C      -0.7956400000    -2.0549040000     0.9778320000
   18      H      -1.3420400000    -2.0629040000     0.0463320000
   19      H      -0.0677400000    -2.7328040000     0.5572320000
   20      H      -1.6066400000    -2.5860040000     1.4537320000
   21      H       1.8090600000     1.5680960000     2.2843320000
 ----------------------------------------------------------------

   11   -1389.2248495225      5.19e-07  Convergence criterion met
 Total energy in the final basis set =    -1389.2248495225
        RIMP2         total energy =     -1391.7390385792 a.u.

                    Orbital Energies (a.u.)
 --------------------------------------------------------------

 Alpha MOs
 -- Occupied --
-92.0017 -91.9991 -26.3434 -20.6143 -20.5603 -11.4087 -11.3829 -11.3182
-11.3039 -11.2951 -11.2887 -11.2813 -11.2668 -11.2173  -9.0015  -8.9990
 -6.6825  -6.6818  -6.6808  -6.6797  -6.6788  -6.6786  -1.6605  -1.4667
 -1.3694  -1.2198  -1.1395  -1.0694  -1.0210  -0.9918  -0.9597  -0.9102
 -0.8656  -0.8083  -0.7910  -0.7606  -0.7314  -0.7252  -0.6972  -0.6842
 -0.6736  -0.6619  -0.6108  -0.6009  -0.5929  -0.5791  -0.5626  -0.5587
 -0.5312  -0.5260  -0.5094  -0.4914  -0.4761  -0.4726  -0.4696  -0.4355
 -0.3853  -0.3450  -0.2959

          Ground-State Mulliken Net Atomic Charges

     Atom                 Charge (a.u.)
  ----------------------------------------
      1 C                    -0.086798
      2 S                     0.086853
      3 C                    -0.156869
      4 C                     0.039923
      5 C                    -0.110639
      6 S                     0.028970
      7 C                    -0.157922
      8 C                     0.393990
      9 F                    -0.206215
     10 C                     0.447660
     11 O                    -0.463729
     12 O                    -0.301408
     13 C                    -0.058344
     14 H                     0.121220
     15 H                     0.094946
     16 H                     0.094806
     17 C                    -0.368605
     18 H                     0.108287
     19 H                     0.147443
     20 H                     0.132414
     21 H                     0.214017
  ----------------------------------------
  Sum of atomic charges =     0.000000

                    Cartesian Multipole Moments
 -----------------------------------------------------------------
    Charge (ESU x 10^10)
                -0.0000
    Dipole Moment (Debye)
         X       2.2450      Y       0.7821      Z       2.3105
       Tot       3.3151
    Quadrupole Moments (Debye-Ang)
        XX     -90.4236     XY       6.3247     YY     -89.2942
        XZ      -5.3564     YZ      -4.6767     ZZ     -97.0837

 Total job time:  59.77s(wall), 2038.80s(cpu)
        *  Thank you very much for using Q-Chem.  Have a nice day.  *
