 Q-Chem 5.4, Q-Chem, Inc., Pleasanton, CA (2021)
 Q-Chem 5.4.0 for Intel X86 EM64T Linux

User input:
--------------------------------------------------------------
$molecule
0 1
C	-0.437569	-0.893839	0.977246
S	-0.054769	-0.074039	2.484746
C	0.609131	1.351461	1.696146
C	-0.054669	-0.074439	-0.090654
C	0.530731	1.186461	0.290846
S	-0.154969	-0.296439	-1.828254
C	0.580231	1.293461	-2.077254
C	0.877431	1.936461	-0.885354
F	1.437931	3.149961	-0.841854
C	0.771331	1.698761	-3.478854
O	0.453231	0.997661	-4.429254
O	1.335331	2.925861	-3.591954
C	1.549331	3.372361	-4.938954
H	2.008231	4.373161	-4.855854
H	0.590531	3.429561	-5.492954
H	2.223531	2.679661	-5.482054
C	-0.437569	-2.329039	0.977246
H	-1.269669	-2.337039	0.288746
H	0.102631	-3.006939	0.333046
H	-1.036869	-2.860139	1.701846
H	0.998431	2.189761	2.283746
$end

$rem
JOBTYPE		SP
EXCHANGE	HF
CORRELATION	pRIMP2
BASIS		cc-pvtz
METHOD		rimp2
AUX_BASIS	rimp2-cc-pvtz
SOLVENT_METHOD	PCM
PURECART	11111
SYMMETRY	false
MEM_TOTAL	110000
SCF_CONVERGENCE = 6
THRESH=10
GUI = 2
$end

$solvent
dielectric 4.90
$end
--------------------------------------------------------------

             Standard Nuclear Orientation (Angstroms)
    I     Atom           X                Y                Z
 ----------------------------------------------------------------
    1      C      -0.4375690000    -0.8938390000     0.9772460000
    2      S      -0.0547690000    -0.0740390000     2.4847460000
    3      C       0.6091310000     1.3514610000     1.6961460000
    4      C      -0.0546690000    -0.0744390000    -0.0906540000
    5      C       0.5307310000     1.1864610000     0.2908460000
    6      S      -0.1549690000    -0.2964390000    -1.8282540000
    7      C       0.5802310000     1.2934610000    -2.0772540000
    8      C       0.8774310000     1.9364610000    -0.8853540000
    9      F       1.4379310000     3.1499610000    -0.8418540000
   10      C       0.7713310000     1.6987610000    -3.4788540000
   11      O       0.4532310000     0.9976610000    -4.4292540000
   12      O       1.3353310000     2.9258610000    -3.5919540000
   13      C       1.5493310000     3.3723610000    -4.9389540000
   14      H       2.0082310000     4.3731610000    -4.8558540000
   15      H       0.5905310000     3.4295610000    -5.4929540000
   16      H       2.2235310000     2.6796610000    -5.4820540000
   17      C      -0.4375690000    -2.3290390000     0.9772460000
   18      H      -1.2696690000    -2.3370390000     0.2887460000
   19      H       0.1026310000    -3.0069390000     0.3330460000
   20      H      -1.0368690000    -2.8601390000     1.7018460000
   21      H       0.9984310000     2.1897610000     2.2837460000
 ----------------------------------------------------------------

   11   -1389.2596243436      4.71e-07  Convergence criterion met
 Total energy in the final basis set =    -1389.2596243436
        RIMP2         total energy =     -1391.7680015481 a.u.

                    Orbital Energies (a.u.)
 --------------------------------------------------------------

 Alpha MOs
 -- Occupied --
-92.0030 -91.9943 -26.3411 -20.6136 -20.5597 -11.4077 -11.3794 -11.3000
-11.2945 -11.2913 -11.2885 -11.2882 -11.2792 -11.2249  -9.0022  -8.9944
 -6.6830  -6.6823  -6.6818  -6.6754  -6.6747  -6.6736  -1.6582  -1.4660
 -1.3686  -1.2134  -1.1360  -1.0667  -1.0188  -0.9947  -0.9582  -0.9133
 -0.8635  -0.8053  -0.7889  -0.7590  -0.7299  -0.7231  -0.6939  -0.6834
 -0.6728  -0.6607  -0.6116  -0.5965  -0.5909  -0.5795  -0.5634  -0.5573
 -0.5368  -0.5295  -0.5074  -0.4938  -0.4741  -0.4716  -0.4694  -0.4534
 -0.3848  -0.3447  -0.2867

          Ground-State Mulliken Net Atomic Charges

     Atom                 Charge (a.u.)
  ----------------------------------------
      1 C                     0.017837
      2 S                     0.081113
      3 C                    -0.204495
      4 C                    -0.035027
      5 C                    -0.085771
      6 S                    -0.000788
      7 C                    -0.155584
      8 C                     0.386617
      9 F                    -0.207782
     10 C                     0.446255
     11 O                    -0.462671
     12 O                    -0.301012
     13 C                    -0.058478
     14 H                     0.121151
     15 H                     0.094771
     16 H                     0.094705
     17 C                    -0.378590
     18 H                     0.130053
     19 H                     0.161397
     20 H                     0.144528
     21 H                     0.211772
  ----------------------------------------
  Sum of atomic charges =     0.000000

                    Cartesian Multipole Moments
 -----------------------------------------------------------------
    Charge (ESU x 10^10)
                -0.0000
    Dipole Moment (Debye)
         X       0.4290      Y       0.4339      Z       2.7373
       Tot       2.8045
    Quadrupole Moments (Debye-Ang)
        XX     -94.4032     XY       5.7724     YY     -83.3509
        XZ      -4.1934     YZ      -8.1502     ZZ     -97.2874

 Total job time:  65.50s(wall), 2186.17s(cpu)
        *  Thank you very much for using Q-Chem.  Have a nice day.  *
