 Q-Chem 5.4, Q-Chem, Inc., Pleasanton, CA (2021)
 Q-Chem 5.4.0 for Intel X86 EM64T Linux

User input:
--------------------------------------------------------------
$molecule
0 1
C	-0.178433	-0.975447	0.977246
S	-0.020833	-0.084547	2.484746
C	0.251467	1.464253	1.696146
C	-0.020633	-0.084847	-0.090654
C	0.218467	1.284553	0.290846
S	-0.060133	-0.325247	-1.828254
C	0.238567	1.400753	-2.077254
C	0.359167	2.098753	-0.885354
F	0.586567	3.415953	-0.841854
C	0.318267	1.841653	-3.478854
O	0.192467	1.082153	-4.429254
O	0.545467	3.172953	-3.591954
C	0.636567	3.659653	-4.938954
H	0.820867	4.745153	-4.855854
H	-0.304333	3.466753	-5.492954
H	1.467067	3.165053	-5.482054
C	-0.178433	-2.410647	0.977246
H	-1.010533	-2.418647	0.288746
H	0.361767	-3.088547	0.333046
H	-0.777733	-2.941747	1.701846
H	0.410567	2.374753	2.283746
$end

$rem
JOBTYPE		SP
EXCHANGE	HF
CORRELATION	pRIMP2
BASIS		cc-pvtz
METHOD		rimp2
AUX_BASIS	rimp2-cc-pvtz
SOLVENT_METHOD	PCM
PURECART	11111
SYMMETRY	false
MEM_TOTAL	110000
SCF_CONVERGENCE = 6
THRESH=10
GUI = 2
$end

$solvent
dielectric 4.90
$end
--------------------------------------------------------------

             Standard Nuclear Orientation (Angstroms)
    I     Atom           X                Y                Z
 ----------------------------------------------------------------
    1      C      -0.1784330000    -0.9754470000     0.9772460000
    2      S      -0.0208330000    -0.0845470000     2.4847460000
    3      C       0.2514670000     1.4642530000     1.6961460000
    4      C      -0.0206330000    -0.0848470000    -0.0906540000
    5      C       0.2184670000     1.2845530000     0.2908460000
    6      S      -0.0601330000    -0.3252470000    -1.8282540000
    7      C       0.2385670000     1.4007530000    -2.0772540000
    8      C       0.3591670000     2.0987530000    -0.8853540000
    9      F       0.5865670000     3.4159530000    -0.8418540000
   10      C       0.3182670000     1.8416530000    -3.4788540000
   11      O       0.1924670000     1.0821530000    -4.4292540000
   12      O       0.5454670000     3.1729530000    -3.5919540000
   13      C       0.6365670000     3.6596530000    -4.9389540000
   14      H       0.8208670000     4.7451530000    -4.8558540000
   15      H      -0.3043330000     3.4667530000    -5.4929540000
   16      H       1.4670670000     3.1650530000    -5.4820540000
   17      C      -0.1784330000    -2.4106470000     0.9772460000
   18      H      -1.0105330000    -2.4186470000     0.2887460000
   19      H       0.3617670000    -3.0885470000     0.3330460000
   20      H      -0.7777330000    -2.9417470000     1.7018460000
   21      H       0.4105670000     2.3747530000     2.2837460000
 ----------------------------------------------------------------

   11   -1389.2709576438      4.85e-07  Convergence criterion met
 Total energy in the final basis set =    -1389.2709576438
        RIMP2         total energy =     -1391.7766444065 a.u.

                    Orbital Energies (a.u.)
 --------------------------------------------------------------

 Alpha MOs
 -- Occupied --
-92.0048 -91.9925 -26.3405 -20.6135 -20.5596 -11.4075 -11.3787 -11.2980
-11.2953 -11.2945 -11.2881 -11.2845 -11.2787 -11.2281  -9.0037  -8.9927
 -6.6845  -6.6839  -6.6834  -6.6737  -6.6730  -6.6719  -1.6577  -1.4659
 -1.3685  -1.2122  -1.1355  -1.0670  -1.0183  -0.9955  -0.9580  -0.9138
 -0.8631  -0.8046  -0.7885  -0.7588  -0.7299  -0.7226  -0.6935  -0.6833
 -0.6727  -0.6606  -0.6120  -0.5962  -0.5900  -0.5817  -0.5641  -0.5575
 -0.5379  -0.5296  -0.5075  -0.4936  -0.4734  -0.4713  -0.4688  -0.4583
 -0.3857  -0.3446  -0.2857

          Ground-State Mulliken Net Atomic Charges

     Atom                 Charge (a.u.)
  ----------------------------------------
      1 C                     0.050047
      2 S                     0.077189
      3 C                    -0.215749
      4 C                    -0.035354
      5 C                    -0.088326
      6 S                    -0.010367
      7 C                    -0.155688
      8 C                     0.384854
      9 F                    -0.208318
     10 C                     0.445480
     11 O                    -0.462506
     12 O                    -0.300800
     13 C                    -0.058619
     14 H                     0.121128
     15 H                     0.094722
     16 H                     0.094723
     17 C                    -0.380241
     18 H                     0.129234
     19 H                     0.158734
     20 H                     0.147794
     21 H                     0.212062
  ----------------------------------------
  Sum of atomic charges =     0.000000

                    Cartesian Multipole Moments
 -----------------------------------------------------------------
    Charge (ESU x 10^10)
                -0.0000
    Dipole Moment (Debye)
         X      -0.2017      Y       0.2769      Z       2.8247
       Tot       2.8454
    Quadrupole Moments (Debye-Ang)
        XX     -96.1781     XY       3.4112     YY     -81.1682
        XZ      -2.2930     YZ      -9.1993     ZZ     -97.3848

 Total job time:  57.51s(wall), 1954.83s(cpu)
        *  Thank you very much for using Q-Chem.  Have a nice day.  *
