 Q-Chem 5.4, Q-Chem, Inc., Pleasanton, CA (2021)
 Q-Chem 5.4.0 for Intel X86 EM64T Linux

User input:
--------------------------------------------------------------
$molecule
0 1
C	-0.354239	-0.928548	0.977832
S	-0.044339	-0.078548	2.485332
C	0.492761	1.399452	1.696732
C	-0.044239	-0.078948	-0.090068
C	0.429061	1.228152	0.291432
S	-0.124839	-0.308748	-1.827668
C	0.469061	1.339152	-2.076668
C	0.709061	2.005552	-0.884768
F	1.161661	3.263252	-0.841268
C	0.624061	1.759552	-3.478268
O	0.368261	1.033352	-4.428668
O	1.078961	3.031152	-3.591368
C	1.253261	3.494552	-4.938368
H	1.623261	4.531652	-4.855268
H	0.293161	3.468052	-5.492368
H	1.985261	2.863252	-5.481468
C	-0.354239	-2.363748	0.977832
H	-0.900639	-2.371748	0.046332
H	0.373661	-3.041648	0.557232
H	-1.165239	-2.894848	1.453732
H	0.807561	2.268452	2.284332
$end

$rem
JOBTYPE		SP
EXCHANGE	HF
CORRELATION	pRIMP2
BASIS		cc-pvtz
METHOD		rimp2
AUX_BASIS	rimp2-cc-pvtz
SOLVENT_METHOD	PCM
PURECART	11111
SYMMETRY	false
MEM_TOTAL	110000
SCF_CONVERGENCE = 6
THRESH=10
GUI = 2
$end

$solvent
dielectric 4.90
$end
--------------------------------------------------------------

             Standard Nuclear Orientation (Angstroms)
    I     Atom           X                Y                Z
 ----------------------------------------------------------------
    1      C      -0.3542390000    -0.9285480000     0.9778320000
    2      S      -0.0443390000    -0.0785480000     2.4853320000
    3      C       0.4927610000     1.3994520000     1.6967320000
    4      C      -0.0442390000    -0.0789480000    -0.0900680000
    5      C       0.4290610000     1.2281520000     0.2914320000
    6      S      -0.1248390000    -0.3087480000    -1.8276680000
    7      C       0.4690610000     1.3391520000    -2.0766680000
    8      C       0.7090610000     2.0055520000    -0.8847680000
    9      F       1.1616610000     3.2632520000    -0.8412680000
   10      C       0.6240610000     1.7595520000    -3.4782680000
   11      O       0.3682610000     1.0333520000    -4.4286680000
   12      O       1.0789610000     3.0311520000    -3.5913680000
   13      C       1.2532610000     3.4945520000    -4.9383680000
   14      H       1.6232610000     4.5316520000    -4.8552680000
   15      H       0.2931610000     3.4680520000    -5.4923680000
   16      H       1.9852610000     2.8632520000    -5.4814680000
   17      C      -0.3542390000    -2.3637480000     0.9778320000
   18      H      -0.9006390000    -2.3717480000     0.0463320000
   19      H       0.3736610000    -3.0416480000     0.5572320000
   20      H      -1.1652390000    -2.8948480000     1.4537320000
   21      H       0.8075610000     2.2684520000     2.2843320000
 ----------------------------------------------------------------

   11   -1389.2655335755      4.61e-07  Convergence criterion met
 Total energy in the final basis set =    -1389.2655335755
        RIMP2         total energy =     -1391.7729426016 a.u.

                    Orbital Energies (a.u.)
 --------------------------------------------------------------

 Alpha MOs
 -- Occupied --
-92.0025 -91.9946 -26.3414 -20.6137 -20.5598 -11.4078 -11.3799 -11.3015
-11.2946 -11.2915 -11.2902 -11.2883 -11.2792 -11.2252  -9.0017  -8.9947
 -6.6825  -6.6818  -6.6814  -6.6757  -6.6750  -6.6739  -1.6585  -1.4661
 -1.3687  -1.2139  -1.1357  -1.0674  -1.0189  -0.9947  -0.9584  -0.9138
 -0.8636  -0.8055  -0.7891  -0.7593  -0.7300  -0.7233  -0.6945  -0.6835
 -0.6729  -0.6611  -0.6104  -0.5993  -0.5915  -0.5812  -0.5647  -0.5563
 -0.5384  -0.5300  -0.5073  -0.4893  -0.4739  -0.4718  -0.4673  -0.4516
 -0.3893  -0.3449  -0.2905

          Ground-State Mulliken Net Atomic Charges

     Atom                 Charge (a.u.)
  ----------------------------------------
      1 C                     0.023671
      2 S                     0.077607
      3 C                    -0.201433
      4 C                    -0.029614
      5 C                    -0.090233
      6 S                    -0.001676
      7 C                    -0.157534
      8 C                     0.388820
      9 F                    -0.207544
     10 C                     0.446017
     11 O                    -0.462758
     12 O                    -0.301028
     13 C                    -0.058425
     14 H                     0.121091
     15 H                     0.094777
     16 H                     0.094726
     17 C                    -0.363815
     18 H                     0.115964
     19 H                     0.154021
     20 H                     0.144725
     21 H                     0.212641
  ----------------------------------------
  Sum of atomic charges =     0.000000

                    Cartesian Multipole Moments
 -----------------------------------------------------------------
    Charge (ESU x 10^10)
                -0.0000
    Dipole Moment (Debye)
         X       0.4564      Y       0.5946      Z       2.6004
       Tot       2.7063
    Quadrupole Moments (Debye-Ang)
        XX     -94.9723     XY       4.5606     YY     -82.6266
        XZ      -3.2398     YZ      -7.9692     ZZ     -97.7711

 Total job time:  54.79s(wall), 1927.80s(cpu)
        *  Thank you very much for using Q-Chem.  Have a nice day.  *
