 Q-Chem 5.4, Q-Chem, Inc., Pleasanton, CA (2021)
 Q-Chem 5.4.0 for Intel X86 EM64T Linux

User input:
--------------------------------------------------------------
$molecule
0 1
C	-0.271174	-0.955820	0.974943
S	-0.036574	-0.082020	2.482443
C	0.369726	1.437180	1.693843
C	-0.036374	-0.082420	-0.092957
C	0.321226	1.260980	0.288543
S	-0.096674	-0.318420	-1.830557
C	0.351426	1.374980	-2.079557
C	0.532326	2.059780	-0.887657
F	0.873626	3.352180	-0.844157
C	0.469126	1.807280	-3.481157
O	0.277626	1.061580	-4.431557
O	0.811526	3.113680	-3.594257
C	0.944626	3.590580	-4.941257
H	1.222926	4.655880	-4.858157
H	-0.009474	3.480480	-5.495257
H	1.728926	3.025480	-5.484357
C	-0.271174	-2.391020	0.974943
H	0.667826	-2.399020	1.508443
H	-0.691274	-3.068920	1.703143
H	0.193226	-2.922120	0.157243
H	0.607526	2.330280	2.281443
$end

$rem
JOBTYPE		SP
EXCHANGE	HF
CORRELATION	pRIMP2
BASIS		cc-pvtz
METHOD		rimp2
AUX_BASIS	rimp2-cc-pvtz
SOLVENT_METHOD	PCM
PURECART	11111
SYMMETRY	false
MEM_TOTAL	110000
SCF_CONVERGENCE = 6
THRESH=10
GUI = 2
$end

$solvent
dielectric 4.90
$end
--------------------------------------------------------------

             Standard Nuclear Orientation (Angstroms)
    I     Atom           X                Y                Z
 ----------------------------------------------------------------
    1      C      -0.2711740000    -0.9558200000     0.9749430000
    2      S      -0.0365740000    -0.0820200000     2.4824430000
    3      C       0.3697260000     1.4371800000     1.6938430000
    4      C      -0.0363740000    -0.0824200000    -0.0929570000
    5      C       0.3212260000     1.2609800000     0.2885430000
    6      S      -0.0966740000    -0.3184200000    -1.8305570000
    7      C       0.3514260000     1.3749800000    -2.0795570000
    8      C       0.5323260000     2.0597800000    -0.8876570000
    9      F       0.8736260000     3.3521800000    -0.8441570000
   10      C       0.4691260000     1.8072800000    -3.4811570000
   11      O       0.2776260000     1.0615800000    -4.4315570000
   12      O       0.8115260000     3.1136800000    -3.5942570000
   13      C       0.9446260000     3.5905800000    -4.9412570000
   14      H       1.2229260000     4.6558800000    -4.8581570000
   15      H      -0.0094740000     3.4804800000    -5.4952570000
   16      H       1.7289260000     3.0254800000    -5.4843570000
   17      C      -0.2711740000    -2.3910200000     0.9749430000
   18      H       0.6678260000    -2.3990200000     1.5084430000
   19      H      -0.6912740000    -3.0689200000     1.7031430000
   20      H       0.1932260000    -2.9221200000     0.1572430000
   21      H       0.6075260000     2.3302800000     2.2814430000
 ----------------------------------------------------------------

   11   -1389.2693604578      5.39e-07  Convergence criterion met
 Total energy in the final basis set =    -1389.2693604578
        RIMP2         total energy =     -1391.7734722970 a.u.

                    Orbital Energies (a.u.)
 --------------------------------------------------------------

 Alpha MOs
 -- Occupied --
-92.0043 -91.9902 -26.3400 -20.6133 -20.5595 -11.4072 -11.3778 -11.3002
-11.2954 -11.2942 -11.2880 -11.2823 -11.2783 -11.2297  -9.0035  -8.9904
 -6.6843  -6.6837  -6.6832  -6.6715  -6.6708  -6.6696  -1.6572  -1.4657
 -1.3683  -1.2120  -1.1372  -1.0664  -1.0186  -0.9950  -0.9580  -0.9123
 -0.8630  -0.8052  -0.7880  -0.7581  -0.7311  -0.7221  -0.6917  -0.6831
 -0.6725  -0.6600  -0.6114  -0.5987  -0.5925  -0.5769  -0.5637  -0.5557
 -0.5346  -0.5292  -0.5139  -0.4967  -0.4726  -0.4709  -0.4703  -0.4572
 -0.3860  -0.3460  -0.2822

          Ground-State Mulliken Net Atomic Charges

     Atom                 Charge (a.u.)
  ----------------------------------------
      1 C                     0.056409
      2 S                     0.072758
      3 C                    -0.221031
      4 C                    -0.053780
      5 C                    -0.082376
      6 S                    -0.009698
      7 C                    -0.155824
      8 C                     0.389116
      9 F                    -0.208898
     10 C                     0.445525
     11 O                    -0.461913
     12 O                    -0.300813
     13 C                    -0.058509
     14 H                     0.121036
     15 H                     0.094785
     16 H                     0.094597
     17 C                    -0.383139
     18 H                     0.141549
     19 H                     0.159527
     20 H                     0.147722
     21 H                     0.212953
  ----------------------------------------
  Sum of atomic charges =     0.000000

                    Cartesian Multipole Moments
 -----------------------------------------------------------------
    Charge (ESU x 10^10)
                -0.0000
    Dipole Moment (Debye)
         X       1.1409      Y       0.1138      Z       3.5945
       Tot       3.7729
    Quadrupole Moments (Debye-Ang)
        XX     -96.4647     XY       1.3946     YY     -81.4082
        XZ      -1.9748     YZ     -11.1788     ZZ     -95.9444

 Total job time:  57.39s(wall), 2008.50s(cpu)
        *  Thank you very much for using Q-Chem.  Have a nice day.  *
