 Q-Chem 5.4, Q-Chem, Inc., Pleasanton, CA (2021)
 Q-Chem 5.4.0 for Intel X86 EM64T Linux

User input:
--------------------------------------------------------------
$molecule
0 1
C	-0.670076	-0.747937	0.973997
S	-0.088176	-0.055137	2.481497
C	0.922124	1.149963	1.692897
C	-0.088176	-0.055537	-0.093903
C	0.803624	1.010863	0.287597
S	-0.242476	-0.244037	-1.831503
C	0.879224	1.101463	-2.080503
C	1.332624	1.645563	-0.888603
F	2.188124	2.672563	-0.845103
C	1.168624	1.443363	-3.482103
O	0.679924	0.848563	-4.432503
O	2.031024	2.482763	-3.595203
C	2.353224	2.858663	-4.942203
H	3.055624	3.706563	-4.859103
H	1.442024	3.162063	-5.496203
H	2.825224	2.015063	-5.485303
C	-0.670076	-2.183137	0.973997
H	-0.123676	-2.191137	1.905497
H	-1.397976	-2.861037	1.394597
H	0.140924	-2.714237	0.498097
H	1.515124	1.858863	2.280497
$end

$rem
JOBTYPE		SP
EXCHANGE	HF
CORRELATION	pRIMP2
BASIS		cc-pvtz
METHOD		rimp2
AUX_BASIS	rimp2-cc-pvtz
SOLVENT_METHOD	PCM
PURECART	11111
SYMMETRY	false
MEM_TOTAL	110000
SCF_CONVERGENCE = 6
THRESH=10
GUI = 2
$end

$solvent
dielectric 4.90
$end
--------------------------------------------------------------

             Standard Nuclear Orientation (Angstroms)
    I     Atom           X                Y                Z
 ----------------------------------------------------------------
    1      C      -0.6700760000    -0.7479370000     0.9739970000
    2      S      -0.0881760000    -0.0551370000     2.4814970000
    3      C       0.9221240000     1.1499630000     1.6928970000
    4      C      -0.0881760000    -0.0555370000    -0.0939030000
    5      C       0.8036240000     1.0108630000     0.2875970000
    6      S      -0.2424760000    -0.2440370000    -1.8315030000
    7      C       0.8792240000     1.1014630000    -2.0805030000
    8      C       1.3326240000     1.6455630000    -0.8886030000
    9      F       2.1881240000     2.6725630000    -0.8451030000
   10      C       1.1686240000     1.4433630000    -3.4821030000
   11      O       0.6799240000     0.8485630000    -4.4325030000
   12      O       2.0310240000     2.4827630000    -3.5952030000
   13      C       2.3532240000     2.8586630000    -4.9422030000
   14      H       3.0556240000     3.7065630000    -4.8591030000
   15      H       1.4420240000     3.1620630000    -5.4962030000
   16      H       2.8252240000     2.0150630000    -5.4853030000
   17      C      -0.6700760000    -2.1831370000     0.9739970000
   18      H      -0.1236760000    -2.1911370000     1.9054970000
   19      H      -1.3979760000    -2.8610370000     1.3945970000
   20      H       0.1409240000    -2.7142370000     0.4980970000
   21      H       1.5151240000     1.8588630000     2.2804970000
 ----------------------------------------------------------------

   11   -1389.2359454668      5.13e-07  Convergence criterion met
 Total energy in the final basis set =    -1389.2359454668
        RIMP2         total energy =     -1391.7467245658 a.u.

                    Orbital Energies (a.u.)
 --------------------------------------------------------------

 Alpha MOs
 -- Occupied --
-92.0024 -91.9955 -26.3418 -20.6135 -20.5596 -11.4076 -11.3807 -11.3104
-11.2940 -11.2939 -11.2882 -11.2808 -11.2793 -11.2192  -9.0024  -8.9956
 -6.6831  -6.6823  -6.6819  -6.6766  -6.6759  -6.6748  -1.6590  -1.4659
 -1.3686  -1.2167  -1.1407  -1.0664  -1.0213  -0.9919  -0.9597  -0.9082
 -0.8652  -0.8090  -0.7896  -0.7587  -0.7324  -0.7238  -0.6933  -0.6834
 -0.6728  -0.6607  -0.6089  -0.6034  -0.5930  -0.5726  -0.5642  -0.5574
 -0.5333  -0.5298  -0.5103  -0.4892  -0.4759  -0.4717  -0.4708  -0.4444
 -0.3876  -0.3446  -0.2902

          Ground-State Mulliken Net Atomic Charges

     Atom                 Charge (a.u.)
  ----------------------------------------
      1 C                    -0.017505
      2 S                     0.076878
      3 C                    -0.180798
      4 C                    -0.010901
      5 C                    -0.087301
      6 S                     0.013316
      7 C                    -0.156174
      8 C                     0.388814
      9 F                    -0.207491
     10 C                     0.446670
     11 O                    -0.463061
     12 O                    -0.301371
     13 C                    -0.058479
     14 H                     0.120992
     15 H                     0.094900
     16 H                     0.094613
     17 C                    -0.378180
     18 H                     0.127084
     19 H                     0.139834
     20 H                     0.143835
     21 H                     0.214325
  ----------------------------------------
  Sum of atomic charges =     0.000000

                    Cartesian Multipole Moments
 -----------------------------------------------------------------
    Charge (ESU x 10^10)
                -0.0000
    Dipole Moment (Debye)
         X       2.1782      Y       0.6578      Z       3.6196
       Tot       4.2754
    Quadrupole Moments (Debye-Ang)
        XX     -92.9107     XY       4.8076     YY     -87.0198
        XZ      -4.9854     YZ      -8.5914     ZZ     -95.1990

 Total job time:  56.80s(wall), 1959.52s(cpu)
        *  Thank you very much for using Q-Chem.  Have a nice day.  *
