 Q-Chem 5.4, Q-Chem, Inc., Pleasanton, CA (2021)
 Q-Chem 5.4.0 for Intel X86 EM64T Linux

User input:
--------------------------------------------------------------
$molecule
0 1
C	-0.001346	-0.991205	0.974266
S	-0.000846	-0.086405	2.481766
C	-0.001646	1.486095	1.693166
C	-0.000546	-0.086805	-0.093634
C	-0.002946	1.303395	0.287866
S	0.002254	-0.330305	-1.831234
C	-0.003246	1.421295	-2.080234
C	-0.005746	2.129695	-0.888334
F	-0.010546	3.466295	-0.844834
C	-0.001346	1.869395	-3.481834
O	0.006554	1.099495	-4.432234
O	-0.008846	3.219895	-3.594934
C	-0.003646	3.714995	-4.941934
H	-0.010646	4.815995	-4.858834
H	-0.896746	3.361695	-5.495934
H	0.900154	3.372095	-5.485034
C	-0.001346	-2.426405	0.974266
H	0.698554	-2.434405	1.796766
H	-0.645246	-3.104305	1.514866
H	0.714754	-2.957505	0.364666
H	-0.003046	2.410395	2.280766
$end

$rem
JOBTYPE		SP
EXCHANGE	HF
CORRELATION	pRIMP2
BASIS		cc-pvtz
METHOD		rimp2
AUX_BASIS	rimp2-cc-pvtz
SOLVENT_METHOD	PCM
PURECART	11111
SYMMETRY	false
MEM_TOTAL	110000
SCF_CONVERGENCE = 6
THRESH=10
GUI = 2
$end

$solvent
dielectric 4.90
$end
--------------------------------------------------------------

             Standard Nuclear Orientation (Angstroms)
    I     Atom           X                Y                Z
 ----------------------------------------------------------------
    1      C      -0.0013460000    -0.9912050000     0.9742660000
    2      S      -0.0008460000    -0.0864050000     2.4817660000
    3      C      -0.0016460000     1.4860950000     1.6931660000
    4      C      -0.0005460000    -0.0868050000    -0.0936340000
    5      C      -0.0029460000     1.3033950000     0.2878660000
    6      S       0.0022540000    -0.3303050000    -1.8312340000
    7      C      -0.0032460000     1.4212950000    -2.0802340000
    8      C      -0.0057460000     2.1296950000    -0.8883340000
    9      F      -0.0105460000     3.4662950000    -0.8448340000
   10      C      -0.0013460000     1.8693950000    -3.4818340000
   11      O       0.0065540000     1.0994950000    -4.4322340000
   12      O      -0.0088460000     3.2198950000    -3.5949340000
   13      C      -0.0036460000     3.7149950000    -4.9419340000
   14      H      -0.0106460000     4.8159950000    -4.8588340000
   15      H      -0.8967460000     3.3616950000    -5.4959340000
   16      H       0.9001540000     3.3720950000    -5.4850340000
   17      C      -0.0013460000    -2.4264050000     0.9742660000
   18      H       0.6985540000    -2.4344050000     1.7967660000
   19      H      -0.6452460000    -3.1043050000     1.5148660000
   20      H       0.7147540000    -2.9575050000     0.3646660000
   21      H      -0.0030460000     2.4103950000     2.2807660000
 ----------------------------------------------------------------

   11   -1389.2715128646      5.01e-07  Convergence criterion met
 Total energy in the final basis set =    -1389.2715128646
        RIMP2         total energy =     -1391.7757445734 a.u.

                    Orbital Energies (a.u.)
 --------------------------------------------------------------

 Alpha MOs
 -- Occupied --
-92.0064 -91.9908 -26.3401 -20.6133 -20.5594 -11.4072 -11.3779 -11.2973
-11.2967 -11.2941 -11.2879 -11.2834 -11.2783 -11.2273  -9.0054  -8.9910
 -6.6862  -6.6857  -6.6851  -6.6720  -6.6713  -6.6702  -1.6573  -1.4657
 -1.3683  -1.2117  -1.1365  -1.0653  -1.0190  -0.9954  -0.9582  -0.9129
 -0.8632  -0.8057  -0.7880  -0.7579  -0.7311  -0.7222  -0.6912  -0.6830
 -0.6725  -0.6602  -0.6093  -0.5998  -0.5918  -0.5789  -0.5646  -0.5564
 -0.5363  -0.5296  -0.5092  -0.4891  -0.4727  -0.4708  -0.4696  -0.4588
 -0.3882  -0.3455  -0.2863

          Ground-State Mulliken Net Atomic Charges

     Atom                 Charge (a.u.)
  ----------------------------------------
      1 C                     0.033804
      2 S                     0.072987
      3 C                    -0.210888
      4 C                    -0.002177
      5 C                    -0.098813
      6 S                    -0.009221
      7 C                    -0.157719
      8 C                     0.390019
      9 F                    -0.208987
     10 C                     0.445274
     11 O                    -0.462292
     12 O                    -0.300713
     13 C                    -0.058714
     14 H                     0.121053
     15 H                     0.094776
     16 H                     0.094650
     17 C                    -0.380416
     18 H                     0.123946
     19 H                     0.152241
     20 H                     0.147302
     21 H                     0.213890
  ----------------------------------------
  Sum of atomic charges =     0.000000

                    Cartesian Multipole Moments
 -----------------------------------------------------------------
    Charge (ESU x 10^10)
                -0.0000
    Dipole Moment (Debye)
         X       0.4531      Y       0.4070      Z       3.7499
       Tot       3.7991
    Quadrupole Moments (Debye-Ang)
        XX     -96.5544     XY      -1.1310     YY     -80.9127
        XZ       0.1552     YZ     -11.5700     ZZ     -95.6711

 Total job time:  60.05s(wall), 1979.93s(cpu)
        *  Thank you very much for using Q-Chem.  Have a nice day.  *
