 Q-Chem 5.4, Q-Chem, Inc., Pleasanton, CA (2021)
 Q-Chem 5.4.0 for Intel X86 EM64T Linux

User input:
--------------------------------------------------------------
$molecule
0 1
C	-0.178734	-0.975447	0.974225
S	-0.021134	-0.084547	2.481725
C	0.251166	1.464253	1.693125
C	-0.020934	-0.084847	-0.093675
C	0.218166	1.284553	0.287825
S	-0.060434	-0.325247	-1.831275
C	0.238266	1.400753	-2.080275
C	0.358866	2.098753	-0.888375
F	0.586266	3.415953	-0.844875
C	0.317966	1.841653	-3.481875
O	0.192166	1.082153	-4.432275
O	0.545166	3.172953	-3.594975
C	0.636266	3.659653	-4.941975
H	0.820566	4.745153	-4.858875
H	-0.304634	3.466753	-5.495975
H	1.466766	3.165053	-5.485075
C	-0.178734	-2.410647	0.974225
H	-1.001234	-2.418647	1.674125
H	-0.719334	-3.088547	0.330325
H	0.430866	-2.941747	1.690325
H	0.410266	2.374753	2.280725
$end

$rem
JOBTYPE		SP
EXCHANGE	HF
CORRELATION	pRIMP2
BASIS		cc-pvtz
METHOD		rimp2
AUX_BASIS	rimp2-cc-pvtz
SOLVENT_METHOD	PCM
PURECART	11111
SYMMETRY	false
MEM_TOTAL	110000
SCF_CONVERGENCE = 6
THRESH=10
GUI = 2
$end

$solvent
dielectric 4.90
$end
--------------------------------------------------------------

             Standard Nuclear Orientation (Angstroms)
    I     Atom           X                Y                Z
 ----------------------------------------------------------------
    1      C      -0.1787340000    -0.9754470000     0.9742250000
    2      S      -0.0211340000    -0.0845470000     2.4817250000
    3      C       0.2511660000     1.4642530000     1.6931250000
    4      C      -0.0209340000    -0.0848470000    -0.0936750000
    5      C       0.2181660000     1.2845530000     0.2878250000
    6      S      -0.0604340000    -0.3252470000    -1.8312750000
    7      C       0.2382660000     1.4007530000    -2.0802750000
    8      C       0.3588660000     2.0987530000    -0.8883750000
    9      F       0.5862660000     3.4159530000    -0.8448750000
   10      C       0.3179660000     1.8416530000    -3.4818750000
   11      O       0.1921660000     1.0821530000    -4.4322750000
   12      O       0.5451660000     3.1729530000    -3.5949750000
   13      C       0.6362660000     3.6596530000    -4.9419750000
   14      H       0.8205660000     4.7451530000    -4.8588750000
   15      H      -0.3046340000     3.4667530000    -5.4959750000
   16      H       1.4667660000     3.1650530000    -5.4850750000
   17      C      -0.1787340000    -2.4106470000     0.9742250000
   18      H      -1.0012340000    -2.4186470000     1.6741250000
   19      H      -0.7193340000    -3.0885470000     0.3303250000
   20      H       0.4308660000    -2.9417470000     1.6903250000
   21      H       0.4102660000     2.3747530000     2.2807250000
 ----------------------------------------------------------------

   11   -1389.2690952530      5.04e-07  Convergence criterion met
 Total energy in the final basis set =    -1389.2690952530
        RIMP2         total energy =     -1391.7735269999 a.u.

                    Orbital Energies (a.u.)
 --------------------------------------------------------------

 Alpha MOs
 -- Occupied --
-92.0070 -91.9904 -26.3398 -20.6133 -20.5594 -11.4071 -11.3776 -11.2972
-11.2965 -11.2941 -11.2879 -11.2819 -11.2781 -11.2276  -9.0059  -8.9906
 -6.6867  -6.6862  -6.6856  -6.6717  -6.6710  -6.6698  -1.6571  -1.4656
 -1.3682  -1.2114  -1.1365  -1.0653  -1.0188  -0.9954  -0.9581  -0.9129
 -0.8631  -0.8053  -0.7878  -0.7579  -0.7308  -0.7220  -0.6914  -0.6830
 -0.6724  -0.6601  -0.6114  -0.5966  -0.5906  -0.5797  -0.5640  -0.5566
 -0.5349  -0.5293  -0.5105  -0.4914  -0.4724  -0.4707  -0.4705  -0.4598
 -0.3863  -0.3454  -0.2843

          Ground-State Mulliken Net Atomic Charges

     Atom                 Charge (a.u.)
  ----------------------------------------
      1 C                     0.014199
      2 S                     0.072323
      3 C                    -0.210025
      4 C                     0.005569
      5 C                    -0.101940
      6 S                    -0.010945
      7 C                    -0.157825
      8 C                     0.390494
      9 F                    -0.209282
     10 C                     0.445621
     11 O                    -0.462087
     12 O                    -0.300735
     13 C                    -0.058688
     14 H                     0.121013
     15 H                     0.094699
     16 H                     0.094711
     17 C                    -0.380214
     18 H                     0.129395
     19 H                     0.167185
     20 H                     0.142478
     21 H                     0.214057
  ----------------------------------------
  Sum of atomic charges =     0.000000

                    Cartesian Multipole Moments
 -----------------------------------------------------------------
    Charge (ESU x 10^10)
                -0.0000
    Dipole Moment (Debye)
         X      -0.1822      Y       0.3011      Z       3.7055
       Tot       3.7221
    Quadrupole Moments (Debye-Ang)
        XX     -96.1875     XY       3.4870     YY     -81.1633
        XZ      -1.6796     YZ     -11.1857     ZZ     -95.6992

 Total job time:  63.82s(wall), 1956.06s(cpu)
        *  Thank you very much for using Q-Chem.  Have a nice day.  *
