 Q-Chem 5.4, Q-Chem, Inc., Pleasanton, CA (2021)
 Q-Chem 5.4.0 for Intel X86 EM64T Linux

User input:
--------------------------------------------------------------
$molecule
0 1
C	-0.522213	-0.851940	0.974943
S	-0.069413	-0.068640	2.482443
C	0.716187	1.293660	1.693843
C	-0.069313	-0.069040	-0.092957
C	0.623687	1.136060	0.288543
S	-0.188613	-0.281440	-1.830557
C	0.682387	1.238360	-2.079557
C	1.034387	1.852960	-0.887657
F	1.698587	3.012960	-0.844157
C	0.908087	1.625360	-3.481157
O	0.529987	0.954660	-4.431557
O	1.576787	2.798760	-3.594257
C	1.828887	3.224860	-4.941257
H	2.373387	4.181860	-4.858157
H	0.878787	3.365460	-5.495257
H	2.440187	2.476060	-5.484357
C	-0.522213	-2.287140	0.974943
H	0.416787	-2.295140	1.508443
H	-0.942313	-2.965040	1.703143
H	-0.057813	-2.818240	0.157243
H	1.177087	2.094760	2.281443
$end

$rem
JOBTYPE		SP
EXCHANGE	HF
CORRELATION	pRIMP2
BASIS		cc-pvtz
METHOD		rimp2
AUX_BASIS	rimp2-cc-pvtz
SOLVENT_METHOD	PCM
PURECART	11111
SYMMETRY	false
MEM_TOTAL	110000
SCF_CONVERGENCE = 6
THRESH=10
GUI = 2
$end

$solvent
dielectric 4.90
$end
--------------------------------------------------------------

             Standard Nuclear Orientation (Angstroms)
    I     Atom           X                Y                Z
 ----------------------------------------------------------------
    1      C      -0.5222130000    -0.8519400000     0.9749430000
    2      S      -0.0694130000    -0.0686400000     2.4824430000
    3      C       0.7161870000     1.2936600000     1.6938430000
    4      C      -0.0693130000    -0.0690400000    -0.0929570000
    5      C       0.6236870000     1.1360600000     0.2885430000
    6      S      -0.1886130000    -0.2814400000    -1.8305570000
    7      C       0.6823870000     1.2383600000    -2.0795570000
    8      C       1.0343870000     1.8529600000    -0.8876570000
    9      F       1.6985870000     3.0129600000    -0.8441570000
   10      C       0.9080870000     1.6253600000    -3.4811570000
   11      O       0.5299870000     0.9546600000    -4.4315570000
   12      O       1.5767870000     2.7987600000    -3.5942570000
   13      C       1.8288870000     3.2248600000    -4.9412570000
   14      H       2.3733870000     4.1818600000    -4.8581570000
   15      H       0.8787870000     3.3654600000    -5.4952570000
   16      H       2.4401870000     2.4760600000    -5.4843570000
   17      C      -0.5222130000    -2.2871400000     0.9749430000
   18      H       0.4167870000    -2.2951400000     1.5084430000
   19      H      -0.9423130000    -2.9650400000     1.7031430000
   20      H      -0.0578130000    -2.8182400000     0.1572430000
   21      H       1.1770870000     2.0947600000     2.2814430000
 ----------------------------------------------------------------

   11   -1389.2558556592      5.52e-07  Convergence criterion met
 Total energy in the final basis set =    -1389.2558556592
        RIMP2         total energy =     -1391.7628581195 a.u.

                    Orbital Energies (a.u.)
 --------------------------------------------------------------

 Alpha MOs
 -- Occupied --
-92.0023 -91.9920 -26.3407 -20.6135 -20.5597 -11.4075 -11.3789 -11.3005
-11.2948 -11.2944 -11.2881 -11.2860 -11.2790 -11.2272  -9.0019  -8.9922
 -6.6827  -6.6821  -6.6816  -6.6732  -6.6725  -6.6714  -1.6579  -1.4659
 -1.3685  -1.2141  -1.1389  -1.0668  -1.0194  -0.9935  -0.9585  -0.9105
 -0.8637  -0.8063  -0.7886  -0.7585  -0.7316  -0.7228  -0.6926  -0.6833
 -0.6727  -0.6602  -0.6117  -0.6000  -0.5933  -0.5732  -0.5640  -0.5548
 -0.5352  -0.5292  -0.5141  -0.4973  -0.4733  -0.4713  -0.4708  -0.4532
 -0.3853  -0.3465  -0.2827

          Ground-State Mulliken Net Atomic Charges

     Atom                 Charge (a.u.)
  ----------------------------------------
      1 C                     0.044725
      2 S                     0.072294
      3 C                    -0.208736
      4 C                    -0.064553
      5 C                    -0.076862
      6 S                    -0.001625
      7 C                    -0.154523
      8 C                     0.388693
      9 F                    -0.208267
     10 C                     0.445899
     11 O                    -0.462008
     12 O                    -0.301014
     13 C                    -0.058487
     14 H                     0.121084
     15 H                     0.094845
     16 H                     0.094626
     17 C                    -0.380461
     18 H                     0.140765
     19 H                     0.154769
     20 H                     0.146025
     21 H                     0.212810
  ----------------------------------------
  Sum of atomic charges =     0.000000

                    Cartesian Multipole Moments
 -----------------------------------------------------------------
    Charge (ESU x 10^10)
                -0.0000
    Dipole Moment (Debye)
         X       1.7368      Y       0.2186      Z       3.4850
       Tot       3.8999
    Quadrupole Moments (Debye-Ang)
        XX     -94.9207     XY       3.6758     YY     -84.0396
        XZ      -3.9586     YZ      -9.8338     ZZ     -95.8658

 Total job time:  62.89s(wall), 2086.53s(cpu)
        *  Thank you very much for using Q-Chem.  Have a nice day.  *
