 Q-Chem 5.4, Q-Chem, Inc., Pleasanton, CA (2021)
 Q-Chem 5.4.0 for Intel X86 EM64T Linux

User input:
--------------------------------------------------------------
$molecule
0 1
C	-0.002011	-0.991205	0.975737
S	-0.001511	-0.086405	2.483237
C	-0.002311	1.486095	1.694637
C	-0.001211	-0.086805	-0.092163
C	-0.003611	1.303395	0.289337
S	0.001589	-0.330305	-1.829763
C	-0.003911	1.421295	-2.078763
C	-0.006411	2.129695	-0.886863
F	-0.011211	3.466295	-0.843363
C	-0.002011	1.869395	-3.480363
O	0.005889	1.099495	-4.430763
O	-0.009511	3.219895	-3.593463
C	-0.004311	3.714995	-4.940463
H	-0.011311	4.815995	-4.857363
H	-0.897411	3.361695	-5.494463
H	0.899489	3.372095	-5.483563
C	-0.002011	-2.426405	0.975737
H	1.062789	-2.434405	1.155937
H	-0.147711	-3.104305	1.803737
H	0.154689	-2.957505	0.048537
H	-0.003711	2.410395	2.282237
$end

$rem
JOBTYPE		SP
EXCHANGE	HF
CORRELATION	pRIMP2
BASIS		cc-pvtz
METHOD		rimp2
AUX_BASIS	rimp2-cc-pvtz
SOLVENT_METHOD	PCM
PURECART	11111
SYMMETRY	false
MEM_TOTAL	110000
SCF_CONVERGENCE = 6
THRESH=10
GUI = 2
$end

$solvent
dielectric 4.90
$end
--------------------------------------------------------------

             Standard Nuclear Orientation (Angstroms)
    I     Atom           X                Y                Z
 ----------------------------------------------------------------
    1      C      -0.0020110000    -0.9912050000     0.9757370000
    2      S      -0.0015110000    -0.0864050000     2.4832370000
    3      C      -0.0023110000     1.4860950000     1.6946370000
    4      C      -0.0012110000    -0.0868050000    -0.0921630000
    5      C      -0.0036110000     1.3033950000     0.2893370000
    6      S       0.0015890000    -0.3303050000    -1.8297630000
    7      C      -0.0039110000     1.4212950000    -2.0787630000
    8      C      -0.0064110000     2.1296950000    -0.8868630000
    9      F      -0.0112110000     3.4662950000    -0.8433630000
   10      C      -0.0020110000     1.8693950000    -3.4803630000
   11      O       0.0058890000     1.0994950000    -4.4307630000
   12      O      -0.0095110000     3.2198950000    -3.5934630000
   13      C      -0.0043110000     3.7149950000    -4.9404630000
   14      H      -0.0113110000     4.8159950000    -4.8573630000
   15      H      -0.8974110000     3.3616950000    -5.4944630000
   16      H       0.8994890000     3.3720950000    -5.4835630000
   17      C      -0.0020110000    -2.4264050000     0.9757370000
   18      H       1.0627890000    -2.4344050000     1.1559370000
   19      H      -0.1477110000    -3.1043050000     1.8037370000
   20      H       0.1546890000    -2.9575050000     0.0485370000
   21      H      -0.0037110000     2.4103950000     2.2822370000
 ----------------------------------------------------------------

   11   -1389.2732604620      5.26e-07  Convergence criterion met
 Total energy in the final basis set =    -1389.2732604620
        RIMP2         total energy =     -1391.7766391858 a.u.

                    Orbital Energies (a.u.)
 --------------------------------------------------------------

 Alpha MOs
 -- Occupied --
-92.0053 -91.9895 -26.3396 -20.6133 -20.5594 -11.4072 -11.3772 -11.3040
-11.2942 -11.2911 -11.2879 -11.2797 -11.2780 -11.2319  -9.0043  -8.9897
 -6.6851  -6.6846  -6.6840  -6.6708  -6.6701  -6.6689  -1.6568  -1.4656
 -1.3682  -1.2109  -1.1362  -1.0668  -1.0178  -0.9958  -0.9576  -0.9133
 -0.8625  -0.8041  -0.7876  -0.7581  -0.7306  -0.7218  -0.6916  -0.6830
 -0.6724  -0.6597  -0.6120  -0.5956  -0.5909  -0.5833  -0.5617  -0.5582
 -0.5313  -0.5252  -0.5185  -0.4997  -0.4719  -0.4713  -0.4698  -0.4599
 -0.3842  -0.3453  -0.2800

          Ground-State Mulliken Net Atomic Charges

     Atom                 Charge (a.u.)
  ----------------------------------------
      1 C                     0.048499
      2 S                     0.072376
      3 C                    -0.228162
      4 C                    -0.022363
      5 C                    -0.096367
      6 S                    -0.017789
      7 C                    -0.157286
      8 C                     0.390060
      9 F                    -0.209338
     10 C                     0.445483
     11 O                    -0.462040
     12 O                    -0.300611
     13 C                    -0.058732
     14 H                     0.121113
     15 H                     0.094779
     16 H                     0.094618
     17 C                    -0.390900
     18 H                     0.148396
     19 H                     0.165820
     20 H                     0.149702
     21 H                     0.212741
  ----------------------------------------
  Sum of atomic charges =     0.000000

                    Cartesian Multipole Moments
 -----------------------------------------------------------------
    Charge (ESU x 10^10)
                -0.0000
    Dipole Moment (Debye)
         X       0.7276      Y      -0.1046      Z       3.4335
       Tot       3.5113
    Quadrupole Moments (Debye-Ang)
        XX     -97.0083     XY      -1.8509     YY     -80.1996
        XZ       0.6587     YZ     -11.3474     ZZ     -96.3069

 Total job time:  56.39s(wall), 1940.74s(cpu)
        *  Thank you very much for using Q-Chem.  Have a nice day.  *
