 Q-Chem 5.4, Q-Chem, Inc., Pleasanton, CA (2021)
 Q-Chem 5.4.0 for Intel X86 EM64T Linux

User input:
--------------------------------------------------------------
$molecule
0 1
C	-0.356200	-0.928548	0.978203
S	-0.046300	-0.078548	2.485703
C	0.490800	1.399452	1.697103
C	-0.046200	-0.078948	-0.089697
C	0.427100	1.228152	0.291803
S	-0.126800	-0.308748	-1.827297
C	0.467100	1.339152	-2.076297
C	0.707100	2.005552	-0.884397
F	1.159700	3.263252	-0.840897
C	0.622100	1.759552	-3.477897
O	0.366300	1.033352	-4.428297
O	1.077000	3.031152	-3.590997
C	1.251300	3.494552	-4.937997
H	1.621300	4.531652	-4.854897
H	0.291200	3.468052	-5.491997
H	1.983300	2.863252	-5.481097
C	-0.356200	-2.363748	0.978203
H	0.006200	-2.371748	-0.039197
H	0.433900	-3.041648	1.265503
H	-1.242100	-2.894848	0.662803
H	0.805600	2.268452	2.284703
$end

$rem
JOBTYPE		SP
EXCHANGE	HF
CORRELATION	pRIMP2
BASIS		cc-pvtz
METHOD		rimp2
AUX_BASIS	rimp2-cc-pvtz
SOLVENT_METHOD	PCM
PURECART	11111
SYMMETRY	false
MEM_TOTAL	110000
SCF_CONVERGENCE = 6
THRESH=10
GUI = 2
$end

$solvent
dielectric 4.90
$end
--------------------------------------------------------------

             Standard Nuclear Orientation (Angstroms)
    I     Atom           X                Y                Z
 ----------------------------------------------------------------
    1      C      -0.3562000000    -0.9285480000     0.9782030000
    2      S      -0.0463000000    -0.0785480000     2.4857030000
    3      C       0.4908000000     1.3994520000     1.6971030000
    4      C      -0.0462000000    -0.0789480000    -0.0896970000
    5      C       0.4271000000     1.2281520000     0.2918030000
    6      S      -0.1268000000    -0.3087480000    -1.8272970000
    7      C       0.4671000000     1.3391520000    -2.0762970000
    8      C       0.7071000000     2.0055520000    -0.8843970000
    9      F       1.1597000000     3.2632520000    -0.8408970000
   10      C       0.6221000000     1.7595520000    -3.4778970000
   11      O       0.3663000000     1.0333520000    -4.4282970000
   12      O       1.0770000000     3.0311520000    -3.5909970000
   13      C       1.2513000000     3.4945520000    -4.9379970000
   14      H       1.6213000000     4.5316520000    -4.8548970000
   15      H       0.2912000000     3.4680520000    -5.4919970000
   16      H       1.9833000000     2.8632520000    -5.4810970000
   17      C      -0.3562000000    -2.3637480000     0.9782030000
   18      H       0.0062000000    -2.3717480000    -0.0391970000
   19      H       0.4339000000    -3.0416480000     1.2655030000
   20      H      -1.2421000000    -2.8948480000     0.6628030000
   21      H       0.8056000000     2.2684520000     2.2847030000
 ----------------------------------------------------------------

   11   -1389.2640968925      4.66e-07  Convergence criterion met
 Total energy in the final basis set =    -1389.2640968925
        RIMP2         total energy =     -1391.7719122814 a.u.

                    Orbital Energies (a.u.)
 --------------------------------------------------------------

 Alpha MOs
 -- Occupied --
-92.0035 -91.9950 -26.3415 -20.6138 -20.5598 -11.4079 -11.3802 -11.3013
-11.2947 -11.2920 -11.2900 -11.2883 -11.2791 -11.2247  -9.0026  -8.9951
 -6.6834  -6.6827  -6.6823  -6.6762  -6.6754  -6.6743  -1.6587  -1.4661
 -1.3688  -1.2143  -1.1361  -1.0682  -1.0190  -0.9942  -0.9585  -0.9133
 -0.8637  -0.8056  -0.7893  -0.7594  -0.7300  -0.7235  -0.6947  -0.6835
 -0.6730  -0.6611  -0.6068  -0.6034  -0.5916  -0.5851  -0.5654  -0.5577
 -0.5347  -0.5302  -0.5076  -0.4874  -0.4734  -0.4719  -0.4647  -0.4538
 -0.3900  -0.3443  -0.2924

          Ground-State Mulliken Net Atomic Charges

     Atom                 Charge (a.u.)
  ----------------------------------------
      1 C                     0.017774
      2 S                     0.077669
      3 C                    -0.201417
      4 C                    -0.017794
      5 C                    -0.091079
      6 S                    -0.002842
      7 C                    -0.157834
      8 C                     0.389112
      9 F                    -0.207331
     10 C                     0.445782
     11 O                    -0.462897
     12 O                    -0.301106
     13 C                    -0.058432
     14 H                     0.121101
     15 H                     0.094814
     16 H                     0.094718
     17 C                    -0.366368
     18 H                     0.117703
     19 H                     0.159817
     20 H                     0.136166
     21 H                     0.212446
  ----------------------------------------
  Sum of atomic charges =     0.000000

                    Cartesian Multipole Moments
 -----------------------------------------------------------------
    Charge (ESU x 10^10)
                -0.0000
    Dipole Moment (Debye)
         X       1.0177      Y       0.6219      Z       2.5731
       Tot       2.8361
    Quadrupole Moments (Debye-Ang)
        XX     -95.2727     XY       2.9710     YY     -82.7468
        XZ      -2.1421     YZ      -7.9432     ZZ     -97.8264

 Total job time:  57.14s(wall), 1998.36s(cpu)
        *  Thank you very much for using Q-Chem.  Have a nice day.  *
