 Q-Chem 5.4, Q-Chem, Inc., Pleasanton, CA (2021)
 Q-Chem 5.4.0 for Intel X86 EM64T Linux

User input:
--------------------------------------------------------------
$molecule
0 1
C	0.002262	-0.991205	0.974537
S	0.002762	-0.086405	2.482037
C	0.001962	1.486095	1.693437
C	0.003062	-0.086805	-0.093363
C	0.000662	1.303395	0.288137
S	0.005862	-0.330305	-1.830963
C	0.000362	1.421295	-2.079963
C	-0.002138	2.129695	-0.888063
F	-0.006938	3.466295	-0.844563
C	0.002262	1.869395	-3.481563
O	0.010162	1.099495	-4.431963
O	-0.005238	3.219895	-3.594663
C	-0.000038	3.714995	-4.941663
H	-0.007038	4.815995	-4.858563
H	-0.893138	3.361695	-5.495663
H	0.903762	3.372095	-5.484763
C	0.002262	-2.426405	0.974537
H	-0.929238	-2.434405	1.520937
H	-0.418338	-3.104305	0.246637
H	0.478162	-2.957505	1.785537
H	0.000562	2.410395	2.281037
$end

$rem
JOBTYPE		SP
EXCHANGE	HF
CORRELATION	pRIMP2
BASIS		cc-pvtz
METHOD		rimp2
AUX_BASIS	rimp2-cc-pvtz
SOLVENT_METHOD	PCM
PURECART	11111
SYMMETRY	false
MEM_TOTAL	110000
SCF_CONVERGENCE = 6
THRESH=10
GUI = 2
$end

$solvent
dielectric 4.90
$end
--------------------------------------------------------------

             Standard Nuclear Orientation (Angstroms)
    I     Atom           X                Y                Z
 ----------------------------------------------------------------
    1      C       0.0022620000    -0.9912050000     0.9745370000
    2      S       0.0027620000    -0.0864050000     2.4820370000
    3      C       0.0019620000     1.4860950000     1.6934370000
    4      C       0.0030620000    -0.0868050000    -0.0933630000
    5      C       0.0006620000     1.3033950000     0.2881370000
    6      S       0.0058620000    -0.3303050000    -1.8309630000
    7      C       0.0003620000     1.4212950000    -2.0799630000
    8      C      -0.0021380000     2.1296950000    -0.8880630000
    9      F      -0.0069380000     3.4662950000    -0.8445630000
   10      C       0.0022620000     1.8693950000    -3.4815630000
   11      O       0.0101620000     1.0994950000    -4.4319630000
   12      O      -0.0052380000     3.2198950000    -3.5946630000
   13      C      -0.0000380000     3.7149950000    -4.9416630000
   14      H      -0.0070380000     4.8159950000    -4.8585630000
   15      H      -0.8931380000     3.3616950000    -5.4956630000
   16      H       0.9037620000     3.3720950000    -5.4847630000
   17      C       0.0022620000    -2.4264050000     0.9745370000
   18      H      -0.9292380000    -2.4344050000     1.5209370000
   19      H      -0.4183380000    -3.1043050000     0.2466370000
   20      H       0.4781620000    -2.9575050000     1.7855370000
   21      H       0.0005620000     2.4103950000     2.2810370000
 ----------------------------------------------------------------

   11   -1389.2721717221      5.28e-07  Convergence criterion met
 Total energy in the final basis set =    -1389.2721717221
        RIMP2         total energy =     -1391.7755229863 a.u.

                    Orbital Energies (a.u.)
 --------------------------------------------------------------

 Alpha MOs
 -- Occupied --
-92.0063 -91.9895 -26.3396 -20.6133 -20.5594 -11.4071 -11.3772 -11.3008
-11.2941 -11.2940 -11.2879 -11.2802 -11.2779 -11.2298  -9.0053  -8.9898
 -6.6861  -6.6856  -6.6850  -6.6708  -6.6701  -6.6690  -1.6569  -1.4656
 -1.3682  -1.2110  -1.1365  -1.0658  -1.0183  -0.9956  -0.9578  -0.9129
 -0.8628  -0.8048  -0.7876  -0.7579  -0.7308  -0.7218  -0.6916  -0.6830
 -0.6724  -0.6600  -0.6122  -0.5958  -0.5910  -0.5789  -0.5635  -0.5560
 -0.5348  -0.5291  -0.5135  -0.4954  -0.4724  -0.4710  -0.4704  -0.4593
 -0.3856  -0.3456  -0.2820

          Ground-State Mulliken Net Atomic Charges

     Atom                 Charge (a.u.)
  ----------------------------------------
      1 C                     0.042209
      2 S                     0.072730
      3 C                    -0.219955
      4 C                    -0.018665
      5 C                    -0.096757
      6 S                    -0.014177
      7 C                    -0.157210
      8 C                     0.390612
      9 F                    -0.209359
     10 C                     0.445236
     11 O                    -0.462063
     12 O                    -0.300624
     13 C                    -0.058731
     14 H                     0.121062
     15 H                     0.094680
     16 H                     0.094708
     17 C                    -0.386546
     18 H                     0.137110
     19 H                     0.168007
     20 H                     0.143993
     21 H                     0.213739
  ----------------------------------------
  Sum of atomic charges =     0.000000

                    Cartesian Multipole Moments
 -----------------------------------------------------------------
    Charge (ESU x 10^10)
                -0.0000
    Dipole Moment (Debye)
         X      -0.6355      Y       0.1089      Z       3.6603
       Tot       3.7167
    Quadrupole Moments (Debye-Ang)
        XX     -96.8257     XY       1.7108     YY     -80.4808
        XZ      -0.2469     YZ     -11.4109     ZZ     -95.8763

 Total job time:  56.05s(wall), 1968.86s(cpu)
        *  Thank you very much for using Q-Chem.  Have a nice day.  *
