 Q-Chem 5.4, Q-Chem, Inc., Pleasanton, CA (2021)
 Q-Chem 5.4.0 for Intel X86 EM64T Linux

User input:
--------------------------------------------------------------
$molecule
0 1
C	-0.001944	-0.991205	0.975331
S	-0.001444	-0.086405	2.482831
C	-0.002244	1.486095	1.694231
C	-0.001144	-0.086805	-0.092569
C	-0.003544	1.303395	0.288931
S	0.001656	-0.330305	-1.830169
C	-0.003844	1.421295	-2.079169
C	-0.006344	2.129695	-0.887269
F	-0.011144	3.466295	-0.843769
C	-0.001944	1.869395	-3.480769
O	0.005956	1.099495	-4.431169
O	-0.009444	3.219895	-3.593869
C	-0.004244	3.714995	-4.940869
H	-0.011244	4.815995	-4.857769
H	-0.897344	3.361695	-5.494869
H	0.899556	3.372095	-5.483969
C	-0.001944	-2.426405	0.975331
H	1.015456	-2.434405	1.337731
H	-0.289244	-3.104305	1.765431
H	0.313456	-2.957505	0.089431
H	-0.003644	2.410395	2.281831
$end

$rem
JOBTYPE		SP
EXCHANGE	HF
CORRELATION	pRIMP2
BASIS		cc-pvtz
METHOD		rimp2
AUX_BASIS	rimp2-cc-pvtz
SOLVENT_METHOD	PCM
PURECART	11111
SYMMETRY	false
MEM_TOTAL	110000
SCF_CONVERGENCE = 6
THRESH=10
GUI = 2
$end

$solvent
dielectric 4.90
$end
--------------------------------------------------------------

             Standard Nuclear Orientation (Angstroms)
    I     Atom           X                Y                Z
 ----------------------------------------------------------------
    1      C      -0.0019440000    -0.9912050000     0.9753310000
    2      S      -0.0014440000    -0.0864050000     2.4828310000
    3      C      -0.0022440000     1.4860950000     1.6942310000
    4      C      -0.0011440000    -0.0868050000    -0.0925690000
    5      C      -0.0035440000     1.3033950000     0.2889310000
    6      S       0.0016560000    -0.3303050000    -1.8301690000
    7      C      -0.0038440000     1.4212950000    -2.0791690000
    8      C      -0.0063440000     2.1296950000    -0.8872690000
    9      F      -0.0111440000     3.4662950000    -0.8437690000
   10      C      -0.0019440000     1.8693950000    -3.4807690000
   11      O       0.0059560000     1.0994950000    -4.4311690000
   12      O      -0.0094440000     3.2198950000    -3.5938690000
   13      C      -0.0042440000     3.7149950000    -4.9408690000
   14      H      -0.0112440000     4.8159950000    -4.8577690000
   15      H      -0.8973440000     3.3616950000    -5.4948690000
   16      H       0.8995560000     3.3720950000    -5.4839690000
   17      C      -0.0019440000    -2.4264050000     0.9753310000
   18      H       1.0154560000    -2.4344050000     1.3377310000
   19      H      -0.2892440000    -3.1043050000     1.7654310000
   20      H       0.3134560000    -2.9575050000     0.0894310000
   21      H      -0.0036440000     2.4103950000     2.2818310000
 ----------------------------------------------------------------

   11   -1389.2729942786      5.25e-07  Convergence criterion met
 Total energy in the final basis set =    -1389.2729942786
        RIMP2         total energy =     -1391.7763793944 a.u.

                    Orbital Energies (a.u.)
 --------------------------------------------------------------

 Alpha MOs
 -- Occupied --
-92.0053 -91.9896 -26.3396 -20.6133 -20.5594 -11.4071 -11.3773 -11.3027
-11.2941 -11.2924 -11.2879 -11.2803 -11.2780 -11.2311  -9.0043  -8.9898
 -6.6851  -6.6846  -6.6840  -6.6708  -6.6701  -6.6690  -1.6569  -1.4656
 -1.3682  -1.2110  -1.1362  -1.0664  -1.0180  -0.9957  -0.9577  -0.9132
 -0.8626  -0.8044  -0.7876  -0.7580  -0.7308  -0.7218  -0.6914  -0.6830
 -0.6724  -0.6598  -0.6116  -0.5964  -0.5913  -0.5819  -0.5625  -0.5573
 -0.5316  -0.5270  -0.5164  -0.4984  -0.4720  -0.4711  -0.4699  -0.4595
 -0.3848  -0.3454  -0.2809

          Ground-State Mulliken Net Atomic Charges

     Atom                 Charge (a.u.)
  ----------------------------------------
      1 C                     0.044696
      2 S                     0.069859
      3 C                    -0.223336
      4 C                    -0.016710
      5 C                    -0.097983
      6 S                    -0.015979
      7 C                    -0.157175
      8 C                     0.390052
      9 F                    -0.209314
     10 C                     0.445457
     11 O                    -0.462064
     12 O                    -0.300628
     13 C                    -0.058734
     14 H                     0.121091
     15 H                     0.094774
     16 H                     0.094618
     17 C                    -0.388304
     18 H                     0.144152
     19 H                     0.163446
     20 H                     0.148952
     21 H                     0.213128
  ----------------------------------------
  Sum of atomic charges =     0.000000

                    Cartesian Multipole Moments
 -----------------------------------------------------------------
    Charge (ESU x 10^10)
                -0.0000
    Dipole Moment (Debye)
         X       0.6905      Y      -0.0141      Z       3.5395
       Tot       3.6063
    Quadrupole Moments (Debye-Ang)
        XX     -96.9370     XY      -1.7461     YY     -80.3129
        XZ       0.5146     YZ     -11.4992     ZZ     -96.1127

 Total job time:  56.96s(wall), 1988.61s(cpu)
        *  Thank you very much for using Q-Chem.  Have a nice day.  *
