 Q-Chem 5.4, Q-Chem, Inc., Pleasanton, CA (2021)
 Q-Chem 5.4.0 for Intel X86 EM64T Linux

User input:
--------------------------------------------------------------
$molecule
0 1
C	-0.182032	-0.975447	0.977605
S	-0.024432	-0.084547	2.485105
C	0.247868	1.464253	1.696505
C	-0.024232	-0.084847	-0.090295
C	0.214868	1.284553	0.291205
S	-0.063732	-0.325247	-1.827895
C	0.234968	1.400753	-2.076895
C	0.355568	2.098753	-0.884995
F	0.582968	3.415953	-0.841495
C	0.314668	1.841653	-3.478495
O	0.188868	1.082153	-4.428895
O	0.541868	3.172953	-3.591595
C	0.632968	3.659653	-4.938595
H	0.817268	4.745153	-4.855495
H	-0.307932	3.466753	-5.492595
H	1.463468	3.165053	-5.481695
C	-0.182032	-2.410647	0.977605
H	0.640468	-2.418647	0.277705
H	0.358568	-3.088547	1.621505
H	-0.791632	-2.941747	0.261505
H	0.406968	2.374753	2.284105
$end

$rem
JOBTYPE		SP
EXCHANGE	HF
CORRELATION	pRIMP2
BASIS		cc-pvtz
METHOD		rimp2
AUX_BASIS	rimp2-cc-pvtz
SOLVENT_METHOD	PCM
PURECART	11111
SYMMETRY	false
MEM_TOTAL	110000
SCF_CONVERGENCE = 6
THRESH=10
GUI = 2
$end

$solvent
dielectric 4.90
$end
--------------------------------------------------------------

             Standard Nuclear Orientation (Angstroms)
    I     Atom           X                Y                Z
 ----------------------------------------------------------------
    1      C      -0.1820320000    -0.9754470000     0.9776050000
    2      S      -0.0244320000    -0.0845470000     2.4851050000
    3      C       0.2478680000     1.4642530000     1.6965050000
    4      C      -0.0242320000    -0.0848470000    -0.0902950000
    5      C       0.2148680000     1.2845530000     0.2912050000
    6      S      -0.0637320000    -0.3252470000    -1.8278950000
    7      C       0.2349680000     1.4007530000    -2.0768950000
    8      C       0.3555680000     2.0987530000    -0.8849950000
    9      F       0.5829680000     3.4159530000    -0.8414950000
   10      C       0.3146680000     1.8416530000    -3.4784950000
   11      O       0.1888680000     1.0821530000    -4.4288950000
   12      O       0.5418680000     3.1729530000    -3.5915950000
   13      C       0.6329680000     3.6596530000    -4.9385950000
   14      H       0.8172680000     4.7451530000    -4.8554950000
   15      H      -0.3079320000     3.4667530000    -5.4925950000
   16      H       1.4634680000     3.1650530000    -5.4816950000
   17      C      -0.1820320000    -2.4106470000     0.9776050000
   18      H       0.6404680000    -2.4186470000     0.2777050000
   19      H       0.3585680000    -3.0885470000     1.6215050000
   20      H      -0.7916320000    -2.9417470000     0.2615050000
   21      H       0.4069680000     2.3747530000     2.2841050000
 ----------------------------------------------------------------

   11   -1389.2711546485      4.94e-07  Convergence criterion met
 Total energy in the final basis set =    -1389.2711546485
        RIMP2         total energy =     -1391.7768629528 a.u.

                    Orbital Energies (a.u.)
 --------------------------------------------------------------

 Alpha MOs
 -- Occupied --
-92.0055 -91.9926 -26.3405 -20.6136 -20.5597 -11.4076 -11.3787 -11.3003
-11.2946 -11.2937 -11.2881 -11.2831 -11.2788 -11.2290  -9.0043  -8.9927
 -6.6851  -6.6845  -6.6840  -6.6737  -6.6730  -6.6719  -1.6577  -1.4659
 -1.3686  -1.2123  -1.1360  -1.0677  -1.0182  -0.9953  -0.9579  -0.9133
 -0.8631  -0.8043  -0.7885  -0.7588  -0.7300  -0.7226  -0.6931  -0.6833
 -0.6727  -0.6604  -0.6103  -0.5975  -0.5904  -0.5867  -0.5641  -0.5588
 -0.5343  -0.5297  -0.5076  -0.4934  -0.4729  -0.4713  -0.4665  -0.4624
 -0.3854  -0.3443  -0.2855

          Ground-State Mulliken Net Atomic Charges

     Atom                 Charge (a.u.)
  ----------------------------------------
      1 C                     0.048962
      2 S                     0.076406
      3 C                    -0.220947
      4 C                    -0.021629
      5 C                    -0.092332
      6 S                    -0.012681
      7 C                    -0.155640
      8 C                     0.386384
      9 F                    -0.208295
     10 C                     0.446441
     11 O                    -0.462431
     12 O                    -0.300803
     13 C                    -0.058620
     14 H                     0.121135
     15 H                     0.094792
     16 H                     0.094659
     17 C                    -0.390216
     18 H                     0.131405
     19 H                     0.165579
     20 H                     0.145980
     21 H                     0.211850
  ----------------------------------------
  Sum of atomic charges =     0.000000

                    Cartesian Multipole Moments
 -----------------------------------------------------------------
    Charge (ESU x 10^10)
                -0.0000
    Dipole Moment (Debye)
         X       0.8561      Y       0.1827      Z       2.8276
       Tot       2.9600
    Quadrupole Moments (Debye-Ang)
        XX     -96.5736     XY       0.5314     YY     -81.1031
        XZ      -0.5484     YZ      -9.4985     ZZ     -97.3816

 Total job time:  56.98s(wall), 1945.42s(cpu)
        *  Thank you very much for using Q-Chem.  Have a nice day.  *
