 Q-Chem 5.4, Q-Chem, Inc., Pleasanton, CA (2021)
 Q-Chem 5.4.0 for Intel X86 EM64T Linux

User input:
--------------------------------------------------------------
$molecule
0 1
C	-0.181714	-0.975447	0.977865
S	-0.024114	-0.084547	2.485365
C	0.248186	1.464253	1.696765
C	-0.023914	-0.084847	-0.090035
C	0.215186	1.284553	0.291465
S	-0.063414	-0.325247	-1.827635
C	0.235286	1.400753	-2.076635
C	0.355886	2.098753	-0.884735
F	0.583286	3.415953	-0.841235
C	0.314986	1.841653	-3.478235
O	0.189186	1.082153	-4.428635
O	0.542186	3.172953	-3.591335
C	0.633286	3.659653	-4.938335
H	0.817586	4.745153	-4.855235
H	-0.307614	3.466753	-5.492335
H	1.463786	3.165053	-5.481435
C	-0.181714	-2.410647	0.977865
H	0.506786	-2.418647	0.145765
H	0.462486	-3.088547	1.518065
H	-0.906314	-2.941747	0.378565
H	0.407286	2.374753	2.284365
$end

$rem
JOBTYPE		SP
EXCHANGE	HF
CORRELATION	pRIMP2
BASIS		cc-pvtz
METHOD		rimp2
AUX_BASIS	rimp2-cc-pvtz
SOLVENT_METHOD	PCM
PURECART	11111
SYMMETRY	false
MEM_TOTAL	110000
SCF_CONVERGENCE = 6
THRESH=10
GUI = 2
$end

$solvent
dielectric 4.90
$end
--------------------------------------------------------------

             Standard Nuclear Orientation (Angstroms)
    I     Atom           X                Y                Z
 ----------------------------------------------------------------
    1      C      -0.1817140000    -0.9754470000     0.9778650000
    2      S      -0.0241140000    -0.0845470000     2.4853650000
    3      C       0.2481860000     1.4642530000     1.6967650000
    4      C      -0.0239140000    -0.0848470000    -0.0900350000
    5      C       0.2151860000     1.2845530000     0.2914650000
    6      S      -0.0634140000    -0.3252470000    -1.8276350000
    7      C       0.2352860000     1.4007530000    -2.0766350000
    8      C       0.3558860000     2.0987530000    -0.8847350000
    9      F       0.5832860000     3.4159530000    -0.8412350000
   10      C       0.3149860000     1.8416530000    -3.4782350000
   11      O       0.1891860000     1.0821530000    -4.4286350000
   12      O       0.5421860000     3.1729530000    -3.5913350000
   13      C       0.6332860000     3.6596530000    -4.9383350000
   14      H       0.8175860000     4.7451530000    -4.8552350000
   15      H      -0.3076140000     3.4667530000    -5.4923350000
   16      H       1.4637860000     3.1650530000    -5.4814350000
   17      C      -0.1817140000    -2.4106470000     0.9778650000
   18      H       0.5067860000    -2.4186470000     0.1457650000
   19      H       0.4624860000    -3.0885470000     1.5180650000
   20      H      -0.9063140000    -2.9417470000     0.3785650000
   21      H       0.4072860000     2.3747530000     2.2843650000
 ----------------------------------------------------------------

   11   -1389.2708604035      4.82e-07  Convergence criterion met
 Total energy in the final basis set =    -1389.2708604035
        RIMP2         total energy =     -1391.7769228738 a.u.

                    Orbital Energies (a.u.)
 --------------------------------------------------------------

 Alpha MOs
 -- Occupied --
-92.0049 -91.9932 -26.3408 -20.6136 -20.5597 -11.4077 -11.3791 -11.2983
-11.2957 -11.2946 -11.2882 -11.2852 -11.2789 -11.2278  -9.0038  -8.9933
 -6.6846  -6.6839  -6.6835  -6.6744  -6.6737  -6.6726  -1.6580  -1.4660
 -1.3686  -1.2128  -1.1358  -1.0678  -1.0184  -0.9952  -0.9581  -0.9135
 -0.8632  -0.8046  -0.7887  -0.7590  -0.7300  -0.7229  -0.6936  -0.6834
 -0.6728  -0.6607  -0.6095  -0.5994  -0.5910  -0.5857  -0.5650  -0.5581
 -0.5355  -0.5299  -0.5073  -0.4906  -0.4731  -0.4715  -0.4646  -0.4617
 -0.3869  -0.3443  -0.2878

          Ground-State Mulliken Net Atomic Charges

     Atom                 Charge (a.u.)
  ----------------------------------------
      1 C                     0.044779
      2 S                     0.075391
      3 C                    -0.214428
      4 C                    -0.017115
      5 C                    -0.094888
      6 S                    -0.010103
      7 C                    -0.156765
      8 C                     0.387201
      9 F                    -0.208025
     10 C                     0.446200
     11 O                    -0.462597
     12 O                    -0.300861
     13 C                    -0.058616
     14 H                     0.121143
     15 H                     0.094794
     16 H                     0.094678
     17 C                    -0.385393
     18 H                     0.124995
     19 H                     0.163835
     20 H                     0.143709
     21 H                     0.212066
  ----------------------------------------
  Sum of atomic charges =     0.000000

                    Cartesian Multipole Moments
 -----------------------------------------------------------------
    Charge (ESU x 10^10)
                -0.0000
    Dipole Moment (Debye)
         X       0.7773      Y       0.3294      Z       2.7350
       Tot       2.8623
    Quadrupole Moments (Debye-Ang)
        XX     -96.3931     XY       0.7371     YY     -81.2560
        XZ      -0.6011     YZ      -9.1073     ZZ     -97.5987

 Total job time:  67.44s(wall), 2484.82s(cpu)
        *  Thank you very much for using Q-Chem.  Have a nice day.  *
