 Q-Chem 5.4, Q-Chem, Inc., Pleasanton, CA (2021)
 Q-Chem 5.4.0 for Intel X86 EM64T Linux

User input:
--------------------------------------------------------------
$molecule
0 1
C	-0.091378	-0.987267	0.973787
S	-0.012078	-0.085967	2.481287
C	0.124222	1.480633	1.692687
C	-0.011778	-0.086367	-0.094113
C	0.107022	1.298733	0.287387
S	-0.030178	-0.329267	-1.831713
C	0.116922	1.416233	-2.080713
C	0.176222	2.122133	-0.888813
F	0.287922	3.454033	-0.845313
C	0.157922	1.862433	-3.482313
O	0.098722	1.094833	-4.432713
O	0.268122	3.208433	-3.595413
C	0.316522	3.701233	-4.942413
H	0.405522	4.798633	-4.859313
H	-0.603978	3.427033	-5.496413
H	1.187022	3.280833	-5.485513
C	-0.091378	-2.422467	0.973787
H	0.285022	-2.430467	1.986087
H	-0.881278	-3.100367	1.261587
H	0.790022	-2.953567	0.645887
H	0.203422	2.401533	2.280287
$end

$rem
JOBTYPE		SP
EXCHANGE	HF
CORRELATION	pRIMP2
BASIS		cc-pvtz
METHOD		rimp2
AUX_BASIS	rimp2-cc-pvtz
SOLVENT_METHOD	PCM
PURECART	11111
SYMMETRY	false
MEM_TOTAL	110000
SCF_CONVERGENCE = 6
THRESH=10
GUI = 2
$end

$solvent
dielectric 4.90
$end
--------------------------------------------------------------

             Standard Nuclear Orientation (Angstroms)
    I     Atom           X                Y                Z
 ----------------------------------------------------------------
    1      C      -0.0913780000    -0.9872670000     0.9737870000
    2      S      -0.0120780000    -0.0859670000     2.4812870000
    3      C       0.1242220000     1.4806330000     1.6926870000
    4      C      -0.0117780000    -0.0863670000    -0.0941130000
    5      C       0.1070220000     1.2987330000     0.2873870000
    6      S      -0.0301780000    -0.3292670000    -1.8317130000
    7      C       0.1169220000     1.4162330000    -2.0807130000
    8      C       0.1762220000     2.1221330000    -0.8888130000
    9      F       0.2879220000     3.4540330000    -0.8453130000
   10      C       0.1579220000     1.8624330000    -3.4823130000
   11      O       0.0987220000     1.0948330000    -4.4327130000
   12      O       0.2681220000     3.2084330000    -3.5954130000
   13      C       0.3165220000     3.7012330000    -4.9424130000
   14      H       0.4055220000     4.7986330000    -4.8593130000
   15      H      -0.6039780000     3.4270330000    -5.4964130000
   16      H       1.1870220000     3.2808330000    -5.4855130000
   17      C      -0.0913780000    -2.4224670000     0.9737870000
   18      H       0.2850220000    -2.4304670000     1.9860870000
   19      H      -0.8812780000    -3.1003670000     1.2615870000
   20      H       0.7900220000    -2.9535670000     0.6458870000
   21      H       0.2034220000     2.4015330000     2.2802870000
 ----------------------------------------------------------------

   11   -1389.2701385695      4.87e-07  Convergence criterion met
 Total energy in the final basis set =    -1389.2701385695
        RIMP2         total energy =     -1391.7750895551 a.u.

                    Orbital Energies (a.u.)
 --------------------------------------------------------------

 Alpha MOs
 -- Occupied --
-92.0077 -91.9917 -26.3403 -20.6133 -20.5594 -11.4073 -11.3783 -11.2995
-11.2941 -11.2933 -11.2880 -11.2850 -11.2785 -11.2257  -9.0066  -8.9919
 -6.6873  -6.6867  -6.6862  -6.6729  -6.6722  -6.6711  -1.6576  -1.4657
 -1.3683  -1.2121  -1.1368  -1.0649  -1.0196  -0.9951  -0.9586  -0.9125
 -0.8637  -0.8065  -0.7883  -0.7579  -0.7313  -0.7225  -0.6913  -0.6831
 -0.6725  -0.6605  -0.6074  -0.6024  -0.5920  -0.5770  -0.5658  -0.5564
 -0.5395  -0.5298  -0.5078  -0.4821  -0.4734  -0.4710  -0.4682  -0.4584
 -0.3909  -0.3452  -0.2901

          Ground-State Mulliken Net Atomic Charges

     Atom                 Charge (a.u.)
  ----------------------------------------
      1 C                     0.035798
      2 S                     0.076042
      3 C                    -0.210222
      4 C                    -0.006384
      5 C                    -0.093488
      6 S                    -0.004904
      7 C                    -0.157922
      8 C                     0.390367
      9 F                    -0.208717
     10 C                     0.445353
     11 O                    -0.462341
     12 O                    -0.300809
     13 C                    -0.058686
     14 H                     0.121045
     15 H                     0.094800
     16 H                     0.094647
     17 C                    -0.374986
     18 H                     0.114778
     19 H                     0.148557
     20 H                     0.142611
     21 H                     0.214460
  ----------------------------------------
  Sum of atomic charges =     0.000000

                    Cartesian Multipole Moments
 -----------------------------------------------------------------
    Charge (ESU x 10^10)
                -0.0000
    Dipole Moment (Debye)
         X       0.4355      Y       0.6189      Z       3.8168
       Tot       3.8911
    Quadrupole Moments (Debye-Ang)
        XX     -96.2824     XY       0.4377     YY     -81.3469
        XZ      -0.7150     YZ     -11.4605     ZZ     -95.5067

 Total job time:  54.46s(wall), 1949.26s(cpu)
        *  Thank you very much for using Q-Chem.  Have a nice day.  *
