 Q-Chem 5.4, Q-Chem, Inc., Pleasanton, CA (2021)
 Q-Chem 5.4.0 for Intel X86 EM64T Linux

User input:
--------------------------------------------------------------
$molecule
0 1
C	-0.089770	-0.987267	0.973626
S	-0.010470	-0.085967	2.481126
C	0.125830	1.480633	1.692526
C	-0.010170	-0.086367	-0.094274
C	0.108630	1.298733	0.287226
S	-0.028570	-0.329267	-1.831874
C	0.118530	1.416233	-2.080874
C	0.177830	2.122133	-0.888974
F	0.289530	3.454033	-0.845474
C	0.159530	1.862433	-3.482474
O	0.100330	1.094833	-4.432874
O	0.269730	3.208433	-3.595574
C	0.318130	3.701233	-4.942574
H	0.407130	4.798633	-4.859474
H	-0.602370	3.427033	-5.496574
H	1.188630	3.280833	-5.485674
C	-0.089770	-2.422467	0.973626
H	-0.452170	-2.430467	1.991026
H	-0.879870	-3.100367	0.686326
H	0.796130	-2.953567	1.289026
H	0.205030	2.401533	2.280126
$end

$rem
JOBTYPE		SP
EXCHANGE	HF
CORRELATION	pRIMP2
BASIS		cc-pvtz
METHOD		rimp2
AUX_BASIS	rimp2-cc-pvtz
SOLVENT_METHOD	PCM
PURECART	11111
SYMMETRY	false
MEM_TOTAL	110000
SCF_CONVERGENCE = 6
THRESH=10
GUI = 2
$end

$solvent
dielectric 4.90
$end
--------------------------------------------------------------

             Standard Nuclear Orientation (Angstroms)
    I     Atom           X                Y                Z
 ----------------------------------------------------------------
    1      C      -0.0897700000    -0.9872670000     0.9736260000
    2      S      -0.0104700000    -0.0859670000     2.4811260000
    3      C       0.1258300000     1.4806330000     1.6925260000
    4      C      -0.0101700000    -0.0863670000    -0.0942740000
    5      C       0.1086300000     1.2987330000     0.2872260000
    6      S      -0.0285700000    -0.3292670000    -1.8318740000
    7      C       0.1185300000     1.4162330000    -2.0808740000
    8      C       0.1778300000     2.1221330000    -0.8889740000
    9      F       0.2895300000     3.4540330000    -0.8454740000
   10      C       0.1595300000     1.8624330000    -3.4824740000
   11      O       0.1003300000     1.0948330000    -4.4328740000
   12      O       0.2697300000     3.2084330000    -3.5955740000
   13      C       0.3181300000     3.7012330000    -4.9425740000
   14      H       0.4071300000     4.7986330000    -4.8594740000
   15      H      -0.6023700000     3.4270330000    -5.4965740000
   16      H       1.1886300000     3.2808330000    -5.4856740000
   17      C      -0.0897700000    -2.4224670000     0.9736260000
   18      H      -0.4521700000    -2.4304670000     1.9910260000
   19      H      -0.8798700000    -3.1003670000     0.6863260000
   20      H       0.7961300000    -2.9535670000     1.2890260000
   21      H       0.2050300000     2.4015330000     2.2801260000
 ----------------------------------------------------------------

   11   -1389.2700793630      4.84e-07  Convergence criterion met
 Total energy in the final basis set =    -1389.2700793630
        RIMP2         total energy =     -1391.7750340699 a.u.

                    Orbital Energies (a.u.)
 --------------------------------------------------------------

 Alpha MOs
 -- Occupied --
-92.0083 -91.9916 -26.3402 -20.6133 -20.5594 -11.4072 -11.3782 -11.2995
-11.2941 -11.2931 -11.2880 -11.2845 -11.2785 -11.2258  -9.0071  -8.9918
 -6.6879  -6.6873  -6.6868  -6.6728  -6.6721  -6.6710  -1.6575  -1.4657
 -1.3683  -1.2120  -1.1368  -1.0647  -1.0196  -0.9952  -0.9586  -0.9126
 -0.8637  -0.8064  -0.7882  -0.7579  -0.7312  -0.7224  -0.6913  -0.6831
 -0.6725  -0.6606  -0.6086  -0.6008  -0.5917  -0.5774  -0.5658  -0.5564
 -0.5395  -0.5298  -0.5078  -0.4810  -0.4732  -0.4710  -0.4672  -0.4606
 -0.3908  -0.3453  -0.2901

          Ground-State Mulliken Net Atomic Charges

     Atom                 Charge (a.u.)
  ----------------------------------------
      1 C                     0.026627
      2 S                     0.076212
      3 C                    -0.209256
      4 C                    -0.000665
      5 C                    -0.096117
      6 S                    -0.006013
      7 C                    -0.158502
      8 C                     0.392055
      9 F                    -0.208912
     10 C                     0.445076
     11 O                    -0.462324
     12 O                    -0.300777
     13 C                    -0.058700
     14 H                     0.121044
     15 H                     0.094769
     16 H                     0.094685
     17 C                    -0.371403
     18 H                     0.113887
     19 H                     0.159457
     20 H                     0.134317
     21 H                     0.214539
  ----------------------------------------
  Sum of atomic charges =     0.000000

                    Cartesian Multipole Moments
 -----------------------------------------------------------------
    Charge (ESU x 10^10)
                -0.0000
    Dipole Moment (Debye)
         X      -0.0266      Y       0.6221      Z       3.8221
       Tot       3.8724
    Quadrupole Moments (Debye-Ang)
        XX     -96.1980     XY       1.7159     YY     -81.3176
        XZ      -0.7099     YZ     -11.3736     ZZ     -95.4918

 Total job time:  54.29s(wall), 1923.84s(cpu)
        *  Thank you very much for using Q-Chem.  Have a nice day.  *
