 Q-Chem 5.4, Q-Chem, Inc., Pleasanton, CA (2021)
 Q-Chem 5.4.0 for Intel X86 EM64T Linux

User input:
--------------------------------------------------------------
$molecule
0 1
C	-0.087999	-0.987267	0.976092
S	-0.008699	-0.085967	2.483592
C	0.127601	1.480633	1.694992
C	-0.008399	-0.086367	-0.091808
C	0.110401	1.298733	0.289692
S	-0.026799	-0.329267	-1.829408
C	0.120301	1.416233	-2.078408
C	0.179601	2.122133	-0.886508
F	0.291301	3.454033	-0.843008
C	0.161301	1.862433	-3.480008
O	0.102101	1.094833	-4.430408
O	0.271501	3.208433	-3.593108
C	0.319901	3.701233	-4.940108
H	0.408901	4.798633	-4.857008
H	-0.600599	3.427033	-5.494108
H	1.190401	3.280833	-5.483208
C	-0.087999	-2.422467	0.976092
H	-1.152799	-2.430467	0.795892
H	0.057701	-3.100367	0.148092
H	-0.244699	-2.953567	1.903292
H	0.206801	2.401533	2.282592
$end

$rem
JOBTYPE		SP
EXCHANGE	HF
CORRELATION	pRIMP2
BASIS		cc-pvtz
METHOD		rimp2
AUX_BASIS	rimp2-cc-pvtz
SOLVENT_METHOD	PCM
PURECART	11111
SYMMETRY	false
MEM_TOTAL	110000
SCF_CONVERGENCE = 6
THRESH=10
GUI = 2
$end

$solvent
dielectric 4.90
$end
--------------------------------------------------------------

             Standard Nuclear Orientation (Angstroms)
    I     Atom           X                Y                Z
 ----------------------------------------------------------------
    1      C      -0.0879990000    -0.9872670000     0.9760920000
    2      S      -0.0086990000    -0.0859670000     2.4835920000
    3      C       0.1276010000     1.4806330000     1.6949920000
    4      C      -0.0083990000    -0.0863670000    -0.0918080000
    5      C       0.1104010000     1.2987330000     0.2896920000
    6      S      -0.0267990000    -0.3292670000    -1.8294080000
    7      C       0.1203010000     1.4162330000    -2.0784080000
    8      C       0.1796010000     2.1221330000    -0.8865080000
    9      F       0.2913010000     3.4540330000    -0.8430080000
   10      C       0.1613010000     1.8624330000    -3.4800080000
   11      O       0.1021010000     1.0948330000    -4.4304080000
   12      O       0.2715010000     3.2084330000    -3.5931080000
   13      C       0.3199010000     3.7012330000    -4.9401080000
   14      H       0.4089010000     4.7986330000    -4.8570080000
   15      H      -0.6005990000     3.4270330000    -5.4941080000
   16      H       1.1904010000     3.2808330000    -5.4832080000
   17      C      -0.0879990000    -2.4224670000     0.9760920000
   18      H      -1.1527990000    -2.4304670000     0.7958920000
   19      H       0.0577010000    -3.1003670000     0.1480920000
   20      H      -0.2446990000    -2.9535670000     1.9032920000
   21      H       0.2068010000     2.4015330000     2.2825920000
 ----------------------------------------------------------------

   11   -1389.2721241231      5.21e-07  Convergence criterion met
 Total energy in the final basis set =    -1389.2721241231
        RIMP2         total energy =     -1391.7761448149 a.u.

                    Orbital Energies (a.u.)
 --------------------------------------------------------------

 Alpha MOs
 -- Occupied --
-92.0065 -91.9902 -26.3396 -20.6133 -20.5594 -11.4072 -11.3773 -11.3032
-11.2943 -11.2907 -11.2880 -11.2793 -11.2780 -11.2312  -9.0052  -8.9903
 -6.6861  -6.6855  -6.6849  -6.6714  -6.6707  -6.6696  -1.6569  -1.4657
 -1.3683  -1.2109  -1.1360  -1.0667  -1.0178  -0.9959  -0.9576  -0.9133
 -0.8626  -0.8040  -0.7878  -0.7582  -0.7301  -0.7218  -0.6925  -0.6830
 -0.6724  -0.6599  -0.6130  -0.5942  -0.5877  -0.5831  -0.5604  -0.5601
 -0.5334  -0.5280  -0.5138  -0.4999  -0.4724  -0.4714  -0.4702  -0.4602
 -0.3834  -0.3448  -0.2804

          Ground-State Mulliken Net Atomic Charges

     Atom                 Charge (a.u.)
  ----------------------------------------
      1 C                     0.050041
      2 S                     0.081895
      3 C                    -0.232147
      4 C                    -0.033435
      5 C                    -0.089838
      6 S                    -0.017643
      7 C                    -0.157138
      8 C                     0.389247
      9 F                    -0.209185
     10 C                     0.445324
     11 O                    -0.462119
     12 O                    -0.300608
     13 C                    -0.058712
     14 H                     0.121131
     15 H                     0.094703
     16 H                     0.094690
     17 C                    -0.390046
     18 H                     0.146805
     19 H                     0.169092
     20 H                     0.145709
     21 H                     0.212233
  ----------------------------------------
  Sum of atomic charges =     0.000000

                    Cartesian Multipole Moments
 -----------------------------------------------------------------
    Charge (ESU x 10^10)
                -0.0000
    Dipole Moment (Debye)
         X      -0.5849      Y      -0.0760      Z       3.2093
       Tot       3.2631
    Quadrupole Moments (Debye-Ang)
        XX     -96.8001     XY       2.9197     YY     -80.4240
        XZ      -1.5642     YZ     -10.4958     ZZ     -96.6475

 Total job time:  53.96s(wall), 1939.82s(cpu)
        *  Thank you very much for using Q-Chem.  Have a nice day.  *
