 Q-Chem 5.4, Q-Chem, Inc., Pleasanton, CA (2021)
 Q-Chem 5.4.0 for Intel X86 EM64T Linux

User input:
--------------------------------------------------------------
$molecule
0 1
C	-0.268050	-0.955820	0.973763
S	-0.033450	-0.082020	2.481263
C	0.372850	1.437180	1.692663
C	-0.033250	-0.082420	-0.094137
C	0.324350	1.260980	0.287363
S	-0.093550	-0.318420	-1.831737
C	0.354550	1.374980	-2.080737
C	0.535450	2.059780	-0.888837
F	0.876750	3.352180	-0.845337
C	0.472250	1.807280	-3.482337
O	0.280750	1.061580	-4.432737
O	0.814650	3.113680	-3.595437
C	0.947750	3.590580	-4.942437
H	1.226050	4.655880	-4.859337
H	-0.006350	3.480480	-5.496437
H	1.732050	3.025480	-5.485537
C	-0.268050	-2.391020	0.973763
H	-0.801550	-2.399020	1.912763
H	-0.996250	-3.068920	0.553663
H	0.549650	-2.922120	1.438163
H	0.610650	2.330280	2.280263
$end

$rem
JOBTYPE		SP
EXCHANGE	HF
CORRELATION	pRIMP2
BASIS		cc-pvtz
METHOD		rimp2
AUX_BASIS	rimp2-cc-pvtz
SOLVENT_METHOD	PCM
PURECART	11111
SYMMETRY	false
MEM_TOTAL	110000
SCF_CONVERGENCE = 6
THRESH=10
GUI = 2
$end

$solvent
dielectric 4.90
$end
--------------------------------------------------------------

             Standard Nuclear Orientation (Angstroms)
    I     Atom           X                Y                Z
 ----------------------------------------------------------------
    1      C      -0.2680500000    -0.9558200000     0.9737630000
    2      S      -0.0334500000    -0.0820200000     2.4812630000
    3      C       0.3728500000     1.4371800000     1.6926630000
    4      C      -0.0332500000    -0.0824200000    -0.0941370000
    5      C       0.3243500000     1.2609800000     0.2873630000
    6      S      -0.0935500000    -0.3184200000    -1.8317370000
    7      C       0.3545500000     1.3749800000    -2.0807370000
    8      C       0.5354500000     2.0597800000    -0.8888370000
    9      F       0.8767500000     3.3521800000    -0.8453370000
   10      C       0.4722500000     1.8072800000    -3.4823370000
   11      O       0.2807500000     1.0615800000    -4.4327370000
   12      O       0.8146500000     3.1136800000    -3.5954370000
   13      C       0.9477500000     3.5905800000    -4.9424370000
   14      H       1.2260500000     4.6558800000    -4.8593370000
   15      H      -0.0063500000     3.4804800000    -5.4964370000
   16      H       1.7320500000     3.0254800000    -5.4855370000
   17      C      -0.2680500000    -2.3910200000     0.9737630000
   18      H      -0.8015500000    -2.3990200000     1.9127630000
   19      H      -0.9962500000    -3.0689200000     0.5536630000
   20      H       0.5496500000    -2.9221200000     1.4381630000
   21      H       0.6106500000     2.3302800000     2.2802630000
 ----------------------------------------------------------------

   11   -1389.2665301788      4.80e-07  Convergence criterion met
 Total energy in the final basis set =    -1389.2665301788
        RIMP2         total energy =     -1391.7721608089 a.u.

                    Orbital Energies (a.u.)
 --------------------------------------------------------------

 Alpha MOs
 -- Occupied --
-92.0079 -91.9919 -26.3403 -20.6134 -20.5594 -11.4073 -11.3782 -11.3002
-11.2941 -11.2922 -11.2880 -11.2846 -11.2785 -11.2254  -9.0068  -8.9920
 -6.6876  -6.6870  -6.6865  -6.6731  -6.6724  -6.6712  -1.6575  -1.4657
 -1.3683  -1.2122  -1.1369  -1.0648  -1.0196  -0.9950  -0.9585  -0.9125
 -0.8636  -0.8063  -0.7882  -0.7580  -0.7311  -0.7224  -0.6914  -0.6831
 -0.6725  -0.6604  -0.6095  -0.5993  -0.5912  -0.5786  -0.5651  -0.5570
 -0.5366  -0.5298  -0.5083  -0.4831  -0.4728  -0.4711  -0.4679  -0.4612
 -0.3890  -0.3452  -0.2890

          Ground-State Mulliken Net Atomic Charges

     Atom                 Charge (a.u.)
  ----------------------------------------
      1 C                     0.003531
      2 S                     0.077051
      3 C                    -0.205345
      4 C                     0.005567
      5 C                    -0.098016
      6 S                    -0.004721
      7 C                    -0.159075
      8 C                     0.392789
      9 F                    -0.209013
     10 C                     0.445277
     11 O                    -0.462276
     12 O                    -0.300835
     13 C                    -0.058527
     14 H                     0.120997
     15 H                     0.094734
     16 H                     0.094689
     17 C                    -0.368714
     18 H                     0.116630
     19 H                     0.163412
     20 H                     0.137620
     21 H                     0.214225
  ----------------------------------------
  Sum of atomic charges =     0.000000

                    Cartesian Multipole Moments
 -----------------------------------------------------------------
    Charge (ESU x 10^10)
                -0.0000
    Dipole Moment (Debye)
         X       0.2634      Y       0.5809      Z       3.7580
       Tot       3.8117
    Quadrupole Moments (Debye-Ang)
        XX     -95.5675     XY       3.8522     YY     -82.0386
        XZ      -2.2424     YZ     -10.9134     ZZ     -95.5025

 Total job time:  56.87s(wall), 1897.59s(cpu)
        *  Thank you very much for using Q-Chem.  Have a nice day.  *
