 Q-Chem 5.4, Q-Chem, Inc., Pleasanton, CA (2021)
 Q-Chem 5.4.0 for Intel X86 EM64T Linux

User input:
--------------------------------------------------------------
$molecule
0 1
C	-0.088403	-0.987267	0.977246
S	-0.009103	-0.085967	2.484746
C	0.127197	1.480633	1.696146
C	-0.008803	-0.086367	-0.090654
C	0.109997	1.298733	0.290846
S	-0.027203	-0.329267	-1.828254
C	0.119897	1.416233	-2.077254
C	0.179197	2.122133	-0.885354
F	0.290897	3.454033	-0.841854
C	0.160897	1.862433	-3.478854
O	0.101697	1.094833	-4.429254
O	0.271097	3.208433	-3.591954
C	0.319497	3.701233	-4.938954
H	0.408497	4.798633	-4.855854
H	-0.601003	3.427033	-5.492954
H	1.189997	3.280833	-5.482054
C	-0.088403	-2.422467	0.977246
H	-0.920503	-2.430467	0.288746
H	0.451797	-3.100367	0.333046
H	-0.687703	-2.953567	1.701846
H	0.206397	2.401533	2.283746
$end

$rem
JOBTYPE		SP
EXCHANGE	HF
CORRELATION	pRIMP2
BASIS		cc-pvtz
METHOD		rimp2
AUX_BASIS	rimp2-cc-pvtz
SOLVENT_METHOD	PCM
PURECART	11111
SYMMETRY	false
MEM_TOTAL	110000
SCF_CONVERGENCE = 6
THRESH=10
GUI = 2
$end

$solvent
dielectric 4.90
$end
--------------------------------------------------------------

             Standard Nuclear Orientation (Angstroms)
    I     Atom           X                Y                Z
 ----------------------------------------------------------------
    1      C      -0.0884030000    -0.9872670000     0.9772460000
    2      S      -0.0091030000    -0.0859670000     2.4847460000
    3      C       0.1271970000     1.4806330000     1.6961460000
    4      C      -0.0088030000    -0.0863670000    -0.0906540000
    5      C       0.1099970000     1.2987330000     0.2908460000
    6      S      -0.0272030000    -0.3292670000    -1.8282540000
    7      C       0.1198970000     1.4162330000    -2.0772540000
    8      C       0.1791970000     2.1221330000    -0.8853540000
    9      F       0.2908970000     3.4540330000    -0.8418540000
   10      C       0.1608970000     1.8624330000    -3.4788540000
   11      O       0.1016970000     1.0948330000    -4.4292540000
   12      O       0.2710970000     3.2084330000    -3.5919540000
   13      C       0.3194970000     3.7012330000    -4.9389540000
   14      H       0.4084970000     4.7986330000    -4.8558540000
   15      H      -0.6010030000     3.4270330000    -5.4929540000
   16      H       1.1899970000     3.2808330000    -5.4820540000
   17      C      -0.0884030000    -2.4224670000     0.9772460000
   18      H      -0.9205030000    -2.4304670000     0.2887460000
   19      H       0.4517970000    -3.1003670000     0.3330460000
   20      H      -0.6877030000    -2.9535670000     1.7018460000
   21      H       0.2063970000     2.4015330000     2.2837460000
 ----------------------------------------------------------------

   11   -1389.2727150757      4.89e-07  Convergence criterion met
 Total energy in the final basis set =    -1389.2727150757
        RIMP2         total energy =     -1391.7779430143 a.u.

                    Orbital Energies (a.u.)
 --------------------------------------------------------------

 Alpha MOs
 -- Occupied --
-92.0053 -91.9923 -26.3405 -20.6135 -20.5596 -11.4075 -11.3785 -11.2992
-11.2945 -11.2945 -11.2881 -11.2837 -11.2787 -11.2287  -9.0041  -8.9924
 -6.6849  -6.6843  -6.6838  -6.6735  -6.6728  -6.6716  -1.6577  -1.4659
 -1.3685  -1.2120  -1.1355  -1.0671  -1.0182  -0.9956  -0.9579  -0.9137
 -0.8630  -0.8045  -0.7884  -0.7587  -0.7299  -0.7226  -0.6935  -0.6833
 -0.6727  -0.6605  -0.6120  -0.5961  -0.5898  -0.5822  -0.5642  -0.5577
 -0.5378  -0.5297  -0.5076  -0.4935  -0.4732  -0.4713  -0.4685  -0.4596
 -0.3858  -0.3445  -0.2856

          Ground-State Mulliken Net Atomic Charges

     Atom                 Charge (a.u.)
  ----------------------------------------
      1 C                     0.055293
      2 S                     0.075924
      3 C                    -0.217329
      4 C                    -0.030370
      5 C                    -0.090558
      6 S                    -0.012234
      7 C                    -0.155934
      8 C                     0.384827
      9 F                    -0.208354
     10 C                     0.445419
     11 O                    -0.462538
     12 O                    -0.300731
     13 C                    -0.058673
     14 H                     0.121163
     15 H                     0.094742
     16 H                     0.094697
     17 C                    -0.382835
     18 H                     0.128886
     19 H                     0.158366
     20 H                     0.148049
     21 H                     0.212192
  ----------------------------------------
  Sum of atomic charges =     0.000000

                    Cartesian Multipole Moments
 -----------------------------------------------------------------
    Charge (ESU x 10^10)
                -0.0000
    Dipole Moment (Debye)
         X      -0.3827      Y       0.2448      Z       2.8413
       Tot       2.8774
    Quadrupole Moments (Debye-Ang)
        XX     -96.5135     XY       2.4422     YY     -80.8257
        XZ      -1.5742     YZ      -9.3698     ZZ     -97.3892

 Total job time:  54.46s(wall), 1968.09s(cpu)
        *  Thank you very much for using Q-Chem.  Have a nice day.  *
