 Q-Chem 5.4, Q-Chem, Inc., Pleasanton, CA (2021)
 Q-Chem 5.4.0 for Intel X86 EM64T Linux

User input:
--------------------------------------------------------------
$molecule
0 1
C	-0.270972	-0.955820	0.974584
S	-0.036372	-0.082020	2.482084
C	0.369928	1.437180	1.693484
C	-0.036172	-0.082420	-0.093316
C	0.321428	1.260980	0.288184
S	-0.096472	-0.318420	-1.830916
C	0.351628	1.374980	-2.079916
C	0.532528	2.059780	-0.888016
F	0.873828	3.352180	-0.844516
C	0.469328	1.807280	-3.481516
O	0.277828	1.061580	-4.431916
O	0.811728	3.113680	-3.594616
C	0.944828	3.590580	-4.941616
H	1.223128	4.655880	-4.858516
H	-0.009272	3.480480	-5.495616
H	1.729128	3.025480	-5.484716
C	-0.270972	-2.391020	0.974584
H	0.561128	-2.399020	1.663084
H	-0.811172	-3.068920	1.618784
H	0.328328	-2.922120	0.249984
H	0.607728	2.330280	2.281084
$end

$rem
JOBTYPE		SP
EXCHANGE	HF
CORRELATION	pRIMP2
BASIS		cc-pvtz
METHOD		rimp2
AUX_BASIS	rimp2-cc-pvtz
SOLVENT_METHOD	PCM
PURECART	11111
SYMMETRY	false
MEM_TOTAL	110000
SCF_CONVERGENCE = 6
THRESH=10
GUI = 2
$end

$solvent
dielectric 4.90
$end
--------------------------------------------------------------

             Standard Nuclear Orientation (Angstroms)
    I     Atom           X                Y                Z
 ----------------------------------------------------------------
    1      C      -0.2709720000    -0.9558200000     0.9745840000
    2      S      -0.0363720000    -0.0820200000     2.4820840000
    3      C       0.3699280000     1.4371800000     1.6934840000
    4      C      -0.0361720000    -0.0824200000    -0.0933160000
    5      C       0.3214280000     1.2609800000     0.2881840000
    6      S      -0.0964720000    -0.3184200000    -1.8309160000
    7      C       0.3516280000     1.3749800000    -2.0799160000
    8      C       0.5325280000     2.0597800000    -0.8880160000
    9      F       0.8738280000     3.3521800000    -0.8445160000
   10      C       0.4693280000     1.8072800000    -3.4815160000
   11      O       0.2778280000     1.0615800000    -4.4319160000
   12      O       0.8117280000     3.1136800000    -3.5946160000
   13      C       0.9448280000     3.5905800000    -4.9416160000
   14      H       1.2231280000     4.6558800000    -4.8585160000
   15      H      -0.0092720000     3.4804800000    -5.4956160000
   16      H       1.7291280000     3.0254800000    -5.4847160000
   17      C      -0.2709720000    -2.3910200000     0.9745840000
   18      H       0.5611280000    -2.3990200000     1.6630840000
   19      H      -0.8111720000    -3.0689200000     1.6187840000
   20      H       0.3283280000    -2.9221200000     0.2499840000
   21      H       0.6077280000     2.3302800000     2.2810840000
 ----------------------------------------------------------------

   11   -1389.2683395362      5.30e-07  Convergence criterion met
 Total energy in the final basis set =    -1389.2683395362
        RIMP2         total energy =     -1391.7727766358 a.u.

                    Orbital Energies (a.u.)
 --------------------------------------------------------------

 Alpha MOs
 -- Occupied --
-92.0045 -91.9906 -26.3401 -20.6133 -20.5595 -11.4072 -11.3781 -11.2980
-11.2971 -11.2941 -11.2880 -11.2835 -11.2783 -11.2281  -9.0038  -8.9908
 -6.6846  -6.6840  -6.6835  -6.6719  -6.6712  -6.6700  -1.6574  -1.4657
 -1.3683  -1.2122  -1.1372  -1.0660  -1.0189  -0.9948  -0.9582  -0.9121
 -0.8632  -0.8056  -0.7881  -0.7580  -0.7312  -0.7223  -0.6916  -0.6831
 -0.6725  -0.6601  -0.6106  -0.5997  -0.5924  -0.5762  -0.5643  -0.5554
 -0.5367  -0.5295  -0.5113  -0.4939  -0.4729  -0.4708  -0.4703  -0.4563
 -0.3870  -0.3459  -0.2840

          Ground-State Mulliken Net Atomic Charges

     Atom                 Charge (a.u.)
  ----------------------------------------
      1 C                     0.051642
      2 S                     0.073336
      3 C                    -0.215885
      4 C                    -0.046882
      5 C                    -0.083501
      6 S                    -0.006969
      7 C                    -0.156347
      8 C                     0.389094
      9 F                    -0.208790
     10 C                     0.445625
     11 O                    -0.462037
     12 O                    -0.300847
     13 C                    -0.058504
     14 H                     0.121017
     15 H                     0.094780
     16 H                     0.094603
     17 C                    -0.382621
     18 H                     0.135052
     19 H                     0.156615
     20 H                     0.147329
     21 H                     0.213291
  ----------------------------------------
  Sum of atomic charges =     0.000000

                    Cartesian Multipole Moments
 -----------------------------------------------------------------
    Charge (ESU x 10^10)
                -0.0000
    Dipole Moment (Debye)
         X       1.0892      Y       0.2599      Z       3.6734
       Tot       3.8403
    Quadrupole Moments (Debye-Ang)
        XX     -96.2960     XY       1.5597     YY     -81.6318
        XZ      -2.0754     YZ     -11.2044     ZZ     -95.7816

 Total job time:  61.13s(wall), 1985.25s(cpu)
        *  Thank you very much for using Q-Chem.  Have a nice day.  *
