 Q-Chem 5.4, Q-Chem, Inc., Pleasanton, CA (2021)
 Q-Chem 5.4.0 for Intel X86 EM64T Linux

User input:
--------------------------------------------------------------
$molecule
0 1
C	-0.266870	-0.955820	0.976887
S	-0.032270	-0.082020	2.484387
C	0.374030	1.437180	1.695787
C	-0.032070	-0.082420	-0.091013
C	0.325530	1.260980	0.290487
S	-0.092370	-0.318420	-1.828613
C	0.355730	1.374980	-2.077613
C	0.536630	2.059780	-0.885713
F	0.877930	3.352180	-0.842213
C	0.473430	1.807280	-3.479213
O	0.281930	1.061580	-4.429613
O	0.815830	3.113680	-3.592313
C	0.948930	3.590580	-4.939313
H	1.227230	4.655880	-4.856213
H	-0.005170	3.480480	-5.493313
H	1.733230	3.025480	-5.482413
C	-0.266870	-2.391020	0.976887
H	-1.205870	-2.399020	0.443387
H	0.153230	-3.068920	0.248687
H	-0.731270	-2.922120	1.794587
H	0.611830	2.330280	2.283387
$end

$rem
JOBTYPE		SP
EXCHANGE	HF
CORRELATION	pRIMP2
BASIS		cc-pvtz
METHOD		rimp2
AUX_BASIS	rimp2-cc-pvtz
SOLVENT_METHOD	PCM
PURECART	11111
SYMMETRY	false
MEM_TOTAL	110000
SCF_CONVERGENCE = 6
THRESH=10
GUI = 2
$end

$solvent
dielectric 4.90
$end
--------------------------------------------------------------

             Standard Nuclear Orientation (Angstroms)
    I     Atom           X                Y                Z
 ----------------------------------------------------------------
    1      C      -0.2668700000    -0.9558200000     0.9768870000
    2      S      -0.0322700000    -0.0820200000     2.4843870000
    3      C       0.3740300000     1.4371800000     1.6957870000
    4      C      -0.0320700000    -0.0824200000    -0.0910130000
    5      C       0.3255300000     1.2609800000     0.2904870000
    6      S      -0.0923700000    -0.3184200000    -1.8286130000
    7      C       0.3557300000     1.3749800000    -2.0776130000
    8      C       0.5366300000     2.0597800000    -0.8857130000
    9      F       0.8779300000     3.3521800000    -0.8422130000
   10      C       0.4734300000     1.8072800000    -3.4792130000
   11      O       0.2819300000     1.0615800000    -4.4296130000
   12      O       0.8158300000     3.1136800000    -3.5923130000
   13      C       0.9489300000     3.5905800000    -4.9393130000
   14      H       1.2272300000     4.6558800000    -4.8562130000
   15      H      -0.0051700000     3.4804800000    -5.4933130000
   16      H       1.7332300000     3.0254800000    -5.4824130000
   17      C      -0.2668700000    -2.3910200000     0.9768870000
   18      H      -1.2058700000    -2.3990200000     0.4433870000
   19      H       0.1532300000    -3.0689200000     0.2486870000
   20      H      -0.7312700000    -2.9221200000     1.7945870000
   21      H       0.6118300000     2.3302800000     2.2833870000
 ----------------------------------------------------------------

   11   -1389.2675722678      4.92e-07  Convergence criterion met
 Total energy in the final basis set =    -1389.2675722678
        RIMP2         total energy =     -1391.7737024121 a.u.

                    Orbital Energies (a.u.)
 --------------------------------------------------------------

 Alpha MOs
 -- Occupied --
-92.0049 -91.9923 -26.3404 -20.6135 -20.5596 -11.4075 -11.3784 -11.2979
-11.2948 -11.2944 -11.2881 -11.2837 -11.2787 -11.2280  -9.0038  -8.9924
 -6.6846  -6.6840  -6.6835  -6.6734  -6.6727  -6.6716  -1.6576  -1.4659
 -1.3685  -1.2120  -1.1357  -1.0667  -1.0182  -0.9955  -0.9579  -0.9136
 -0.8630  -0.8045  -0.7883  -0.7586  -0.7299  -0.7224  -0.6932  -0.6832
 -0.6727  -0.6603  -0.6123  -0.5952  -0.5893  -0.5813  -0.5629  -0.5582
 -0.5365  -0.5293  -0.5080  -0.4966  -0.4734  -0.4712  -0.4698  -0.4578
 -0.3842  -0.3446  -0.2838

          Ground-State Mulliken Net Atomic Charges

     Atom                 Charge (a.u.)
  ----------------------------------------
      1 C                     0.041974
      2 S                     0.081251
      3 C                    -0.219022
      4 C                    -0.041802
      5 C                    -0.084610
      6 S                    -0.010189
      7 C                    -0.155194
      8 C                     0.385983
      9 F                    -0.208485
     10 C                     0.445427
     11 O                    -0.462405
     12 O                    -0.300781
     13 C                    -0.058483
     14 H                     0.121099
     15 H                     0.094706
     16 H                     0.094684
     17 C                    -0.382056
     18 H                     0.136898
     19 H                     0.163566
     20 H                     0.145794
     21 H                     0.211646
  ----------------------------------------
  Sum of atomic charges =     0.000000

                    Cartesian Multipole Moments
 -----------------------------------------------------------------
    Charge (ESU x 10^10)
                -0.0000
    Dipole Moment (Debye)
         X      -0.1123      Y       0.1957      Z       2.9157
       Tot       2.9244
    Quadrupole Moments (Debye-Ang)
        XX     -95.7958     XY       4.5227     YY     -81.5905
        XZ      -3.0706     YZ      -9.3111     ZZ     -97.1119

 Total job time:  67.07s(wall), 2677.65s(cpu)
        *  Thank you very much for using Q-Chem.  Have a nice day.  *
