 Q-Chem 5.4, Q-Chem, Inc., Pleasanton, CA (2021)
 Q-Chem 5.4.0 for Intel X86 EM64T Linux

User input:
--------------------------------------------------------------
$molecule
0 1
C	-0.439754	-0.893839	0.973565
S	-0.056954	-0.074039	2.481065
C	0.606946	1.351461	1.692465
C	-0.056854	-0.074439	-0.094335
C	0.528546	1.186461	0.287165
S	-0.157154	-0.296439	-1.831935
C	0.578046	1.293461	-2.080935
C	0.875246	1.936461	-0.889035
F	1.435746	3.149961	-0.845535
C	0.769146	1.698761	-3.482535
O	0.451046	0.997661	-4.432935
O	1.333146	2.925861	-3.595635
C	1.547146	3.372361	-4.942635
H	2.006046	4.373161	-4.859535
H	0.588346	3.429561	-5.496635
H	2.221346	2.679661	-5.485735
C	-0.439754	-2.329039	0.973565
H	-0.432354	-2.337039	2.053465
H	-1.280454	-3.006939	0.973865
H	0.500646	-2.860139	0.966865
H	0.996246	2.189761	2.280065
$end

$rem
JOBTYPE		SP
EXCHANGE	HF
CORRELATION	pRIMP2
BASIS		cc-pvtz
METHOD		rimp2
AUX_BASIS	rimp2-cc-pvtz
SOLVENT_METHOD	PCM
PURECART	11111
SYMMETRY	false
MEM_TOTAL	110000
SCF_CONVERGENCE = 6
THRESH=10
GUI = 2
$end

$solvent
dielectric 4.90
$end
--------------------------------------------------------------

             Standard Nuclear Orientation (Angstroms)
    I     Atom           X                Y                Z
 ----------------------------------------------------------------
    1      C      -0.4397540000    -0.8938390000     0.9735650000
    2      S      -0.0569540000    -0.0740390000     2.4810650000
    3      C       0.6069460000     1.3514610000     1.6924650000
    4      C      -0.0568540000    -0.0744390000    -0.0943350000
    5      C       0.5285460000     1.1864610000     0.2871650000
    6      S      -0.1571540000    -0.2964390000    -1.8319350000
    7      C       0.5780460000     1.2934610000    -2.0809350000
    8      C       0.8752460000     1.9364610000    -0.8890350000
    9      F       1.4357460000     3.1499610000    -0.8455350000
   10      C       0.7691460000     1.6987610000    -3.4825350000
   11      O       0.4510460000     0.9976610000    -4.4329350000
   12      O       1.3331460000     2.9258610000    -3.5956350000
   13      C       1.5471460000     3.3723610000    -4.9426350000
   14      H       2.0060460000     4.3731610000    -4.8595350000
   15      H       0.5883460000     3.4295610000    -5.4966350000
   16      H       2.2213460000     2.6796610000    -5.4857350000
   17      C      -0.4397540000    -2.3290390000     0.9735650000
   18      H      -0.4323540000    -2.3370390000     2.0534650000
   19      H      -1.2804540000    -3.0069390000     0.9738650000
   20      H       0.5006460000    -2.8601390000     0.9668650000
   21      H       0.9962460000     2.1897610000     2.2800650000
 ----------------------------------------------------------------

   11   -1389.2582753752      4.71e-07  Convergence criterion met
 Total energy in the final basis set =    -1389.2582753752
        RIMP2         total energy =     -1391.7659355693 a.u.

                    Orbital Energies (a.u.)
 --------------------------------------------------------------

 Alpha MOs
 -- Occupied --
-92.0076 -91.9937 -26.3409 -20.6134 -20.5594 -11.4074 -11.3792 -11.3043
-11.2941 -11.2886 -11.2881 -11.2861 -11.2789 -11.2232  -9.0066  -8.9938
 -6.6873  -6.6866  -6.6862  -6.6748  -6.6741  -6.6730  -1.6581  -1.4658
 -1.3684  -1.2137  -1.1381  -1.0649  -1.0205  -0.9939  -0.9591  -0.9111
 -0.8644  -0.8076  -0.7888  -0.7581  -0.7315  -0.7230  -0.6918  -0.6832
 -0.6726  -0.6607  -0.6066  -0.6036  -0.5919  -0.5765  -0.5654  -0.5579
 -0.5365  -0.5299  -0.5080  -0.4791  -0.4741  -0.4714  -0.4673  -0.4558
 -0.3915  -0.3446  -0.2930

          Ground-State Mulliken Net Atomic Charges

     Atom                 Charge (a.u.)
  ----------------------------------------
      1 C                     0.008317
      2 S                     0.078678
      3 C                    -0.202857
      4 C                    -0.020396
      5 C                    -0.081360
      6 S                     0.003599
      7 C                    -0.156836
      8 C                     0.389980
      9 F                    -0.208262
     10 C                     0.445779
     11 O                    -0.462585
     12 O                    -0.301133
     13 C                    -0.058507
     14 H                     0.121021
     15 H                     0.094797
     16 H                     0.094684
     17 C                    -0.357645
     18 H                     0.109598
     19 H                     0.148794
     20 H                     0.139513
     21 H                     0.214820
  ----------------------------------------
  Sum of atomic charges =     0.000000

                    Cartesian Multipole Moments
 -----------------------------------------------------------------
    Charge (ESU x 10^10)
                -0.0000
    Dipole Moment (Debye)
         X       1.0892      Y       0.7600      Z       3.7568
       Tot       3.9846
    Quadrupole Moments (Debye-Ang)
        XX     -94.4919     XY       4.3930     YY     -83.8428
        XZ      -3.5440     YZ     -10.1819     ZZ     -95.3252

 Total job time:  57.10s(wall), 1930.59s(cpu)
        *  Thank you very much for using Q-Chem.  Have a nice day.  *
