 Q-Chem 5.4, Q-Chem, Inc., Pleasanton, CA (2021)
 Q-Chem 5.4.0 for Intel X86 EM64T Linux

User input:
--------------------------------------------------------------
$molecule
0 1
C	-0.271150	-0.955820	0.976939
S	-0.036550	-0.082020	2.484439
C	0.369750	1.437180	1.695839
C	-0.036350	-0.082420	-0.090961
C	0.321250	1.260980	0.290539
S	-0.096650	-0.318420	-1.828561
C	0.351450	1.374980	-2.077561
C	0.532350	2.059780	-0.885661
F	0.873650	3.352180	-0.842161
C	0.469150	1.807280	-3.479161
O	0.277650	1.061580	-4.429561
O	0.811550	3.113680	-3.592261
C	0.944650	3.590580	-4.939261
H	1.222950	4.655880	-4.856161
H	-0.009450	3.480480	-5.493261
H	1.728950	3.025480	-5.482361
C	-0.271150	-2.391020	0.976939
H	0.741150	-2.399020	0.600539
H	0.016650	-3.068920	1.766839
H	-0.599050	-2.922120	0.095539
H	0.607550	2.330280	2.283439
$end

$rem
JOBTYPE		SP
EXCHANGE	HF
CORRELATION	pRIMP2
BASIS		cc-pvtz
METHOD		rimp2
AUX_BASIS	rimp2-cc-pvtz
SOLVENT_METHOD	PCM
PURECART	11111
SYMMETRY	false
MEM_TOTAL	110000
SCF_CONVERGENCE = 6
THRESH=10
GUI = 2
$end

$solvent
dielectric 4.90
$end
--------------------------------------------------------------

             Standard Nuclear Orientation (Angstroms)
    I     Atom           X                Y                Z
 ----------------------------------------------------------------
    1      C      -0.2711500000    -0.9558200000     0.9769390000
    2      S      -0.0365500000    -0.0820200000     2.4844390000
    3      C       0.3697500000     1.4371800000     1.6958390000
    4      C      -0.0363500000    -0.0824200000    -0.0909610000
    5      C       0.3212500000     1.2609800000     0.2905390000
    6      S      -0.0966500000    -0.3184200000    -1.8285610000
    7      C       0.3514500000     1.3749800000    -2.0775610000
    8      C       0.5323500000     2.0597800000    -0.8856610000
    9      F       0.8736500000     3.3521800000    -0.8421610000
   10      C       0.4691500000     1.8072800000    -3.4791610000
   11      O       0.2776500000     1.0615800000    -4.4295610000
   12      O       0.8115500000     3.1136800000    -3.5922610000
   13      C       0.9446500000     3.5905800000    -4.9392610000
   14      H       1.2229500000     4.6558800000    -4.8561610000
   15      H      -0.0094500000     3.4804800000    -5.4932610000
   16      H       1.7289500000     3.0254800000    -5.4823610000
   17      C      -0.2711500000    -2.3910200000     0.9769390000
   18      H       0.7411500000    -2.3990200000     0.6005390000
   19      H       0.0166500000    -3.0689200000     1.7668390000
   20      H      -0.5990500000    -2.9221200000     0.0955390000
   21      H       0.6075500000     2.3302800000     2.2834390000
 ----------------------------------------------------------------

   11   -1389.2697506759      5.16e-07  Convergence criterion met
 Total energy in the final basis set =    -1389.2697506759
        RIMP2         total energy =     -1391.7750371171 a.u.

                    Orbital Energies (a.u.)
 --------------------------------------------------------------

 Alpha MOs
 -- Occupied --
-92.0060 -91.9914 -26.3401 -20.6135 -20.5596 -11.4075 -11.3779 -11.3029
-11.2946 -11.2914 -11.2881 -11.2804 -11.2787 -11.2312  -9.0048  -8.9915
 -6.6856  -6.6850  -6.6845  -6.6726  -6.6719  -6.6708  -1.6573  -1.4659
 -1.3685  -1.2120  -1.1367  -1.0676  -1.0180  -0.9952  -0.9578  -0.9126
 -0.8629  -0.8041  -0.7882  -0.7586  -0.7303  -0.7222  -0.6925  -0.6832
 -0.6726  -0.6601  -0.6115  -0.5952  -0.5914  -0.5854  -0.5618  -0.5604
 -0.5315  -0.5281  -0.5109  -0.4994  -0.4724  -0.4713  -0.4693  -0.4618
 -0.3838  -0.3446  -0.2817

          Ground-State Mulliken Net Atomic Charges

     Atom                 Charge (a.u.)
  ----------------------------------------
      1 C                     0.048584
      2 S                     0.080370
      3 C                    -0.231642
      4 C                    -0.035404
      5 C                    -0.086414
      6 S                    -0.015078
      7 C                    -0.154594
      8 C                     0.387023
      9 F                    -0.208720
     10 C                     0.446703
     11 O                    -0.461995
     12 O                    -0.300742
     13 C                    -0.058495
     14 H                     0.121106
     15 H                     0.094796
     16 H                     0.094603
     17 C                    -0.391793
     18 H                     0.145781
     19 H                     0.167158
     20 H                     0.147000
     21 H                     0.211752
  ----------------------------------------
  Sum of atomic charges =     0.000000

                    Cartesian Multipole Moments
 -----------------------------------------------------------------
    Charge (ESU x 10^10)
                -0.0000
    Dipole Moment (Debye)
         X       1.1337      Y      -0.0523      Z       3.0385
       Tot       3.2436
    Quadrupole Moments (Debye-Ang)
        XX     -96.6073     XY       1.2250     YY     -81.3013
        XZ      -1.3618     YZ     -10.0701     ZZ     -96.8846

 Total job time:  56.10s(wall), 1937.53s(cpu)
        *  Thank you very much for using Q-Chem.  Have a nice day.  *
