 Q-Chem 5.4, Q-Chem, Inc., Pleasanton, CA (2021)
 Q-Chem 5.4.0 for Intel X86 EM64T Linux

User input:
--------------------------------------------------------------
$molecule
0 1
C	-0.357307	-0.928548	0.974266
S	-0.047407	-0.078548	2.481766
C	0.489693	1.399452	1.693166
C	-0.047307	-0.078948	-0.093634
C	0.425993	1.228152	0.287866
S	-0.127907	-0.308748	-1.831234
C	0.465993	1.339152	-2.080234
C	0.705993	2.005552	-0.888334
F	1.158593	3.263252	-0.844834
C	0.620993	1.759552	-3.481834
O	0.365193	1.033352	-4.432234
O	1.075893	3.031152	-3.594934
C	1.250193	3.494552	-4.941934
H	1.620193	4.531652	-4.858834
H	0.290093	3.468052	-5.495934
H	1.982193	2.863252	-5.485034
C	-0.357307	-2.363748	0.974266
H	0.342593	-2.371748	1.796766
H	-1.001207	-3.041648	1.514866
H	0.358793	-2.894848	0.364666
H	0.804493	2.268452	2.280766
$end

$rem
JOBTYPE		SP
EXCHANGE	HF
CORRELATION	pRIMP2
BASIS		cc-pvtz
METHOD		rimp2
AUX_BASIS	rimp2-cc-pvtz
SOLVENT_METHOD	PCM
PURECART	11111
SYMMETRY	false
MEM_TOTAL	110000
SCF_CONVERGENCE = 6
THRESH=10
GUI = 2
$end

$solvent
dielectric 4.90
$end
--------------------------------------------------------------

             Standard Nuclear Orientation (Angstroms)
    I     Atom           X                Y                Z
 ----------------------------------------------------------------
    1      C      -0.3573070000    -0.9285480000     0.9742660000
    2      S      -0.0474070000    -0.0785480000     2.4817660000
    3      C       0.4896930000     1.3994520000     1.6931660000
    4      C      -0.0473070000    -0.0789480000    -0.0936340000
    5      C       0.4259930000     1.2281520000     0.2878660000
    6      S      -0.1279070000    -0.3087480000    -1.8312340000
    7      C       0.4659930000     1.3391520000    -2.0802340000
    8      C       0.7059930000     2.0055520000    -0.8883340000
    9      F       1.1585930000     3.2632520000    -0.8448340000
   10      C       0.6209930000     1.7595520000    -3.4818340000
   11      O       0.3651930000     1.0333520000    -4.4322340000
   12      O       1.0758930000     3.0311520000    -3.5949340000
   13      C       1.2501930000     3.4945520000    -4.9419340000
   14      H       1.6201930000     4.5316520000    -4.8588340000
   15      H       0.2900930000     3.4680520000    -5.4959340000
   16      H       1.9821930000     2.8632520000    -5.4850340000
   17      C      -0.3573070000    -2.3637480000     0.9742660000
   18      H       0.3425930000    -2.3717480000     1.7967660000
   19      H      -1.0012070000    -3.0416480000     1.5148660000
   20      H       0.3587930000    -2.8948480000     0.3646660000
   21      H       0.8044930000     2.2684520000     2.2807660000
 ----------------------------------------------------------------

   11   -1389.2637167500      5.22e-07  Convergence criterion met
 Total energy in the final basis set =    -1389.2637167500
        RIMP2         total energy =     -1391.7692692666 a.u.

                    Orbital Energies (a.u.)
 --------------------------------------------------------------

 Alpha MOs
 -- Occupied --
-92.0045 -91.9916 -26.3405 -20.6134 -20.5594 -11.4073 -11.3786 -11.2999
-11.2943 -11.2941 -11.2880 -11.2856 -11.2785 -11.2259  -9.0039  -8.9918
 -6.6847  -6.6840  -6.6835  -6.6728  -6.6721  -6.6710  -1.6577  -1.4657
 -1.3683  -1.2129  -1.1377  -1.0657  -1.0195  -0.9943  -0.9585  -0.9115
 -0.8636  -0.8064  -0.7884  -0.7581  -0.7314  -0.7226  -0.6918  -0.6831
 -0.6725  -0.6603  -0.6097  -0.6010  -0.5925  -0.5747  -0.5649  -0.5554
 -0.5382  -0.5297  -0.5097  -0.4906  -0.4735  -0.4710  -0.4703  -0.4541
 -0.3881  -0.3458  -0.2863

          Ground-State Mulliken Net Atomic Charges

     Atom                 Charge (a.u.)
  ----------------------------------------
      1 C                     0.042957
      2 S                     0.074167
      3 C                    -0.208954
      4 C                    -0.045532
      5 C                    -0.081072
      6 S                    -0.002308
      7 C                    -0.156557
      8 C                     0.388668
      9 F                    -0.208479
     10 C                     0.445922
     11 O                    -0.462201
     12 O                    -0.300964
     13 C                    -0.058455
     14 H                     0.120964
     15 H                     0.094791
     16 H                     0.094645
     17 C                    -0.380661
     18 H                     0.130062
     19 H                     0.152420
     20 H                     0.147047
     21 H                     0.213542
  ----------------------------------------
  Sum of atomic charges =     0.000000

                    Cartesian Multipole Moments
 -----------------------------------------------------------------
    Charge (ESU x 10^10)
                -0.0000
    Dipole Moment (Debye)
         X       1.2261      Y       0.4273      Z       3.7124
       Tot       3.9330
    Quadrupole Moments (Debye-Ang)
        XX     -95.6885     XY       2.6001     YY     -82.5764
        XZ      -2.8561     YZ     -10.8443     ZZ     -95.6095

 Total job time:  62.62s(wall), 1966.60s(cpu)
        *  Thank you very much for using Q-Chem.  Have a nice day.  *
