 Q-Chem 5.4, Q-Chem, Inc., Pleasanton, CA (2021)
 Q-Chem 5.4.0 for Intel X86 EM64T Linux

User input:
--------------------------------------------------------------
$molecule
0 1
C	-0.271377	-0.955820	0.975737
S	-0.036777	-0.082020	2.483237
C	0.369523	1.437180	1.694637
C	-0.036577	-0.082420	-0.092163
C	0.321023	1.260980	0.289337
S	-0.096877	-0.318420	-1.829763
C	0.351223	1.374980	-2.078763
C	0.532123	2.059780	-0.886863
F	0.873423	3.352180	-0.843363
C	0.468923	1.807280	-3.480363
O	0.277423	1.061580	-4.430763
O	0.811323	3.113680	-3.593463
C	0.944423	3.590580	-4.940463
H	1.222723	4.655880	-4.857363
H	-0.009677	3.480480	-5.494463
H	1.728723	3.025480	-5.483563
C	-0.271377	-2.391020	0.975737
H	0.793423	-2.399020	1.155937
H	-0.417077	-3.068920	1.803737
H	-0.114677	-2.922120	0.048537
H	0.607323	2.330280	2.282237
$end

$rem
JOBTYPE		SP
EXCHANGE	HF
CORRELATION	pRIMP2
BASIS		cc-pvtz
METHOD		rimp2
AUX_BASIS	rimp2-cc-pvtz
SOLVENT_METHOD	PCM
PURECART	11111
SYMMETRY	false
MEM_TOTAL	110000
SCF_CONVERGENCE = 6
THRESH=10
GUI = 2
$end

$solvent
dielectric 4.90
$end
--------------------------------------------------------------

             Standard Nuclear Orientation (Angstroms)
    I     Atom           X                Y                Z
 ----------------------------------------------------------------
    1      C      -0.2713770000    -0.9558200000     0.9757370000
    2      S      -0.0367770000    -0.0820200000     2.4832370000
    3      C       0.3695230000     1.4371800000     1.6946370000
    4      C      -0.0365770000    -0.0824200000    -0.0921630000
    5      C       0.3210230000     1.2609800000     0.2893370000
    6      S      -0.0968770000    -0.3184200000    -1.8297630000
    7      C       0.3512230000     1.3749800000    -2.0787630000
    8      C       0.5321230000     2.0597800000    -0.8868630000
    9      F       0.8734230000     3.3521800000    -0.8433630000
   10      C       0.4689230000     1.8072800000    -3.4803630000
   11      O       0.2774230000     1.0615800000    -4.4307630000
   12      O       0.8113230000     3.1136800000    -3.5934630000
   13      C       0.9444230000     3.5905800000    -4.9404630000
   14      H       1.2227230000     4.6558800000    -4.8573630000
   15      H      -0.0096770000     3.4804800000    -5.4944630000
   16      H       1.7287230000     3.0254800000    -5.4835630000
   17      C      -0.2713770000    -2.3910200000     0.9757370000
   18      H       0.7934230000    -2.3990200000     1.1559370000
   19      H      -0.4170770000    -3.0689200000     1.8037370000
   20      H      -0.1146770000    -2.9221200000     0.0485370000
   21      H       0.6073230000     2.3302800000     2.2822370000
 ----------------------------------------------------------------

   11   -1389.2706618200      5.39e-07  Convergence criterion met
 Total energy in the final basis set =    -1389.2706618200
        RIMP2         total energy =     -1391.7746633115 a.u.

                    Orbital Energies (a.u.)
 --------------------------------------------------------------

 Alpha MOs
 -- Occupied --
-92.0047 -91.9900 -26.3398 -20.6134 -20.5595 -11.4073 -11.3775 -11.3033
-11.2944 -11.2923 -11.2880 -11.2802 -11.2784 -11.2322  -9.0038  -8.9902
 -6.6846  -6.6841  -6.6835  -6.6713  -6.6706  -6.6694  -1.6570  -1.4657
 -1.3683  -1.2117  -1.1371  -1.0671  -1.0181  -0.9952  -0.9578  -0.9125
 -0.8628  -0.8044  -0.7879  -0.7583  -0.7309  -0.7220  -0.6919  -0.6831
 -0.6725  -0.6599  -0.6122  -0.5967  -0.5926  -0.5796  -0.5623  -0.5577
 -0.5315  -0.5258  -0.5192  -0.4999  -0.4722  -0.4713  -0.4701  -0.4592
 -0.3844  -0.3457  -0.2800

          Ground-State Mulliken Net Atomic Charges

     Atom                 Charge (a.u.)
  ----------------------------------------
      1 C                     0.058408
      2 S                     0.075411
      3 C                    -0.230996
      4 C                    -0.056078
      5 C                    -0.081854
      6 S                    -0.014478
      7 C                    -0.155003
      8 C                     0.388385
      9 F                    -0.209016
     10 C                     0.445752
     11 O                    -0.461737
     12 O                    -0.300757
     13 C                    -0.058509
     14 H                     0.121077
     15 H                     0.094797
     16 H                     0.094594
     17 C                    -0.384695
     18 H                     0.150607
     19 H                     0.163924
     20 H                     0.147812
     21 H                     0.212355
  ----------------------------------------
  Sum of atomic charges =     0.000000

                    Cartesian Multipole Moments
 -----------------------------------------------------------------
    Charge (ESU x 10^10)
                -0.0000
    Dipole Moment (Debye)
         X       1.1906      Y      -0.1005      Z       3.3926
       Tot       3.5969
    Quadrupole Moments (Debye-Ang)
        XX     -96.6917     XY       1.1940     YY     -81.1177
        XZ      -1.7235     YZ     -10.9396     ZZ     -96.3007

 Total job time:  59.79s(wall), 1944.92s(cpu)
        *  Thank you very much for using Q-Chem.  Have a nice day.  *
