 Q-Chem 5.4, Q-Chem, Inc., Pleasanton, CA (2021)
 Q-Chem 5.4.0 for Intel X86 EM64T Linux

User input:
--------------------------------------------------------------
$molecule
0 1
C	-0.670986	-0.747937	0.975331
S	-0.089086	-0.055137	2.482831
C	0.921214	1.149963	1.694231
C	-0.089086	-0.055537	-0.092569
C	0.802714	1.010863	0.288931
S	-0.243386	-0.244037	-1.830169
C	0.878314	1.101463	-2.079169
C	1.331714	1.645563	-0.887269
F	2.187214	2.672563	-0.843769
C	1.167714	1.443363	-3.480769
O	0.679014	0.848563	-4.431169
O	2.030114	2.482763	-3.593869
C	2.352314	2.858663	-4.940869
H	3.054714	3.706563	-4.857769
H	1.441114	3.162063	-5.494869
H	2.824314	2.015063	-5.483969
C	-0.670986	-2.183137	0.975331
H	0.346414	-2.191137	1.337731
H	-0.958286	-2.861037	1.765431
H	-0.355586	-2.714237	0.089431
H	1.514214	1.858863	2.281831
$end

$rem
JOBTYPE		SP
EXCHANGE	HF
CORRELATION	pRIMP2
BASIS		cc-pvtz
METHOD		rimp2
AUX_BASIS	rimp2-cc-pvtz
SOLVENT_METHOD	PCM
PURECART	11111
SYMMETRY	false
MEM_TOTAL	110000
SCF_CONVERGENCE = 6
THRESH=10
GUI = 2
$end

$solvent
dielectric 4.90
$end
--------------------------------------------------------------

             Standard Nuclear Orientation (Angstroms)
    I     Atom           X                Y                Z
 ----------------------------------------------------------------
    1      C      -0.6709860000    -0.7479370000     0.9753310000
    2      S      -0.0890860000    -0.0551370000     2.4828310000
    3      C       0.9212140000     1.1499630000     1.6942310000
    4      C      -0.0890860000    -0.0555370000    -0.0925690000
    5      C       0.8027140000     1.0108630000     0.2889310000
    6      S      -0.2433860000    -0.2440370000    -1.8301690000
    7      C       0.8783140000     1.1014630000    -2.0791690000
    8      C       1.3317140000     1.6455630000    -0.8872690000
    9      F       2.1872140000     2.6725630000    -0.8437690000
   10      C       1.1677140000     1.4433630000    -3.4807690000
   11      O       0.6790140000     0.8485630000    -4.4311690000
   12      O       2.0301140000     2.4827630000    -3.5938690000
   13      C       2.3523140000     2.8586630000    -4.9408690000
   14      H       3.0547140000     3.7065630000    -4.8577690000
   15      H       1.4411140000     3.1620630000    -5.4948690000
   16      H       2.8243140000     2.0150630000    -5.4839690000
   17      C      -0.6709860000    -2.1831370000     0.9753310000
   18      H       0.3464140000    -2.1911370000     1.3377310000
   19      H      -0.9582860000    -2.8610370000     1.7654310000
   20      H      -0.3555860000    -2.7142370000     0.0894310000
   21      H       1.5142140000     1.8588630000     2.2818310000
 ----------------------------------------------------------------

   11   -1389.2425050631      5.52e-07  Convergence criterion met
 Total energy in the final basis set =    -1389.2425050631
        RIMP2         total energy =     -1391.7525711147 a.u.

                    Orbital Energies (a.u.)
 --------------------------------------------------------------

 Alpha MOs
 -- Occupied --
-92.0012 -91.9941 -26.3413 -20.6138 -20.5600 -11.4079 -11.3798 -11.3048
-11.2948 -11.2906 -11.2886 -11.2883 -11.2801 -11.2264  -9.0011  -8.9942
 -6.6819  -6.6812  -6.6808  -6.6752  -6.6745  -6.6734  -1.6586  -1.4662
 -1.3688  -1.2165  -1.1408  -1.0679  -1.0201  -0.9924  -0.9591  -0.9089
 -0.8644  -0.8072  -0.7893  -0.7591  -0.7322  -0.7234  -0.6939  -0.6836
 -0.6730  -0.6605  -0.6127  -0.6004  -0.5942  -0.5716  -0.5639  -0.5552
 -0.5333  -0.5282  -0.5160  -0.4998  -0.4739  -0.4719  -0.4711  -0.4514
 -0.3835  -0.3470  -0.2823

          Ground-State Mulliken Net Atomic Charges

     Atom                 Charge (a.u.)
  ----------------------------------------
      1 C                     0.018841
      2 S                     0.074099
      3 C                    -0.198910
      4 C                    -0.045853
      5 C                    -0.081756
      6 S                     0.004838
      7 C                    -0.153390
      8 C                     0.388758
      9 F                    -0.207827
     10 C                     0.446707
     11 O                    -0.462033
     12 O                    -0.301088
     13 C                    -0.058458
     14 H                     0.121098
     15 H                     0.094972
     16 H                     0.094631
     17 C                    -0.378586
     18 H                     0.136183
     19 H                     0.153124
     20 H                     0.141544
     21 H                     0.213105
  ----------------------------------------
  Sum of atomic charges =     0.000000

                    Cartesian Multipole Moments
 -----------------------------------------------------------------
    Charge (ESU x 10^10)
                -0.0000
    Dipole Moment (Debye)
         X       2.2124      Y       0.2099      Z       3.2584
       Tot       3.9441
    Quadrupole Moments (Debye-Ang)
        XX     -93.6602     XY       4.5194     YY     -86.2315
        XZ      -4.8276     YZ      -8.4124     ZZ     -95.8674

 Total job time:  59.03s(wall), 1968.63s(cpu)
        *  Thank you very much for using Q-Chem.  Have a nice day.  *
