 Q-Chem 5.4, Q-Chem, Inc., Pleasanton, CA (2021)
 Q-Chem 5.4.0 for Intel X86 EM64T Linux

User input:
--------------------------------------------------------------
$molecule
0 1
C	-0.667674	-0.747937	0.978043
S	-0.085774	-0.055137	2.485543
C	0.924526	1.149963	1.696943
C	-0.085774	-0.055537	-0.089857
C	0.806026	1.010863	0.291643
S	-0.240074	-0.244037	-1.827457
C	0.881626	1.101463	-2.076457
C	1.335026	1.645563	-0.884557
F	2.190526	2.672563	-0.841057
C	1.171026	1.443363	-3.478057
O	0.682326	0.848563	-4.428457
O	2.033426	2.482763	-3.591157
C	2.355626	2.858663	-4.938157
H	3.058026	3.706563	-4.855057
H	1.444426	3.162063	-5.492157
H	2.827626	2.015063	-5.481257
C	-0.667674	-2.183137	0.978043
H	-1.044074	-2.191137	-0.034257
H	0.122226	-2.861037	0.690243
H	-1.549074	-2.714237	1.305943
H	1.517526	1.858863	2.284543
$end

$rem
JOBTYPE		SP
EXCHANGE	HF
CORRELATION	pRIMP2
BASIS		cc-pvtz
METHOD		rimp2
AUX_BASIS	rimp2-cc-pvtz
SOLVENT_METHOD	PCM
PURECART	11111
SYMMETRY	false
MEM_TOTAL	110000
SCF_CONVERGENCE = 6
THRESH=10
GUI = 2
$end

$solvent
dielectric 4.90
$end
--------------------------------------------------------------

             Standard Nuclear Orientation (Angstroms)
    I     Atom           X                Y                Z
 ----------------------------------------------------------------
    1      C      -0.6676740000    -0.7479370000     0.9780430000
    2      S      -0.0857740000    -0.0551370000     2.4855430000
    3      C       0.9245260000     1.1499630000     1.6969430000
    4      C      -0.0857740000    -0.0555370000    -0.0898570000
    5      C       0.8060260000     1.0108630000     0.2916430000
    6      S      -0.2400740000    -0.2440370000    -1.8274570000
    7      C       0.8816260000     1.1014630000    -2.0764570000
    8      C       1.3350260000     1.6455630000    -0.8845570000
    9      F       2.1905260000     2.6725630000    -0.8410570000
   10      C       1.1710260000     1.4433630000    -3.4780570000
   11      O       0.6823260000     0.8485630000    -4.4284570000
   12      O       2.0334260000     2.4827630000    -3.5911570000
   13      C       2.3556260000     2.8586630000    -4.9381570000
   14      H       3.0580260000     3.7065630000    -4.8550570000
   15      H       1.4444260000     3.1620630000    -5.4921570000
   16      H       2.8276260000     2.0150630000    -5.4812570000
   17      C      -0.6676740000    -2.1831370000     0.9780430000
   18      H      -1.0440740000    -2.1911370000    -0.0342570000
   19      H       0.1222260000    -2.8610370000     0.6902430000
   20      H      -1.5490740000    -2.7142370000     1.3059430000
   21      H       1.5175260000     1.8588630000     2.2845430000
 ----------------------------------------------------------------

   11   -1389.2424510756      4.77e-07  Convergence criterion met
 Total energy in the final basis set =    -1389.2424510756
        RIMP2         total energy =     -1391.7542264843 a.u.

                    Orbital Energies (a.u.)
 --------------------------------------------------------------

 Alpha MOs
 -- Occupied --
-92.0002 -91.9987 -26.3426 -20.6141 -20.5601 -11.4083 -11.3818 -11.3120
-11.2990 -11.2949 -11.2886 -11.2803 -11.2765 -11.2201  -8.9999  -8.9988
 -6.6806  -6.6798  -6.6798  -6.6795  -6.6790  -6.6780  -1.6598  -1.4665
 -1.3691  -1.2175  -1.1377  -1.0686  -1.0202  -0.9926  -0.9592  -0.9119
 -0.8648  -0.8072  -0.7903  -0.7601  -0.7306  -0.7245  -0.6961  -0.6839
 -0.6733  -0.6616  -0.6094  -0.6015  -0.5924  -0.5815  -0.5634  -0.5580
 -0.5314  -0.5294  -0.5089  -0.4892  -0.4749  -0.4724  -0.4682  -0.4396
 -0.3899  -0.3449  -0.2952

          Ground-State Mulliken Net Atomic Charges

     Atom                 Charge (a.u.)
  ----------------------------------------
      1 C                    -0.045810
      2 S                     0.082846
      3 C                    -0.175742
      4 C                     0.005729
      5 C                    -0.096871
      6 S                     0.014808
      7 C                    -0.157813
      8 C                     0.392634
      9 F                    -0.206607
     10 C                     0.447240
     11 O                    -0.463302
     12 O                    -0.301379
     13 C                    -0.058417
     14 H                     0.121172
     15 H                     0.094940
     16 H                     0.094713
     17 C                    -0.353300
     18 H                     0.107266
     19 H                     0.152483
     20 H                     0.131914
     21 H                     0.213496
  ----------------------------------------
  Sum of atomic charges =     0.000000

                    Cartesian Multipole Moments
 -----------------------------------------------------------------
    Charge (ESU x 10^10)
                -0.0000
    Dipole Moment (Debye)
         X       1.6866      Y       0.8140      Z       2.3886
       Tot       3.0352
    Quadrupole Moments (Debye-Ang)
        XX     -92.0320     XY       6.0658     YY     -86.8880
        XZ      -4.7338     YZ      -5.7733     ZZ     -97.5563

 Total job time:  65.12s(wall), 2049.30s(cpu)
        *  Thank you very much for using Q-Chem.  Have a nice day.  *
