 Q-Chem 5.4, Q-Chem, Inc., Pleasanton, CA (2021)
 Q-Chem 5.4.0 for Intel X86 EM64T Linux

User input:
--------------------------------------------------------------
$molecule
0 1
C	-0.519884	-0.851940	0.973560
S	-0.067084	-0.068640	2.481060
C	0.718516	1.293660	1.692460
C	-0.066984	-0.069040	-0.094340
C	0.626016	1.136060	0.287160
S	-0.186284	-0.281440	-1.831940
C	0.684716	1.238360	-2.080940
C	1.036716	1.852960	-0.889040
F	1.700916	3.012960	-0.845540
C	0.910416	1.625360	-3.482540
O	0.532316	0.954660	-4.432940
O	1.579116	2.798760	-3.595640
C	1.831216	3.224860	-4.942640
H	2.375716	4.181860	-4.859540
H	0.881116	3.365460	-5.496640
H	2.442516	2.476060	-5.485740
C	-0.519884	-2.287140	0.973560
H	-0.700084	-2.295140	2.038360
H	-1.347884	-2.965040	0.827860
H	0.407316	-2.818240	1.130260
H	1.179416	2.094760	2.280060
$end

$rem
JOBTYPE		SP
EXCHANGE	HF
CORRELATION	pRIMP2
BASIS		cc-pvtz
METHOD		rimp2
AUX_BASIS	rimp2-cc-pvtz
SOLVENT_METHOD	PCM
PURECART	11111
SYMMETRY	false
MEM_TOTAL	110000
SCF_CONVERGENCE = 6
THRESH=10
GUI = 2
$end

$solvent
dielectric 4.90
$end
--------------------------------------------------------------

             Standard Nuclear Orientation (Angstroms)
    I     Atom           X                Y                Z
 ----------------------------------------------------------------
    1      C      -0.5198840000    -0.8519400000     0.9735600000
    2      S      -0.0670840000    -0.0686400000     2.4810600000
    3      C       0.7185160000     1.2936600000     1.6924600000
    4      C      -0.0669840000    -0.0690400000    -0.0943400000
    5      C       0.6260160000     1.1360600000     0.2871600000
    6      S      -0.1862840000    -0.2814400000    -1.8319400000
    7      C       0.6847160000     1.2383600000    -2.0809400000
    8      C       1.0367160000     1.8529600000    -0.8890400000
    9      F       1.7009160000     3.0129600000    -0.8455400000
   10      C       0.9104160000     1.6253600000    -3.4825400000
   11      O       0.5323160000     0.9546600000    -4.4329400000
   12      O       1.5791160000     2.7987600000    -3.5956400000
   13      C       1.8312160000     3.2248600000    -4.9426400000
   14      H       2.3757160000     4.1818600000    -4.8595400000
   15      H       0.8811160000     3.3654600000    -5.4966400000
   16      H       2.4425160000     2.4760600000    -5.4857400000
   17      C      -0.5198840000    -2.2871400000     0.9735600000
   18      H      -0.7000840000    -2.2951400000     2.0383600000
   19      H      -1.3478840000    -2.9650400000     0.8278600000
   20      H       0.4073160000    -2.8182400000     1.1302600000
   21      H       1.1794160000     2.0947600000     2.2800600000
 ----------------------------------------------------------------

   11   -1389.2534046271      4.65e-07  Convergence criterion met
 Total energy in the final basis set =    -1389.2534046271
        RIMP2         total energy =     -1391.7620902559 a.u.

                    Orbital Energies (a.u.)
 --------------------------------------------------------------

 Alpha MOs
 -- Occupied --
-92.0075 -91.9945 -26.3411 -20.6135 -20.5595 -11.4075 -11.3794 -11.3062
-11.2941 -11.2897 -11.2881 -11.2832 -11.2791 -11.2223  -9.0065  -8.9946
 -6.6872  -6.6866  -6.6861  -6.6756  -6.6749  -6.6738  -1.6583  -1.4658
 -1.3685  -1.2143  -1.1384  -1.0649  -1.0207  -0.9935  -0.9592  -0.9107
 -0.8646  -0.8079  -0.7890  -0.7583  -0.7316  -0.7231  -0.6920  -0.6832
 -0.6727  -0.6606  -0.6073  -0.6027  -0.5917  -0.5775  -0.5650  -0.5587
 -0.5337  -0.5300  -0.5082  -0.4791  -0.4736  -0.4715  -0.4658  -0.4575
 -0.3907  -0.3444  -0.2935

          Ground-State Mulliken Net Atomic Charges

     Atom                 Charge (a.u.)
  ----------------------------------------
      1 C                    -0.012573
      2 S                     0.081260
      3 C                    -0.197424
      4 C                    -0.008172
      5 C                    -0.084645
      6 S                     0.006853
      7 C                    -0.157777
      8 C                     0.391594
      9 F                    -0.208182
     10 C                     0.445752
     11 O                    -0.462716
     12 O                    -0.301175
     13 C                    -0.058476
     14 H                     0.121029
     15 H                     0.094794
     16 H                     0.094695
     17 C                    -0.354794
     18 H                     0.107323
     19 H                     0.149552
     20 H                     0.138208
     21 H                     0.214874
  ----------------------------------------
  Sum of atomic charges =     0.000000

                    Cartesian Multipole Moments
 -----------------------------------------------------------------
    Charge (ESU x 10^10)
                -0.0000
    Dipole Moment (Debye)
         X       1.2300      Y       0.7855      Z       3.7013
       Tot       3.9786
    Quadrupole Moments (Debye-Ang)
        XX     -93.7273     XY       5.2588     YY     -84.7945
        XZ      -4.0963     YZ      -9.5774     ZZ     -95.2903

 Total job time:  68.67s(wall), 2641.51s(cpu)
        *  Thank you very much for using Q-Chem.  Have a nice day.  *
