 Q-Chem 5.4, Q-Chem, Inc., Pleasanton, CA (2021)
 Q-Chem 5.4.0 for Intel X86 EM64T Linux

User input:
--------------------------------------------------------------
$molecule
0 1
C	-0.441470	-0.893839	0.974584
S	-0.058670	-0.074039	2.482084
C	0.605230	1.351461	1.693484
C	-0.058570	-0.074439	-0.093316
C	0.526830	1.186461	0.288184
S	-0.158870	-0.296439	-1.830916
C	0.576330	1.293461	-2.079916
C	0.873530	1.936461	-0.888016
F	1.434030	3.149961	-0.844516
C	0.767430	1.698761	-3.481516
O	0.449330	0.997661	-4.431916
O	1.331430	2.925861	-3.594616
C	1.545430	3.372361	-4.941616
H	2.004330	4.373161	-4.858516
H	0.586630	3.429561	-5.495616
H	2.219630	2.679661	-5.484716
C	-0.441470	-2.329039	0.974584
H	0.390630	-2.337039	1.663084
H	-0.981670	-3.006939	1.618784
H	0.157830	-2.860139	0.249984
H	0.994530	2.189761	2.281084
$end

$rem
JOBTYPE		SP
EXCHANGE	HF
CORRELATION	pRIMP2
BASIS		cc-pvtz
METHOD		rimp2
AUX_BASIS	rimp2-cc-pvtz
SOLVENT_METHOD	PCM
PURECART	11111
SYMMETRY	false
MEM_TOTAL	110000
SCF_CONVERGENCE = 6
THRESH=10
GUI = 2
$end

$solvent
dielectric 4.90
$end
--------------------------------------------------------------

             Standard Nuclear Orientation (Angstroms)
    I     Atom           X                Y                Z
 ----------------------------------------------------------------
    1      C      -0.4414700000    -0.8938390000     0.9745840000
    2      S      -0.0586700000    -0.0740390000     2.4820840000
    3      C       0.6052300000     1.3514610000     1.6934840000
    4      C      -0.0585700000    -0.0744390000    -0.0933160000
    5      C       0.5268300000     1.1864610000     0.2881840000
    6      S      -0.1588700000    -0.2964390000    -1.8309160000
    7      C       0.5763300000     1.2934610000    -2.0799160000
    8      C       0.8735300000     1.9364610000    -0.8880160000
    9      F       1.4340300000     3.1499610000    -0.8445160000
   10      C       0.7674300000     1.6987610000    -3.4815160000
   11      O       0.4493300000     0.9976610000    -4.4319160000
   12      O       1.3314300000     2.9258610000    -3.5946160000
   13      C       1.5454300000     3.3723610000    -4.9416160000
   14      H       2.0043300000     4.3731610000    -4.8585160000
   15      H       0.5866300000     3.4295610000    -5.4956160000
   16      H       2.2196300000     2.6796610000    -5.4847160000
   17      C      -0.4414700000    -2.3290390000     0.9745840000
   18      H       0.3906300000    -2.3370390000     1.6630840000
   19      H      -0.9816700000    -3.0069390000     1.6187840000
   20      H       0.1578300000    -2.8601390000     0.2499840000
   21      H       0.9945300000     2.1897610000     2.2810840000
 ----------------------------------------------------------------

   11   -1389.2601879081      5.40e-07  Convergence criterion met
 Total energy in the final basis set =    -1389.2601879081
        RIMP2         total energy =     -1391.7662651936 a.u.

                    Orbital Energies (a.u.)
 --------------------------------------------------------------

 Alpha MOs
 -- Occupied --
-92.0032 -91.9916 -26.3406 -20.6134 -20.5595 -11.4073 -11.3787 -11.3001
-11.2948 -11.2942 -11.2880 -11.2858 -11.2786 -11.2265  -9.0027  -8.9918
 -6.6835  -6.6829  -6.6824  -6.6729  -6.6722  -6.6710  -1.6578  -1.4658
 -1.3684  -1.2134  -1.1382  -1.0662  -1.0194  -0.9939  -0.9585  -0.9110
 -0.8636  -0.8063  -0.7884  -0.7582  -0.7315  -0.7227  -0.6922  -0.6832
 -0.6726  -0.6602  -0.6107  -0.6004  -0.5929  -0.5739  -0.5644  -0.5549
 -0.5370  -0.5296  -0.5117  -0.4945  -0.4734  -0.4711  -0.4706  -0.4534
 -0.3866  -0.3462  -0.2843

          Ground-State Mulliken Net Atomic Charges

     Atom                 Charge (a.u.)
  ----------------------------------------
      1 C                     0.045362
      2 S                     0.073005
      3 C                    -0.208858
      4 C                    -0.058101
      5 C                    -0.078352
      6 S                    -0.002106
      7 C                    -0.155817
      8 C                     0.388772
      9 F                    -0.208388
     10 C                     0.445937
     11 O                    -0.462138
     12 O                    -0.301016
     13 C                    -0.058522
     14 H                     0.121057
     15 H                     0.094826
     16 H                     0.094627
     17 C                    -0.381565
     18 H                     0.136863
     19 H                     0.153868
     20 H                     0.147477
     21 H                     0.213069
  ----------------------------------------
  Sum of atomic charges =     0.000000

                    Cartesian Multipole Moments
 -----------------------------------------------------------------
    Charge (ESU x 10^10)
                -0.0000
    Dipole Moment (Debye)
         X       1.4926      Y       0.3152      Z       3.6159
       Tot       3.9246
    Quadrupole Moments (Debye-Ang)
        XX     -95.3543     XY       3.1568     YY     -83.2332
        XZ      -3.4425     YZ     -10.4130     ZZ     -95.7307

 Total job time:  71.85s(wall), 1976.56s(cpu)
        *  Thank you very much for using Q-Chem.  Have a nice day.  *
