 Q-Chem 5.4, Q-Chem, Inc., Pleasanton, CA (2021)
 Q-Chem 5.4.0 for Intel X86 EM64T Linux

User input:
--------------------------------------------------------------
$molecule
0 1
C	-0.794663	-0.619704	0.976092
S	-0.101263	-0.038504	2.483592
C	1.102837	0.972896	1.694992
C	-0.101363	-0.038904	-0.091808
C	0.962137	0.856396	0.289692
S	-0.286063	-0.197704	-1.829408
C	1.052237	0.932496	-2.078408
C	1.593237	1.389696	-0.886508
F	2.614037	2.252596	-0.843008
C	1.396637	1.219096	-3.480008
O	0.812037	0.718096	-4.430408
O	2.426437	2.092896	-3.593108
C	2.809037	2.407096	-4.940108
H	3.647937	3.120196	-4.857008
H	1.964337	2.864196	-5.494108
H	3.127337	1.494396	-5.483208
C	-0.794663	-2.054904	0.976092
H	-1.859463	-2.062904	0.795892
H	-0.648963	-2.732804	0.148092
H	-0.951363	-2.586004	1.903292
H	1.810037	1.568096	2.282592
$end

$rem
JOBTYPE		SP
EXCHANGE	HF
CORRELATION	pRIMP2
BASIS		cc-pvtz
METHOD		rimp2
AUX_BASIS	rimp2-cc-pvtz
SOLVENT_METHOD	PCM
PURECART	11111
SYMMETRY	false
MEM_TOTAL	110000
SCF_CONVERGENCE = 6
THRESH=10
GUI = 2
$end

$solvent
dielectric 4.90
$end
--------------------------------------------------------------

             Standard Nuclear Orientation (Angstroms)
    I     Atom           X                Y                Z
 ----------------------------------------------------------------
    1      C      -0.7946630000    -0.6197040000     0.9760920000
    2      S      -0.1012630000    -0.0385040000     2.4835920000
    3      C       1.1028370000     0.9728960000     1.6949920000
    4      C      -0.1013630000    -0.0389040000    -0.0918080000
    5      C       0.9621370000     0.8563960000     0.2896920000
    6      S      -0.2860630000    -0.1977040000    -1.8294080000
    7      C       1.0522370000     0.9324960000    -2.0784080000
    8      C       1.5932370000     1.3896960000    -0.8865080000
    9      F       2.6140370000     2.2525960000    -0.8430080000
   10      C       1.3966370000     1.2190960000    -3.4800080000
   11      O       0.8120370000     0.7180960000    -4.4304080000
   12      O       2.4264370000     2.0928960000    -3.5931080000
   13      C       2.8090370000     2.4070960000    -4.9401080000
   14      H       3.6479370000     3.1201960000    -4.8570080000
   15      H       1.9643370000     2.8641960000    -5.4941080000
   16      H       3.1273370000     1.4943960000    -5.4832080000
   17      C      -0.7946630000    -2.0549040000     0.9760920000
   18      H      -1.8594630000    -2.0629040000     0.7958920000
   19      H      -0.6489630000    -2.7328040000     0.1480920000
   20      H      -0.9513630000    -2.5860040000     1.9032920000
   21      H       1.8100370000     1.5680960000     2.2825920000
 ----------------------------------------------------------------

   11   -1389.2133792663      5.01e-07  Convergence criterion met
 Total energy in the final basis set =    -1389.2133792663
        RIMP2         total energy =     -1391.7293373849 a.u.

                    Orbital Energies (a.u.)
 --------------------------------------------------------------

 Alpha MOs
 -- Occupied --
-92.0010 -91.9992 -26.3423 -20.6138 -20.5597 -11.4080 -11.3814 -11.3130
-11.2979 -11.2942 -11.2884 -11.2799 -11.2703 -11.2152  -9.0007  -8.9991
 -6.6814  -6.6805  -6.6802  -6.6800  -6.6793  -6.6783  -1.6595  -1.4662
 -1.3689  -1.2174  -1.1391  -1.0665  -1.0205  -0.9918  -0.9593  -0.9099
 -0.8649  -0.8080  -0.7900  -0.7596  -0.7309  -0.7242  -0.6949  -0.6837
 -0.6731  -0.6605  -0.6127  -0.5954  -0.5914  -0.5720  -0.5633  -0.5590
 -0.5325  -0.5267  -0.5028  -0.5018  -0.4757  -0.4721  -0.4711  -0.4464
 -0.3752  -0.3439  -0.2843

          Ground-State Mulliken Net Atomic Charges

     Atom                 Charge (a.u.)
  ----------------------------------------
      1 C                    -0.074876
      2 S                     0.090280
      3 C                    -0.170978
      4 C                     0.029179
      5 C                    -0.100131
      6 S                     0.023075
      7 C                    -0.158789
      8 C                     0.392709
      9 F                    -0.206948
     10 C                     0.448003
     11 O                    -0.463867
     12 O                    -0.301332
     13 C                    -0.058379
     14 H                     0.121113
     15 H                     0.094832
     16 H                     0.094723
     17 C                    -0.399420
     18 H                     0.135114
     19 H                     0.154344
     20 H                     0.138217
     21 H                     0.213131
  ----------------------------------------
  Sum of atomic charges =     0.000000

                    Cartesian Multipole Moments
 -----------------------------------------------------------------
    Charge (ESU x 10^10)
                -0.0000
    Dipole Moment (Debye)
         X       1.7218      Y       0.4953      Z       2.8430
       Tot       3.3604
    Quadrupole Moments (Debye-Ang)
        XX     -90.4821     XY       7.0349     YY     -89.1988
        XZ      -6.0559     YZ      -5.8615     ZZ     -95.8755

 Total job time:  60.97s(wall), 2017.83s(cpu)
        *  Thank you very much for using Q-Chem.  Have a nice day.  *
