 Q-Chem 5.4, Q-Chem, Inc., Pleasanton, CA (2021)
 Q-Chem 5.4.0 for Intel X86 EM64T Linux

User input:
--------------------------------------------------------------
$molecule
0 1
C	-0.088436	-0.987267	0.974537
S	-0.009136	-0.085967	2.482037
C	0.127164	1.480633	1.693437
C	-0.008836	-0.086367	-0.093363
C	0.109964	1.298733	0.288137
S	-0.027236	-0.329267	-1.830963
C	0.119864	1.416233	-2.079963
C	0.179164	2.122133	-0.888063
F	0.290864	3.454033	-0.844563
C	0.160864	1.862433	-3.481563
O	0.101664	1.094833	-4.431963
O	0.271064	3.208433	-3.594663
C	0.319464	3.701233	-4.941663
H	0.408464	4.798633	-4.858563
H	-0.601036	3.427033	-5.495663
H	1.189964	3.280833	-5.484763
C	-0.088436	-2.422467	0.974537
H	-1.019936	-2.430467	1.520937
H	-0.509036	-3.100367	0.246637
H	0.387464	-2.953567	1.785537
H	0.206364	2.401533	2.281037
$end

$rem
JOBTYPE		SP
EXCHANGE	HF
CORRELATION	pRIMP2
BASIS		cc-pvtz
METHOD		rimp2
AUX_BASIS	rimp2-cc-pvtz
SOLVENT_METHOD	PCM
PURECART	11111
SYMMETRY	false
MEM_TOTAL	110000
SCF_CONVERGENCE = 6
THRESH=10
GUI = 2
$end

$solvent
dielectric 4.90
$end
--------------------------------------------------------------

             Standard Nuclear Orientation (Angstroms)
    I     Atom           X                Y                Z
 ----------------------------------------------------------------
    1      C      -0.0884360000    -0.9872670000     0.9745370000
    2      S      -0.0091360000    -0.0859670000     2.4820370000
    3      C       0.1271640000     1.4806330000     1.6934370000
    4      C      -0.0088360000    -0.0863670000    -0.0933630000
    5      C       0.1099640000     1.2987330000     0.2881370000
    6      S      -0.0272360000    -0.3292670000    -1.8309630000
    7      C       0.1198640000     1.4162330000    -2.0799630000
    8      C       0.1791640000     2.1221330000    -0.8880630000
    9      F       0.2908640000     3.4540330000    -0.8445630000
   10      C       0.1608640000     1.8624330000    -3.4815630000
   11      O       0.1016640000     1.0948330000    -4.4319630000
   12      O       0.2710640000     3.2084330000    -3.5946630000
   13      C       0.3194640000     3.7012330000    -4.9416630000
   14      H       0.4084640000     4.7986330000    -4.8585630000
   15      H      -0.6010360000     3.4270330000    -5.4956630000
   16      H       1.1899640000     3.2808330000    -5.4847630000
   17      C      -0.0884360000    -2.4224670000     0.9745370000
   18      H      -1.0199360000    -2.4304670000     1.5209370000
   19      H      -0.5090360000    -3.1003670000     0.2466370000
   20      H       0.3874640000    -2.9535670000     1.7855370000
   21      H       0.2063640000     2.4015330000     2.2810370000
 ----------------------------------------------------------------

   11   -1389.2712010951      5.21e-07  Convergence criterion met
 Total energy in the final basis set =    -1389.2712010951
        RIMP2         total energy =     -1391.7748510346 a.u.

                    Orbital Energies (a.u.)
 --------------------------------------------------------------

 Alpha MOs
 -- Occupied --
-92.0065 -91.9897 -26.3396 -20.6132 -20.5594 -11.4071 -11.3773 -11.3002
-11.2942 -11.2941 -11.2879 -11.2804 -11.2779 -11.2293  -9.0054  -8.9899
 -6.6863  -6.6857  -6.6852  -6.6710  -6.6703  -6.6691  -1.6569  -1.4656
 -1.3682  -1.2110  -1.1364  -1.0657  -1.0184  -0.9956  -0.9578  -0.9130
 -0.8628  -0.8048  -0.7876  -0.7579  -0.7307  -0.7218  -0.6915  -0.6829
 -0.6724  -0.6600  -0.6121  -0.5956  -0.5905  -0.5797  -0.5634  -0.5564
 -0.5341  -0.5290  -0.5131  -0.4952  -0.4723  -0.4710  -0.4704  -0.4596
 -0.3854  -0.3455  -0.2822

          Ground-State Mulliken Net Atomic Charges

     Atom                 Charge (a.u.)
  ----------------------------------------
      1 C                     0.032599
      2 S                     0.071867
      3 C                    -0.217429
      4 C                    -0.007764
      5 C                    -0.100324
      6 S                    -0.014058
      7 C                    -0.157533
      8 C                     0.390795
      9 F                    -0.209360
     10 C                     0.445453
     11 O                    -0.462027
     12 O                    -0.300642
     13 C                    -0.058740
     14 H                     0.121056
     15 H                     0.094705
     16 H                     0.094678
     17 C                    -0.385954
     18 H                     0.136320
     19 H                     0.168340
     20 H                     0.144161
     21 H                     0.213857
  ----------------------------------------
  Sum of atomic charges =     0.000000

                    Cartesian Multipole Moments
 -----------------------------------------------------------------
    Charge (ESU x 10^10)
                -0.0000
    Dipole Moment (Debye)
         X      -0.4640      Y       0.1321      Z       3.6554
       Tot       3.6871
    Quadrupole Moments (Debye-Ang)
        XX     -96.6329     XY       2.7230     YY     -80.6219
        XZ      -1.0397     YZ     -11.3324     ZZ     -95.8554

 Total job time:  53.20s(wall), 1934.98s(cpu)
        *  Thank you very much for using Q-Chem.  Have a nice day.  *
