 Q-Chem 5.4, Q-Chem, Inc., Pleasanton, CA (2021)
 Q-Chem 5.4.0 for Intel X86 EM64T Linux

User input:
--------------------------------------------------------------
$molecule
0 1
C	-0.354645	-0.928548	0.973763
S	-0.044745	-0.078548	2.481263
C	0.492355	1.399452	1.692663
C	-0.044645	-0.078948	-0.094137
C	0.428655	1.228152	0.287363
S	-0.125245	-0.308748	-1.831737
C	0.468655	1.339152	-2.080737
C	0.708655	2.005552	-0.888837
F	1.161255	3.263252	-0.845337
C	0.623655	1.759552	-3.482337
O	0.367855	1.033352	-4.432737
O	1.078555	3.031152	-3.595437
C	1.252855	3.494552	-4.942437
H	1.622855	4.531652	-4.859337
H	0.292755	3.468052	-5.496437
H	1.984855	2.863252	-5.485537
C	-0.354645	-2.363748	0.973763
H	-0.888145	-2.371748	1.912763
H	-1.082845	-3.041648	0.553663
H	0.463055	-2.894848	1.438163
H	0.807155	2.268452	2.280263
$end

$rem
JOBTYPE		SP
EXCHANGE	HF
CORRELATION	pRIMP2
BASIS		cc-pvtz
METHOD		rimp2
AUX_BASIS	rimp2-cc-pvtz
SOLVENT_METHOD	PCM
PURECART	11111
SYMMETRY	false
MEM_TOTAL	110000
SCF_CONVERGENCE = 6
THRESH=10
GUI = 2
$end

$solvent
dielectric 4.90
$end
--------------------------------------------------------------

             Standard Nuclear Orientation (Angstroms)
    I     Atom           X                Y                Z
 ----------------------------------------------------------------
    1      C      -0.3546450000    -0.9285480000     0.9737630000
    2      S      -0.0447450000    -0.0785480000     2.4812630000
    3      C       0.4923550000     1.3994520000     1.6926630000
    4      C      -0.0446450000    -0.0789480000    -0.0941370000
    5      C       0.4286550000     1.2281520000     0.2873630000
    6      S      -0.1252450000    -0.3087480000    -1.8317370000
    7      C       0.4686550000     1.3391520000    -2.0807370000
    8      C       0.7086550000     2.0055520000    -0.8888370000
    9      F       1.1612550000     3.2632520000    -0.8453370000
   10      C       0.6236550000     1.7595520000    -3.4823370000
   11      O       0.3678550000     1.0333520000    -4.4327370000
   12      O       1.0785550000     3.0311520000    -3.5954370000
   13      C       1.2528550000     3.4945520000    -4.9424370000
   14      H       1.6228550000     4.5316520000    -4.8593370000
   15      H       0.2927550000     3.4680520000    -5.4964370000
   16      H       1.9848550000     2.8632520000    -5.4855370000
   17      C      -0.3546450000    -2.3637480000     0.9737630000
   18      H      -0.8881450000    -2.3717480000     1.9127630000
   19      H      -1.0828450000    -3.0416480000     0.5536630000
   20      H       0.4630550000    -2.8948480000     1.4381630000
   21      H       0.8071550000     2.2684520000     2.2802630000
 ----------------------------------------------------------------

   11   -1389.2631390283      4.73e-07  Convergence criterion met
 Total energy in the final basis set =    -1389.2631390283
        RIMP2         total energy =     -1391.7695646296 a.u.

                    Orbital Energies (a.u.)
 --------------------------------------------------------------

 Alpha MOs
 -- Occupied --
-92.0079 -91.9924 -26.3404 -20.6134 -20.5594 -11.4073 -11.3785 -11.3015
-11.2941 -11.2902 -11.2880 -11.2855 -11.2787 -11.2247  -9.0067  -8.9926
 -6.6875  -6.6869  -6.6864  -6.6736  -6.6729  -6.6718  -1.6577  -1.4657
 -1.3683  -1.2126  -1.1372  -1.0647  -1.0198  -0.9947  -0.9586  -0.9122
 -0.8638  -0.8066  -0.7884  -0.7580  -0.7311  -0.7226  -0.6915  -0.6831
 -0.6725  -0.6604  -0.6095  -0.5993  -0.5911  -0.5790  -0.5649  -0.5576
 -0.5351  -0.5297  -0.5084  -0.4827  -0.4727  -0.4712  -0.4672  -0.4616
 -0.3887  -0.3451  -0.2895

          Ground-State Mulliken Net Atomic Charges

     Atom                 Charge (a.u.)
  ----------------------------------------
      1 C                    -0.007140
      2 S                     0.078394
      3 C                    -0.202971
      4 C                     0.006587
      5 C                    -0.096646
      6 S                    -0.001900
      7 C                    -0.159493
      8 C                     0.393335
      9 F                    -0.208847
     10 C                     0.445470
     11 O                    -0.462357
     12 O                    -0.300916
     13 C                    -0.058484
     14 H                     0.120963
     15 H                     0.094751
     16 H                     0.094723
     17 C                    -0.366419
     18 H                     0.115727
     19 H                     0.162064
     20 H                     0.138966
     21 H                     0.214194
  ----------------------------------------
  Sum of atomic charges =     0.000000

                    Cartesian Multipole Moments
 -----------------------------------------------------------------
    Charge (ESU x 10^10)
                -0.0000
    Dipole Moment (Debye)
         X       0.4860      Y       0.6183      Z       3.7251
       Tot       3.8072
    Quadrupole Moments (Debye-Ang)
        XX     -95.0195     XY       4.6433     YY     -82.7522
        XZ      -2.9312     YZ     -10.5233     ZZ     -95.4668

 Total job time:  315.39s(wall), 16666.72s(cpu)
        *  Thank you very much for using Q-Chem.  Have a nice day.  *
