 Q-Chem 5.4, Q-Chem, Inc., Pleasanton, CA (2021)
 Q-Chem 5.4.0 for Intel X86 EM64T Linux

User input:
--------------------------------------------------------------
$molecule
0 1
C	-0.267373	-0.955820	0.974225
S	-0.032773	-0.082020	2.481725
C	0.373527	1.437180	1.693125
C	-0.032573	-0.082420	-0.093675
C	0.325027	1.260980	0.287825
S	-0.092873	-0.318420	-1.831275
C	0.355227	1.374980	-2.080275
C	0.536127	2.059780	-0.888375
F	0.877427	3.352180	-0.844875
C	0.472927	1.807280	-3.481875
O	0.281427	1.061580	-4.432275
O	0.815327	3.113680	-3.594975
C	0.948427	3.590580	-4.941975
H	1.226727	4.655880	-4.858875
H	-0.005673	3.480480	-5.495975
H	1.732727	3.025480	-5.485075
C	-0.267373	-2.391020	0.974225
H	-1.089873	-2.399020	1.674125
H	-0.807973	-3.068920	0.330325
H	0.342227	-2.922120	1.690325
H	0.611327	2.330280	2.280725
$end

$rem
JOBTYPE		SP
EXCHANGE	HF
CORRELATION	pRIMP2
BASIS		cc-pvtz
METHOD		rimp2
AUX_BASIS	rimp2-cc-pvtz
SOLVENT_METHOD	PCM
PURECART	11111
SYMMETRY	false
MEM_TOTAL	110000
SCF_CONVERGENCE = 6
THRESH=10
GUI = 2
$end

$solvent
dielectric 4.90
$end
--------------------------------------------------------------

             Standard Nuclear Orientation (Angstroms)
    I     Atom           X                Y                Z
 ----------------------------------------------------------------
    1      C      -0.2673730000    -0.9558200000     0.9742250000
    2      S      -0.0327730000    -0.0820200000     2.4817250000
    3      C       0.3735270000     1.4371800000     1.6931250000
    4      C      -0.0325730000    -0.0824200000    -0.0936750000
    5      C       0.3250270000     1.2609800000     0.2878250000
    6      S      -0.0928730000    -0.3184200000    -1.8312750000
    7      C       0.3552270000     1.3749800000    -2.0802750000
    8      C       0.5361270000     2.0597800000    -0.8883750000
    9      F       0.8774270000     3.3521800000    -0.8448750000
   10      C       0.4729270000     1.8072800000    -3.4818750000
   11      O       0.2814270000     1.0615800000    -4.4322750000
   12      O       0.8153270000     3.1136800000    -3.5949750000
   13      C       0.9484270000     3.5905800000    -4.9419750000
   14      H       1.2267270000     4.6558800000    -4.8588750000
   15      H      -0.0056730000     3.4804800000    -5.4959750000
   16      H       1.7327270000     3.0254800000    -5.4850750000
   17      C      -0.2673730000    -2.3910200000     0.9742250000
   18      H      -1.0898730000    -2.3990200000     1.6741250000
   19      H      -0.8079730000    -3.0689200000     0.3303250000
   20      H       0.3422270000    -2.9221200000     1.6903250000
   21      H       0.6113270000     2.3302800000     2.2807250000
 ----------------------------------------------------------------

   11   -1389.2662478365      4.95e-07  Convergence criterion met
 Total energy in the final basis set =    -1389.2662478365
        RIMP2         total energy =     -1391.7714056661 a.u.

                    Orbital Energies (a.u.)
 --------------------------------------------------------------

 Alpha MOs
 -- Occupied --
-92.0070 -91.9908 -26.3399 -20.6133 -20.5594 -11.4072 -11.3778 -11.2976
-11.2956 -11.2941 -11.2879 -11.2826 -11.2782 -11.2268  -9.0059  -8.9910
 -6.6867  -6.6862  -6.6856  -6.6721  -6.6714  -6.6702  -1.6572  -1.4656
 -1.3682  -1.2117  -1.1366  -1.0651  -1.0189  -0.9952  -0.9581  -0.9128
 -0.8632  -0.8055  -0.7879  -0.7579  -0.7307  -0.7221  -0.6915  -0.6830
 -0.6724  -0.6600  -0.6113  -0.5965  -0.5902  -0.5803  -0.5639  -0.5571
 -0.5338  -0.5292  -0.5103  -0.4909  -0.4723  -0.4708  -0.4705  -0.4599
 -0.3860  -0.3453  -0.2847

          Ground-State Mulliken Net Atomic Charges

     Atom                 Charge (a.u.)
  ----------------------------------------
      1 C                     0.000931
      2 S                     0.073104
      3 C                    -0.207544
      4 C                     0.010493
      5 C                    -0.101592
      6 S                    -0.008965
      7 C                    -0.157819
      8 C                     0.390653
      9 F                    -0.209228
     10 C                     0.445747
     11 O                    -0.462128
     12 O                    -0.300765
     13 C                    -0.058547
     14 H                     0.120997
     15 H                     0.094698
     16 H                     0.094678
     17 C                    -0.378200
     18 H                     0.129225
     19 H                     0.166728
     20 H                     0.143462
     21 H                     0.214073
  ----------------------------------------
  Sum of atomic charges =     0.000000

                    Cartesian Multipole Moments
 -----------------------------------------------------------------
    Charge (ESU x 10^10)
                -0.0000
    Dipole Moment (Debye)
         X       0.0164      Y       0.3436      Z       3.6798
       Tot       3.6959
    Quadrupole Moments (Debye-Ang)
        XX     -95.7215     XY       4.3747     YY     -81.7195
        XZ      -2.4160     YZ     -10.8862     ZZ     -95.6679

 Total job time:  57.49s(wall), 1949.63s(cpu)
        *  Thank you very much for using Q-Chem.  Have a nice day.  *
