 Q-Chem 5.4, Q-Chem, Inc., Pleasanton, CA (2021)
 Q-Chem 5.4.0 for Intel X86 EM64T Linux

User input:
--------------------------------------------------------------
$molecule
0 1
C	-0.092044	-0.987267	0.974266
S	-0.012744	-0.085967	2.481766
C	0.123556	1.480633	1.693166
C	-0.012444	-0.086367	-0.093634
C	0.106356	1.298733	0.287866
S	-0.030844	-0.329267	-1.831234
C	0.116256	1.416233	-2.080234
C	0.175556	2.122133	-0.888334
F	0.287256	3.454033	-0.844834
C	0.157256	1.862433	-3.481834
O	0.098056	1.094833	-4.432234
O	0.267456	3.208433	-3.594934
C	0.315856	3.701233	-4.941934
H	0.404856	4.798633	-4.858834
H	-0.604644	3.427033	-5.495934
H	1.186356	3.280833	-5.485034
C	-0.092044	-2.422467	0.974266
H	0.607856	-2.430467	1.796766
H	-0.735944	-3.100367	1.514866
H	0.624056	-2.953567	0.364666
H	0.202756	2.401533	2.280766
$end

$rem
JOBTYPE		SP
EXCHANGE	HF
CORRELATION	pRIMP2
BASIS		cc-pvtz
METHOD		rimp2
AUX_BASIS	rimp2-cc-pvtz
SOLVENT_METHOD	PCM
PURECART	11111
SYMMETRY	false
MEM_TOTAL	110000
SCF_CONVERGENCE = 6
THRESH=10
GUI = 2
$end

$solvent
dielectric 4.90
$end
--------------------------------------------------------------

             Standard Nuclear Orientation (Angstroms)
    I     Atom           X                Y                Z
 ----------------------------------------------------------------
    1      C      -0.0920440000    -0.9872670000     0.9742660000
    2      S      -0.0127440000    -0.0859670000     2.4817660000
    3      C       0.1235560000     1.4806330000     1.6931660000
    4      C      -0.0124440000    -0.0863670000    -0.0936340000
    5      C       0.1063560000     1.2987330000     0.2878660000
    6      S      -0.0308440000    -0.3292670000    -1.8312340000
    7      C       0.1162560000     1.4162330000    -2.0802340000
    8      C       0.1755560000     2.1221330000    -0.8883340000
    9      F       0.2872560000     3.4540330000    -0.8448340000
   10      C       0.1572560000     1.8624330000    -3.4818340000
   11      O       0.0980560000     1.0948330000    -4.4322340000
   12      O       0.2674560000     3.2084330000    -3.5949340000
   13      C       0.3158560000     3.7012330000    -4.9419340000
   14      H       0.4048560000     4.7986330000    -4.8588340000
   15      H      -0.6046440000     3.4270330000    -5.4959340000
   16      H       1.1863560000     3.2808330000    -5.4850340000
   17      C      -0.0920440000    -2.4224670000     0.9742660000
   18      H       0.6078560000    -2.4304670000     1.7967660000
   19      H      -0.7359440000    -3.1003670000     1.5148660000
   20      H       0.6240560000    -2.9535670000     0.3646660000
   21      H       0.2027560000     2.4015330000     2.2807660000
 ----------------------------------------------------------------

   11   -1389.2712127881      5.07e-07  Convergence criterion met
 Total energy in the final basis set =    -1389.2712127881
        RIMP2         total energy =     -1391.7754076611 a.u.

                    Orbital Energies (a.u.)
 --------------------------------------------------------------

 Alpha MOs
 -- Occupied --
-92.0061 -91.9908 -26.3401 -20.6133 -20.5594 -11.4072 -11.3780 -11.2974
-11.2969 -11.2941 -11.2879 -11.2836 -11.2783 -11.2274  -9.0051  -8.9910
 -6.6859  -6.6854  -6.6848  -6.6720  -6.6713  -6.6702  -1.6574  -1.4657
 -1.3683  -1.2118  -1.1367  -1.0654  -1.0190  -0.9953  -0.9582  -0.9127
 -0.8633  -0.8058  -0.7880  -0.7579  -0.7312  -0.7223  -0.6913  -0.6830
 -0.6724  -0.6602  -0.6095  -0.6001  -0.5920  -0.5778  -0.5648  -0.5560
 -0.5372  -0.5297  -0.5093  -0.4895  -0.4728  -0.4708  -0.4698  -0.4580
 -0.3883  -0.3456  -0.2862

          Ground-State Mulliken Net Atomic Charges

     Atom                 Charge (a.u.)
  ----------------------------------------
      1 C                     0.041187
      2 S                     0.073690
      3 C                    -0.212555
      4 C                    -0.014317
      5 C                    -0.094143
      6 S                    -0.008118
      7 C                    -0.157560
      8 C                     0.389596
      9 F                    -0.208860
     10 C                     0.445436
     11 O                    -0.462210
     12 O                    -0.300760
     13 C                    -0.058703
     14 H                     0.121054
     15 H                     0.094801
     16 H                     0.094621
     17 C                    -0.381756
     18 H                     0.125207
     19 H                     0.153114
     20 H                     0.146429
     21 H                     0.213846
  ----------------------------------------
  Sum of atomic charges =     0.000000

                    Cartesian Multipole Moments
 -----------------------------------------------------------------
    Charge (ESU x 10^10)
                -0.0000
    Dipole Moment (Debye)
         X       0.6390      Y       0.3962      Z       3.7535
       Tot       3.8280
    Quadrupole Moments (Debye-Ang)
        XX     -96.5563     XY      -0.1290     YY     -81.0107
        XZ      -0.6295     YZ     -11.5527     ZZ     -95.6701

 Total job time:  53.22s(wall), 1948.93s(cpu)
        *  Thank you very much for using Q-Chem.  Have a nice day.  *
