 Q-Chem 5.4, Q-Chem, Inc., Pleasanton, CA (2021)
 Q-Chem 5.4.0 for Intel X86 EM64T Linux

User input:
--------------------------------------------------------------
$molecule
0 1
C	-0.668875	-0.747937	0.978269
S	-0.086975	-0.055137	2.485769
C	0.923325	1.149963	1.697169
C	-0.086975	-0.055537	-0.089631
C	0.804825	1.010863	0.291869
S	-0.241275	-0.244037	-1.827231
C	0.880425	1.101463	-2.076231
C	1.333825	1.645563	-0.884331
F	2.189325	2.672563	-0.840831
C	1.169825	1.443363	-3.477831
O	0.681125	0.848563	-4.428231
O	2.032225	2.482763	-3.590931
C	2.354425	2.858663	-4.937931
H	3.056825	3.706563	-4.854831
H	1.443225	3.162063	-5.491931
H	2.826425	2.015063	-5.481031
C	-0.668875	-2.183137	0.978269
H	-0.488675	-2.191137	-0.086531
H	0.159125	-2.861037	1.123969
H	-1.596075	-2.714237	0.821569
H	1.516325	1.858863	2.284769
$end

$rem
JOBTYPE		SP
EXCHANGE	HF
CORRELATION	pRIMP2
BASIS		cc-pvtz
METHOD		rimp2
AUX_BASIS	rimp2-cc-pvtz
SOLVENT_METHOD	PCM
PURECART	11111
SYMMETRY	false
MEM_TOTAL	110000
SCF_CONVERGENCE = 6
THRESH=10
GUI = 2
$end

$solvent
dielectric 4.90
$end
--------------------------------------------------------------

             Standard Nuclear Orientation (Angstroms)
    I     Atom           X                Y                Z
 ----------------------------------------------------------------
    1      C      -0.6688750000    -0.7479370000     0.9782690000
    2      S      -0.0869750000    -0.0551370000     2.4857690000
    3      C       0.9233250000     1.1499630000     1.6971690000
    4      C      -0.0869750000    -0.0555370000    -0.0896310000
    5      C       0.8048250000     1.0108630000     0.2918690000
    6      S      -0.2412750000    -0.2440370000    -1.8272310000
    7      C       0.8804250000     1.1014630000    -2.0762310000
    8      C       1.3338250000     1.6455630000    -0.8843310000
    9      F       2.1893250000     2.6725630000    -0.8408310000
   10      C       1.1698250000     1.4433630000    -3.4778310000
   11      O       0.6811250000     0.8485630000    -4.4282310000
   12      O       2.0322250000     2.4827630000    -3.5909310000
   13      C       2.3544250000     2.8586630000    -4.9379310000
   14      H       3.0568250000     3.7065630000    -4.8548310000
   15      H       1.4432250000     3.1620630000    -5.4919310000
   16      H       2.8264250000     2.0150630000    -5.4810310000
   17      C      -0.6688750000    -2.1831370000     0.9782690000
   18      H      -0.4886750000    -2.1911370000    -0.0865310000
   19      H       0.1591250000    -2.8610370000     1.1239690000
   20      H      -1.5960750000    -2.7142370000     0.8215690000
   21      H       1.5163250000     1.8588630000     2.2847690000
 ----------------------------------------------------------------

   11   -1389.2389962918      4.81e-07  Convergence criterion met
 Total energy in the final basis set =    -1389.2389962918
        RIMP2         total energy =     -1391.7516490795 a.u.

                    Orbital Energies (a.u.)
 --------------------------------------------------------------

 Alpha MOs
 -- Occupied --
-92.0021 -91.9991 -26.3427 -20.6141 -20.5601 -11.4083 -11.3821 -11.3112
-11.2975 -11.2948 -11.2886 -11.2799 -11.2778 -11.2190  -9.0015  -8.9991
 -6.6823  -6.6815  -6.6812  -6.6801  -6.6794  -6.6783  -1.6599  -1.4665
 -1.3691  -1.2179  -1.1383  -1.0696  -1.0203  -0.9921  -0.9592  -0.9109
 -0.8648  -0.8073  -0.7905  -0.7603  -0.7306  -0.7246  -0.6964  -0.6840
 -0.6733  -0.6615  -0.6070  -0.6037  -0.5921  -0.5850  -0.5642  -0.5596
 -0.5306  -0.5268  -0.5096  -0.4875  -0.4743  -0.4725  -0.4670  -0.4423
 -0.3893  -0.3434  -0.2969

          Ground-State Mulliken Net Atomic Charges

     Atom                 Charge (a.u.)
  ----------------------------------------
      1 C                    -0.052288
      2 S                     0.084607
      3 C                    -0.177980
      4 C                     0.009981
      5 C                    -0.089788
      6 S                     0.013613
      7 C                    -0.157702
      8 C                     0.389914
      9 F                    -0.206401
     10 C                     0.447361
     11 O                    -0.463465
     12 O                    -0.301439
     13 C                    -0.058393
     14 H                     0.121163
     15 H                     0.094946
     16 H                     0.094699
     17 C                    -0.350832
     18 H                     0.110626
     19 H                     0.154677
     20 H                     0.123370
     21 H                     0.213331
  ----------------------------------------
  Sum of atomic charges =     0.000000

                    Cartesian Multipole Moments
 -----------------------------------------------------------------
    Charge (ESU x 10^10)
                -0.0000
    Dipole Moment (Debye)
         X       2.0087      Y       0.8182      Z       2.3969
       Tot       3.2325
    Quadrupole Moments (Debye-Ang)
        XX     -92.4252     XY       5.1166     YY     -87.0396
        XZ      -4.0837     YZ      -5.7827     ZZ     -97.4927

 Total job time:  56.77s(wall), 1990.54s(cpu)
        *  Thank you very much for using Q-Chem.  Have a nice day.  *
