 Q-Chem 5.4, Q-Chem, Inc., Pleasanton, CA (2021)
 Q-Chem 5.4.0 for Intel X86 EM64T Linux

User input:
--------------------------------------------------------------
$molecule
0 1
C	-0.006313	-0.991599	0.976149
S	-0.005813	-0.086799	2.483649
C	-0.006613	1.485701	1.695049
C	-0.005513	-0.087199	-0.091751
C	-0.007913	1.303001	0.289749
S	-0.002713	-0.330699	-1.829351
C	-0.008213	1.420901	-2.078351
C	-0.010713	2.129301	-0.886451
F	-0.015513	3.465901	-0.842951
C	-0.006313	1.869001	-3.479951
O	0.001587	1.099101	-4.430351
O	-0.013813	3.219501	-3.593051
C	-0.008613	3.714601	-4.940051
H	-0.015613	4.815601	-4.856951
H	-0.901713	3.361301	-5.494051
H	0.895187	3.371701	-5.483151
C	0.118787	-2.421299	0.976149
H	1.195287	-2.335199	0.968749
H	0.178087	-3.096699	1.816849
H	0.158387	-2.950999	0.035749
H	-0.008013	2.410001	2.282649
$end

$rem
JOBTYPE		SP
EXCHANGE	HF
CORRELATION	pRIMP2
BASIS		cc-pvtz
METHOD		rimp2
AUX_BASIS	rimp2-cc-pvtz
SOLVENT_METHOD	PCM
PURECART	11111
SYMMETRY	false
MEM_TOTAL	110000
SCF_CONVERGENCE = 6
THRESH=10
GUI = 2
$end

$solvent
dielectric 4.90
$end
--------------------------------------------------------------

             Standard Nuclear Orientation (Angstroms)
    I     Atom           X                Y                Z
 ----------------------------------------------------------------
    1      C      -0.0063130000    -0.9915990000     0.9761490000
    2      S      -0.0058130000    -0.0867990000     2.4836490000
    3      C      -0.0066130000     1.4857010000     1.6950490000
    4      C      -0.0055130000    -0.0871990000    -0.0917510000
    5      C      -0.0079130000     1.3030010000     0.2897490000
    6      S      -0.0027130000    -0.3306990000    -1.8293510000
    7      C      -0.0082130000     1.4209010000    -2.0783510000
    8      C      -0.0107130000     2.1293010000    -0.8864510000
    9      F      -0.0155130000     3.4659010000    -0.8429510000
   10      C      -0.0063130000     1.8690010000    -3.4799510000
   11      O       0.0015870000     1.0991010000    -4.4303510000
   12      O      -0.0138130000     3.2195010000    -3.5930510000
   13      C      -0.0086130000     3.7146010000    -4.9400510000
   14      H      -0.0156130000     4.8156010000    -4.8569510000
   15      H      -0.9017130000     3.3613010000    -5.4940510000
   16      H       0.8951870000     3.3717010000    -5.4831510000
   17      C       0.1187870000    -2.4212990000     0.9761490000
   18      H       1.1952870000    -2.3351990000     0.9687490000
   19      H       0.1780870000    -3.0966990000     1.8168490000
   20      H       0.1583870000    -2.9509990000     0.0357490000
   21      H      -0.0080130000     2.4100010000     2.2826490000
 ----------------------------------------------------------------

   11   -1389.2736006396      5.28e-07  Convergence criterion met
 Total energy in the final basis set =    -1389.2736006396
        RIMP2         total energy =     -1391.7770995267 a.u.

                    Orbital Energies (a.u.)
 --------------------------------------------------------------

 Alpha MOs
 -- Occupied --
-92.0055 -91.9898 -26.3396 -20.6134 -20.5595 -11.4072 -11.3772 -11.3049
-11.2943 -11.2902 -11.2880 -11.2793 -11.2781 -11.2326  -9.0043  -8.9899
 -6.6852  -6.6846  -6.6841  -6.6710  -6.6703  -6.6692  -1.6569  -1.4657
 -1.3683  -1.2111  -1.1363  -1.0672  -1.0177  -0.9957  -0.9576  -0.9131
 -0.8625  -0.8040  -0.7877  -0.7582  -0.7306  -0.7218  -0.6918  -0.6831
 -0.6724  -0.6598  -0.6121  -0.5952  -0.5910  -0.5837  -0.5612  -0.5592
 -0.5313  -0.5256  -0.5178  -0.5003  -0.4720  -0.4714  -0.4697  -0.4603
 -0.3839  -0.3451  -0.2798

          Ground-State Mulliken Net Atomic Charges

     Atom                 Charge (a.u.)
  ----------------------------------------
      1 C                     0.053955
      2 S                     0.075880
      3 C                    -0.232308
      4 C                    -0.033158
      5 C                    -0.091575
      6 S                    -0.018530
      7 C                    -0.156502
      8 C                     0.388562
      9 F                    -0.209212
     10 C                     0.445624
     11 O                    -0.462002
     12 O                    -0.300629
     13 C                    -0.058705
     14 H                     0.121141
     15 H                     0.094796
     16 H                     0.094616
     17 C                    -0.391634
     18 H                     0.150853
     19 H                     0.166938
     20 H                     0.149642
     21 H                     0.212248
  ----------------------------------------
  Sum of atomic charges =     0.000000

                    Cartesian Multipole Moments
 -----------------------------------------------------------------
    Charge (ESU x 10^10)
                -0.0000
    Dipole Moment (Debye)
         X       0.8983      Y      -0.0793      Z       3.3098
       Tot       3.4305
    Quadrupole Moments (Debye-Ang)
        XX     -96.8093     XY      -2.2974     YY     -80.5283
        XZ       0.9517     YZ     -11.0510     ZZ     -96.5255

 Total job time:  73.62s(wall), 2440.21s(cpu)
        *  Thank you very much for using Q-Chem.  Have a nice day.  *
