 Q-Chem 5.4, Q-Chem, Inc., Pleasanton, CA (2021)
 Q-Chem 5.4.0 for Intel X86 EM64T Linux

User input:
--------------------------------------------------------------
$molecule
0 1
C	-0.179744	-0.975447	0.978188
S	-0.022144	-0.084547	2.485688
C	0.250156	1.464253	1.697088
C	-0.021944	-0.084847	-0.089712
C	0.217156	1.284553	0.291788
S	-0.061444	-0.325247	-1.827312
C	0.237256	1.400753	-2.076312
C	0.357856	2.098753	-0.884412
F	0.585256	3.415953	-0.840912
C	0.316956	1.841653	-3.477912
O	0.191156	1.082153	-4.428312
O	0.544156	3.172953	-3.591012
C	0.635256	3.659653	-4.938012
H	0.819556	4.745153	-4.854912
H	-0.305644	3.466753	-5.492012
H	1.465756	3.165053	-5.481112
C	-0.179744	-2.410647	0.978188
H	-0.374644	-2.418647	-0.084012
H	0.648156	-3.088547	0.831888
H	-1.104644	-2.941747	1.147988
H	0.409256	2.374753	2.284688
$end

$rem
JOBTYPE		SP
EXCHANGE	HF
CORRELATION	pRIMP2
BASIS		cc-pvtz
METHOD		rimp2
AUX_BASIS	rimp2-cc-pvtz
SOLVENT_METHOD	PCM
PURECART	11111
SYMMETRY	false
MEM_TOTAL	110000
SCF_CONVERGENCE = 6
THRESH=10
GUI = 2
$end

$solvent
dielectric 4.90
$end
--------------------------------------------------------------

             Standard Nuclear Orientation (Angstroms)
    I     Atom           X                Y                Z
 ----------------------------------------------------------------
    1      C      -0.1797440000    -0.9754470000     0.9781880000
    2      S      -0.0221440000    -0.0845470000     2.4856880000
    3      C       0.2501560000     1.4642530000     1.6970880000
    4      C      -0.0219440000    -0.0848470000    -0.0897120000
    5      C       0.2171560000     1.2845530000     0.2917880000
    6      S      -0.0614440000    -0.3252470000    -1.8273120000
    7      C       0.2372560000     1.4007530000    -2.0763120000
    8      C       0.3578560000     2.0987530000    -0.8844120000
    9      F       0.5852560000     3.4159530000    -0.8409120000
   10      C       0.3169560000     1.8416530000    -3.4779120000
   11      O       0.1911560000     1.0821530000    -4.4283120000
   12      O       0.5441560000     3.1729530000    -3.5910120000
   13      C       0.6352560000     3.6596530000    -4.9380120000
   14      H       0.8195560000     4.7451530000    -4.8549120000
   15      H      -0.3056440000     3.4667530000    -5.4920120000
   16      H       1.4657560000     3.1650530000    -5.4811120000
   17      C      -0.1797440000    -2.4106470000     0.9781880000
   18      H      -0.3746440000    -2.4186470000    -0.0840120000
   19      H       0.6481560000    -3.0885470000     0.8318880000
   20      H      -1.1046440000    -2.9417470000     1.1479880000
   21      H       0.4092560000     2.3747530000     2.2846880000
 ----------------------------------------------------------------

   11   -1389.2713116091      4.57e-07  Convergence criterion met
 Total energy in the final basis set =    -1389.2713116091
        RIMP2         total energy =     -1391.7775151071 a.u.

                    Orbital Energies (a.u.)
 --------------------------------------------------------------

 Alpha MOs
 -- Occupied --
-92.0027 -91.9940 -26.3414 -20.6137 -20.5598 -11.4078 -11.3799 -11.3010
-11.2947 -11.2933 -11.2907 -11.2883 -11.2789 -11.2262  -9.0018  -8.9942
 -6.6826  -6.6819  -6.6815  -6.6753  -6.6746  -6.6735  -1.6585  -1.4661
 -1.3687  -1.2138  -1.1353  -1.0680  -1.0189  -0.9949  -0.9583  -0.9143
 -0.8636  -0.8054  -0.7891  -0.7594  -0.7301  -0.7233  -0.6947  -0.6835
 -0.6729  -0.6613  -0.6087  -0.6027  -0.5917  -0.5823  -0.5661  -0.5557
 -0.5399  -0.5302  -0.5071  -0.4873  -0.4735  -0.4718  -0.4650  -0.4510
 -0.3931  -0.3449  -0.2924

          Ground-State Mulliken Net Atomic Charges

     Atom                 Charge (a.u.)
  ----------------------------------------
      1 C                     0.036497
      2 S                     0.074002
      3 C                    -0.200760
      4 C                    -0.018234
      5 C                    -0.096899
      6 S                    -0.008727
      7 C                    -0.157795
      8 C                     0.390566
      9 F                    -0.207605
     10 C                     0.444932
     11 O                    -0.462932
     12 O                    -0.301046
     13 C                    -0.058639
     14 H                     0.121152
     15 H                     0.094792
     16 H                     0.094739
     17 C                    -0.359520
     18 H                     0.111376
     19 H                     0.148814
     20 H                     0.142291
     21 H                     0.212996
  ----------------------------------------
  Sum of atomic charges =     0.000000

                    Cartesian Multipole Moments
 -----------------------------------------------------------------
    Charge (ESU x 10^10)
                -0.0000
    Dipole Moment (Debye)
         X       0.2685      Y       0.6491      Z       2.5689
       Tot       2.6632
    Quadrupole Moments (Debye-Ang)
        XX     -95.8689     XY       2.2283     YY     -81.4742
        XZ      -1.5356     YZ      -8.2186     ZZ     -98.0961

 Total job time:  61.02s(wall), 2254.89s(cpu)
        *  Thank you very much for using Q-Chem.  Have a nice day.  *
