 Q-Chem 5.4, Q-Chem, Inc., Pleasanton, CA (2021)
 Q-Chem 5.4.0 for Intel X86 EM64T Linux

User input:
--------------------------------------------------------------
$molecule
0 1
C	-0.518412	-0.851940	0.974225
S	-0.065612	-0.068640	2.481725
C	0.719988	1.293660	1.693125
C	-0.065512	-0.069040	-0.093675
C	0.627488	1.136060	0.287825
S	-0.184812	-0.281440	-1.831275
C	0.686188	1.238360	-2.080275
C	1.038188	1.852960	-0.888375
F	1.702388	3.012960	-0.844875
C	0.911888	1.625360	-3.481875
O	0.533788	0.954660	-4.432275
O	1.580588	2.798760	-3.594975
C	1.832688	3.224860	-4.941975
H	2.377188	4.181860	-4.858875
H	0.882588	3.365460	-5.495975
H	2.443988	2.476060	-5.485075
C	-0.518412	-2.287140	0.974225
H	-1.340912	-2.295140	1.674125
H	-1.059012	-2.965040	0.330325
H	0.091188	-2.818240	1.690325
H	1.180888	2.094760	2.280725
$end

$rem
JOBTYPE		SP
EXCHANGE	HF
CORRELATION	pRIMP2
BASIS		cc-pvtz
METHOD		rimp2
AUX_BASIS	rimp2-cc-pvtz
SOLVENT_METHOD	PCM
PURECART	11111
SYMMETRY	false
MEM_TOTAL	110000
SCF_CONVERGENCE = 6
THRESH=10
GUI = 2
$end

$solvent
dielectric 4.90
$end
--------------------------------------------------------------

             Standard Nuclear Orientation (Angstroms)
    I     Atom           X                Y                Z
 ----------------------------------------------------------------
    1      C      -0.5184120000    -0.8519400000     0.9742250000
    2      S      -0.0656120000    -0.0686400000     2.4817250000
    3      C       0.7199880000     1.2936600000     1.6931250000
    4      C      -0.0655120000    -0.0690400000    -0.0936750000
    5      C       0.6274880000     1.1360600000     0.2878250000
    6      S      -0.1848120000    -0.2814400000    -1.8312750000
    7      C       0.6861880000     1.2383600000    -2.0802750000
    8      C       1.0381880000     1.8529600000    -0.8883750000
    9      F       1.7023880000     3.0129600000    -0.8448750000
   10      C       0.9118880000     1.6253600000    -3.4818750000
   11      O       0.5337880000     0.9546600000    -4.4322750000
   12      O       1.5805880000     2.7987600000    -3.5949750000
   13      C       1.8326880000     3.2248600000    -4.9419750000
   14      H       2.3771880000     4.1818600000    -4.8588750000
   15      H       0.8825880000     3.3654600000    -5.4959750000
   16      H       2.4439880000     2.4760600000    -5.4850750000
   17      C      -0.5184120000    -2.2871400000     0.9742250000
   18      H      -1.3409120000    -2.2951400000     1.6741250000
   19      H      -1.0590120000    -2.9650400000     0.3303250000
   20      H       0.0911880000    -2.8182400000     1.6903250000
   21      H       1.1808880000     2.0947600000     2.2807250000
 ----------------------------------------------------------------

   11   -1389.2515869281      4.65e-07  Convergence criterion met
 Total energy in the final basis set =    -1389.2515869281
        RIMP2         total energy =     -1391.7601052605 a.u.

                    Orbital Energies (a.u.)
 --------------------------------------------------------------

 Alpha MOs
 -- Occupied --
-92.0065 -91.9931 -26.3405 -20.6134 -20.5595 -11.4074 -11.3787 -11.3031
-11.2940 -11.2880 -11.2877 -11.2863 -11.2787 -11.2229  -9.0055  -8.9932
 -6.6863  -6.6857  -6.6852  -6.6742  -6.6735  -6.6724  -1.6578  -1.4658
 -1.3684  -1.2132  -1.1375  -1.0648  -1.0197  -0.9940  -0.9586  -0.9118
 -0.8638  -0.8065  -0.7885  -0.7582  -0.7308  -0.7226  -0.6919  -0.6832
 -0.6726  -0.6600  -0.6109  -0.5966  -0.5894  -0.5808  -0.5638  -0.5587
 -0.5312  -0.5276  -0.5094  -0.4888  -0.4722  -0.4714  -0.4701  -0.4592
 -0.3842  -0.3450  -0.2863

          Ground-State Mulliken Net Atomic Charges

     Atom                 Charge (a.u.)
  ----------------------------------------
      1 C                    -0.038427
      2 S                     0.078453
      3 C                    -0.196610
      4 C                     0.022875
      5 C                    -0.097035
      6 S                     0.001393
      7 C                    -0.158294
      8 C                     0.391154
      9 F                    -0.208692
     10 C                     0.446419
     11 O                    -0.462512
     12 O                    -0.301015
     13 C                    -0.058511
     14 H                     0.121047
     15 H                     0.094747
     16 H                     0.094699
     17 C                    -0.377646
     18 H                     0.127396
     19 H                     0.161321
     20 H                     0.145019
     21 H                     0.214219
  ----------------------------------------
  Sum of atomic charges =     0.000000

                    Cartesian Multipole Moments
 -----------------------------------------------------------------
    Charge (ESU x 10^10)
                -0.0000
    Dipole Moment (Debye)
         X       0.7227      Y       0.5164      Z       3.5598
       Tot       3.6689
    Quadrupole Moments (Debye-Ang)
        XX     -93.6862     XY       6.3340     YY     -84.4196
        XZ      -4.2712     YZ      -9.3815     ZZ     -95.5252

 Total job time:  57.01s(wall), 1993.11s(cpu)
        *  Thank you very much for using Q-Chem.  Have a nice day.  *
