 Q-Chem 5.4, Q-Chem, Inc., Pleasanton, CA (2021)
 Q-Chem 5.4.0 for Intel X86 EM64T Linux

User input:
--------------------------------------------------------------
$molecule
0 1
C	-0.798396	-0.619704	0.973997
S	-0.104996	-0.038504	2.481497
C	1.099104	0.972896	1.692897
C	-0.105096	-0.038904	-0.093903
C	0.958404	0.856396	0.287597
S	-0.289796	-0.197704	-1.831503
C	1.048504	0.932496	-2.080503
C	1.589504	1.389696	-0.888603
F	2.610304	2.252596	-0.845103
C	1.392904	1.219096	-3.482103
O	0.808304	0.718096	-4.432503
O	2.422704	2.092896	-3.595203
C	2.805304	2.407096	-4.942203
H	3.644204	3.120196	-4.859103
H	1.960604	2.864196	-5.496203
H	3.123604	1.494396	-5.485303
C	-0.798396	-2.054904	0.973997
H	-0.251996	-2.062904	1.905497
H	-1.526296	-2.732804	1.394597
H	0.012604	-2.586004	0.498097
H	1.806304	1.568096	2.280497
$end

$rem
JOBTYPE		SP
EXCHANGE	HF
CORRELATION	pRIMP2
BASIS		cc-pvtz
METHOD		rimp2
AUX_BASIS	rimp2-cc-pvtz
SOLVENT_METHOD	PCM
PURECART	11111
SYMMETRY	false
MEM_TOTAL	110000
SCF_CONVERGENCE = 6
THRESH=10
GUI = 2
$end

$solvent
dielectric 4.90
$end
--------------------------------------------------------------

             Standard Nuclear Orientation (Angstroms)
    I     Atom           X                Y                Z
 ----------------------------------------------------------------
    1      C      -0.7983960000    -0.6197040000     0.9739970000
    2      S      -0.1049960000    -0.0385040000     2.4814970000
    3      C       1.0991040000     0.9728960000     1.6928970000
    4      C      -0.1050960000    -0.0389040000    -0.0939030000
    5      C       0.9584040000     0.8563960000     0.2875970000
    6      S      -0.2897960000    -0.1977040000    -1.8315030000
    7      C       1.0485040000     0.9324960000    -2.0805030000
    8      C       1.5895040000     1.3896960000    -0.8886030000
    9      F       2.6103040000     2.2525960000    -0.8451030000
   10      C       1.3929040000     1.2190960000    -3.4821030000
   11      O       0.8083040000     0.7180960000    -4.4325030000
   12      O       2.4227040000     2.0928960000    -3.5952030000
   13      C       2.8053040000     2.4070960000    -4.9422030000
   14      H       3.6442040000     3.1201960000    -4.8591030000
   15      H       1.9606040000     2.8641960000    -5.4962030000
   16      H       3.1236040000     1.4943960000    -5.4853030000
   17      C      -0.7983960000    -2.0549040000     0.9739970000
   18      H      -0.2519960000    -2.0629040000     1.9054970000
   19      H      -1.5262960000    -2.7328040000     1.3945970000
   20      H       0.0126040000    -2.5860040000     0.4980970000
   21      H       1.8063040000     1.5680960000     2.2804970000
 ----------------------------------------------------------------

   11   -1389.2142099917      5.33e-07  Convergence criterion met
 Total energy in the final basis set =    -1389.2142099917
        RIMP2         total energy =     -1391.7281217707 a.u.

                    Orbital Energies (a.u.)
 --------------------------------------------------------------

 Alpha MOs
 -- Occupied --
-92.0008 -91.9983 -26.3428 -20.6137 -20.5597 -11.4078 -11.3822 -11.3180
-11.3002 -11.2939 -11.2884 -11.2799 -11.2717 -11.2152  -9.0013  -8.9983
 -6.6819  -6.6810  -6.6807  -6.6793  -6.6786  -6.6775  -1.6600  -1.4661
 -1.3688  -1.2199  -1.1434  -1.0677  -1.0228  -0.9907  -0.9607  -0.9056
 -0.8663  -0.8110  -0.7905  -0.7593  -0.7337  -0.7247  -0.6948  -0.6836
 -0.6731  -0.6613  -0.6096  -0.6046  -0.5935  -0.5718  -0.5638  -0.5584
 -0.5307  -0.5274  -0.5121  -0.4915  -0.4772  -0.4722  -0.4711  -0.4384
 -0.3857  -0.3434  -0.2917

          Ground-State Mulliken Net Atomic Charges

     Atom                 Charge (a.u.)
  ----------------------------------------
      1 C                    -0.065546
      2 S                     0.080938
      3 C                    -0.159268
      4 C                     0.026946
      5 C                    -0.101775
      6 S                     0.025056
      7 C                    -0.156372
      8 C                     0.390322
      9 F                    -0.206837
     10 C                     0.447208
     11 O                    -0.463783
     12 O                    -0.301521
     13 C                    -0.058421
     14 H                     0.121005
     15 H                     0.094885
     16 H                     0.094686
     17 C                    -0.379713
     18 H                     0.125572
     19 H                     0.133763
     20 H                     0.137474
     21 H                     0.215380
  ----------------------------------------
  Sum of atomic charges =     0.000000

                    Cartesian Multipole Moments
 -----------------------------------------------------------------
    Charge (ESU x 10^10)
                -0.0000
    Dipole Moment (Debye)
         X       2.8381      Y       0.6612      Z       3.5134
       Tot       4.5646
    Quadrupole Moments (Debye-Ang)
        XX     -91.4890     XY       4.8858     YY     -89.5297
        XZ      -5.4558     YZ      -7.1672     ZZ     -94.9031

 Total job time:  64.94s(wall), 2137.27s(cpu)
        *  Thank you very much for using Q-Chem.  Have a nice day.  *
