 Q-Chem 5.4, Q-Chem, Inc., Pleasanton, CA (2021)
 Q-Chem 5.4.0 for Intel X86 EM64T Linux

User input:
--------------------------------------------------------------
$molecule
0 1
C	-0.441169	-0.893839	0.977605
S	-0.058369	-0.074039	2.485105
C	0.605531	1.351461	1.696505
C	-0.058269	-0.074439	-0.090295
C	0.527131	1.186461	0.291205
S	-0.158569	-0.296439	-1.827895
C	0.576631	1.293461	-2.076895
C	0.873831	1.936461	-0.884995
F	1.434331	3.149961	-0.841495
C	0.767731	1.698761	-3.478495
O	0.449631	0.997661	-4.428895
O	1.331731	2.925861	-3.591595
C	1.545731	3.372361	-4.938595
H	2.004631	4.373161	-4.855495
H	0.586931	3.429561	-5.492595
H	2.219931	2.679661	-5.481695
C	-0.441169	-2.329039	0.977605
H	0.381331	-2.337039	0.277705
H	0.099431	-3.006939	1.621505
H	-1.050769	-2.860139	0.261505
H	0.994831	2.189761	2.284105
$end

$rem
JOBTYPE		SP
EXCHANGE	HF
CORRELATION	pRIMP2
BASIS		cc-pvtz
METHOD		rimp2
AUX_BASIS	rimp2-cc-pvtz
SOLVENT_METHOD	PCM
PURECART	11111
SYMMETRY	false
MEM_TOTAL	110000
SCF_CONVERGENCE = 6
THRESH=10
GUI = 2
$end

$solvent
dielectric 4.90
$end
--------------------------------------------------------------

             Standard Nuclear Orientation (Angstroms)
    I     Atom           X                Y                Z
 ----------------------------------------------------------------
    1      C      -0.4411690000    -0.8938390000     0.9776050000
    2      S      -0.0583690000    -0.0740390000     2.4851050000
    3      C       0.6055310000     1.3514610000     1.6965050000
    4      C      -0.0582690000    -0.0744390000    -0.0902950000
    5      C       0.5271310000     1.1864610000     0.2912050000
    6      S      -0.1585690000    -0.2964390000    -1.8278950000
    7      C       0.5766310000     1.2934610000    -2.0768950000
    8      C       0.8738310000     1.9364610000    -0.8849950000
    9      F       1.4343310000     3.1499610000    -0.8414950000
   10      C       0.7677310000     1.6987610000    -3.4784950000
   11      O       0.4496310000     0.9976610000    -4.4288950000
   12      O       1.3317310000     2.9258610000    -3.5915950000
   13      C       1.5457310000     3.3723610000    -4.9385950000
   14      H       2.0046310000     4.3731610000    -4.8554950000
   15      H       0.5869310000     3.4295610000    -5.4925950000
   16      H       2.2199310000     2.6796610000    -5.4816950000
   17      C      -0.4411690000    -2.3290390000     0.9776050000
   18      H       0.3813310000    -2.3370390000     0.2777050000
   19      H       0.0994310000    -3.0069390000     1.6215050000
   20      H      -1.0507690000    -2.8601390000     0.2615050000
   21      H       0.9948310000     2.1897610000     2.2841050000
 ----------------------------------------------------------------

   11   -1389.2595674615      4.92e-07  Convergence criterion met
 Total energy in the final basis set =    -1389.2595674615
        RIMP2         total energy =     -1391.7680649481 a.u.

                    Orbital Energies (a.u.)
 --------------------------------------------------------------

 Alpha MOs
 -- Occupied --
-92.0060 -91.9942 -26.3410 -20.6137 -20.5597 -11.4078 -11.3793 -11.2967
-11.2960 -11.2947 -11.2882 -11.2846 -11.2793 -11.2266  -9.0048  -8.9943
 -6.6855  -6.6849  -6.6845  -6.6753  -6.6746  -6.6735  -1.6582  -1.4661
 -1.3687  -1.2138  -1.1372  -1.0680  -1.0187  -0.9941  -0.9583  -0.9118
 -0.8635  -0.8050  -0.7889  -0.7591  -0.7301  -0.7230  -0.6937  -0.6835
 -0.6729  -0.6605  -0.6097  -0.5973  -0.5917  -0.5867  -0.5637  -0.5600
 -0.5309  -0.5287  -0.5082  -0.4928  -0.4729  -0.4716  -0.4663  -0.4628
 -0.3841  -0.3438  -0.2863

          Ground-State Mulliken Net Atomic Charges

     Atom                 Charge (a.u.)
  ----------------------------------------
      1 C                     0.020787
      2 S                     0.083252
      3 C                    -0.217333
      4 C                    -0.022989
      5 C                    -0.085920
      6 S                    -0.004165
      7 C                    -0.155158
      8 C                     0.387392
      9 F                    -0.207883
     10 C                     0.447302
     11 O                    -0.462516
     12 O                    -0.300976
     13 C                    -0.058483
     14 H                     0.121164
     15 H                     0.094842
     16 H                     0.094652
     17 C                    -0.388949
     18 H                     0.133997
     19 H                     0.166289
     20 H                     0.142850
     21 H                     0.211843
  ----------------------------------------
  Sum of atomic charges =     0.000000

                    Cartesian Multipole Moments
 -----------------------------------------------------------------
    Charge (ESU x 10^10)
                -0.0000
    Dipole Moment (Debye)
         X       1.4069      Y       0.2731      Z       2.7846
       Tot       3.1318
    Quadrupole Moments (Debye-Ang)
        XX     -95.3462     XY       3.0632     YY     -83.3206
        XZ      -2.5752     YZ      -8.5618     ZZ     -97.1245

 Total job time:  57.41s(wall), 1966.79s(cpu)
        *  Thank you very much for using Q-Chem.  Have a nice day.  *
