 Q-Chem 5.4, Q-Chem, Inc., Pleasanton, CA (2021)
 Q-Chem 5.4.0 for Intel X86 EM64T Linux

User input:
--------------------------------------------------------------
$molecule
0 1
C	-0.900478	-0.471137	0.978188
S	-0.116678	-0.019137	2.485688
C	1.244822	0.767763	1.697088
C	-0.116778	-0.019537	-0.089712
C	1.085922	0.677463	0.291788
S	-0.326378	-0.143837	-1.827312
C	1.187922	0.736763	-2.076312
C	1.800022	1.093063	-0.884412
F	2.955222	1.765563	-0.840912
C	1.576822	0.959163	-3.477912
O	0.914122	0.567363	-4.428312
O	2.742722	1.640863	-3.591012
C	3.174022	1.883963	-4.938012
H	4.124122	2.440463	-4.854912
H	2.421522	2.480763	-5.492012
H	3.329022	0.929763	-5.481112
C	-0.900478	-1.906337	0.978188
H	-1.095378	-1.914337	-0.084012
H	-0.072578	-2.584237	0.831888
H	-1.825378	-2.437437	1.147988
H	2.044522	1.231163	2.284688
$end

$rem
JOBTYPE		SP
EXCHANGE	HF
CORRELATION	pRIMP2
BASIS		cc-pvtz
METHOD		rimp2
AUX_BASIS	rimp2-cc-pvtz
SOLVENT_METHOD	PCM
PURECART	11111
SYMMETRY	false
MEM_TOTAL	110000
SCF_CONVERGENCE = 6
THRESH=10
GUI = 2
$end

$solvent
dielectric 4.90
$end
--------------------------------------------------------------

             Standard Nuclear Orientation (Angstroms)
    I     Atom           X                Y                Z
 ----------------------------------------------------------------
    1      C      -0.9004780000    -0.4711370000     0.9781880000
    2      S      -0.1166780000    -0.0191370000     2.4856880000
    3      C       1.2448220000     0.7677630000     1.6970880000
    4      C      -0.1167780000    -0.0195370000    -0.0897120000
    5      C       1.0859220000     0.6774630000     0.2917880000
    6      S      -0.3263780000    -0.1438370000    -1.8273120000
    7      C       1.1879220000     0.7367630000    -2.0763120000
    8      C       1.8000220000     1.0930630000    -0.8844120000
    9      F       2.9552220000     1.7655630000    -0.8409120000
   10      C       1.5768220000     0.9591630000    -3.4779120000
   11      O       0.9141220000     0.5673630000    -4.4283120000
   12      O       2.7427220000     1.6408630000    -3.5910120000
   13      C       3.1740220000     1.8839630000    -4.9380120000
   14      H       4.1241220000     2.4404630000    -4.8549120000
   15      H       2.4215220000     2.4807630000    -5.4920120000
   16      H       3.3290220000     0.9297630000    -5.4811120000
   17      C      -0.9004780000    -1.9063370000     0.9781880000
   18      H      -1.0953780000    -1.9143370000    -0.0840120000
   19      H      -0.0725780000    -2.5842370000     0.8318880000
   20      H      -1.8253780000    -2.4374370000     1.1479880000
   21      H       2.0445220000     1.2311630000     2.2846880000
 ----------------------------------------------------------------

   11   -1389.2019785725      5.91e-07  Convergence criterion met
 Total energy in the final basis set =    -1389.2019785725
        RIMP2         total energy =     -1391.7185562082 a.u.

                    Orbital Energies (a.u.)
 --------------------------------------------------------------

 Alpha MOs
 -- Occupied --
-92.0054 -91.9996 -26.3446 -20.6146 -20.5606 -11.4092 -11.3848 -11.3267
-11.3103 -11.2955 -11.2890 -11.2822 -11.2554 -11.2145  -9.0052  -8.9997
 -6.6862  -6.6854  -6.6844  -6.6804  -6.6793  -6.6793  -1.6617  -1.4671
 -1.3698  -1.2244  -1.1427  -1.0731  -1.0225  -0.9908  -0.9606  -0.9074
 -0.8668  -0.8100  -0.7923  -0.7618  -0.7329  -0.7263  -0.6997  -0.6846
 -0.6740  -0.6628  -0.6113  -0.6043  -0.5931  -0.5812  -0.5630  -0.5613
 -0.5311  -0.5183  -0.5122  -0.4902  -0.4765  -0.4731  -0.4697  -0.4247
 -0.3871  -0.3431  -0.3034

          Ground-State Mulliken Net Atomic Charges

     Atom                 Charge (a.u.)
  ----------------------------------------
      1 C                    -0.145534
      2 S                     0.092504
      3 C                    -0.134887
      4 C                     0.083634
      5 C                    -0.120300
      6 S                     0.040173
      7 C                    -0.158823
      8 C                     0.396036
      9 F                    -0.205551
     10 C                     0.448632
     11 O                    -0.464182
     12 O                    -0.301603
     13 C                    -0.058216
     14 H                     0.121288
     15 H                     0.095077
     16 H                     0.094801
     17 C                    -0.350694
     18 H                     0.098097
     19 H                     0.135472
     20 H                     0.118279
     21 H                     0.215797
  ----------------------------------------
  Sum of atomic charges =     0.000000

                    Cartesian Multipole Moments
 -----------------------------------------------------------------
    Charge (ESU x 10^10)
                -0.0000
    Dipole Moment (Debye)
         X       3.2472      Y       0.6987      Z       2.1259
       Tot       3.9436
    Quadrupole Moments (Debye-Ang)
        XX     -89.3583     XY       5.1683     YY     -91.6595
        XZ      -4.8997     YZ      -3.2219     ZZ     -96.7839

 Total job time:  58.21s(wall), 2110.40s(cpu)
        *  Thank you very much for using Q-Chem.  Have a nice day.  *
