 Q-Chem 5.4, Q-Chem, Inc., Pleasanton, CA (2021)
 Q-Chem 5.4.0 for Intel X86 EM64T Linux

User input:
--------------------------------------------------------------
$molecule
0 1
C	-0.437829	-0.893839	0.977564
S	-0.055029	-0.074039	2.485064
C	0.608871	1.351461	1.696464
C	-0.054929	-0.074439	-0.090336
C	0.530471	1.186461	0.291164
S	-0.155229	-0.296439	-1.827936
C	0.579971	1.293461	-2.076936
C	0.877171	1.936461	-0.885036
F	1.437671	3.149961	-0.841536
C	0.771071	1.698761	-3.478536
O	0.452971	0.997661	-4.428936
O	1.335071	2.925861	-3.591636
C	1.549071	3.372361	-4.938636
H	2.007971	4.373161	-4.855536
H	0.590271	3.429561	-5.492636
H	2.223271	2.679661	-5.481736
C	-0.437829	-2.329039	0.977564
H	-1.137729	-2.337039	0.155064
H	0.206071	-3.006939	0.436964
H	-1.153929	-2.860139	1.587164
H	0.998171	2.189761	2.284064
$end

$rem
JOBTYPE		SP
EXCHANGE	HF
CORRELATION	pRIMP2
BASIS		cc-pvtz
METHOD		rimp2
AUX_BASIS	rimp2-cc-pvtz
SOLVENT_METHOD	PCM
PURECART	11111
SYMMETRY	false
MEM_TOTAL	110000
SCF_CONVERGENCE = 6
THRESH=10
GUI = 2
$end

$solvent
dielectric 4.90
$end
--------------------------------------------------------------

             Standard Nuclear Orientation (Angstroms)
    I     Atom           X                Y                Z
 ----------------------------------------------------------------
    1      C      -0.4378290000    -0.8938390000     0.9775640000
    2      S      -0.0550290000    -0.0740390000     2.4850640000
    3      C       0.6088710000     1.3514610000     1.6964640000
    4      C      -0.0549290000    -0.0744390000    -0.0903360000
    5      C       0.5304710000     1.1864610000     0.2911640000
    6      S      -0.1552290000    -0.2964390000    -1.8279360000
    7      C       0.5799710000     1.2934610000    -2.0769360000
    8      C       0.8771710000     1.9364610000    -0.8850360000
    9      F       1.4376710000     3.1499610000    -0.8415360000
   10      C       0.7710710000     1.6987610000    -3.4785360000
   11      O       0.4529710000     0.9976610000    -4.4289360000
   12      O       1.3350710000     2.9258610000    -3.5916360000
   13      C       1.5490710000     3.3723610000    -4.9386360000
   14      H       2.0079710000     4.3731610000    -4.8555360000
   15      H       0.5902710000     3.4295610000    -5.4926360000
   16      H       2.2232710000     2.6796610000    -5.4817360000
   17      C      -0.4378290000    -2.3290390000     0.9775640000
   18      H      -1.1377290000    -2.3370390000     0.1550640000
   19      H       0.2060710000    -3.0069390000     0.4369640000
   20      H      -1.1539290000    -2.8601390000     1.5871640000
   21      H       0.9981710000     2.1897610000     2.2840640000
 ----------------------------------------------------------------

   11   -1389.2605542500      4.64e-07  Convergence criterion met
 Total energy in the final basis set =    -1389.2605542500
        RIMP2         total energy =     -1391.7689337492 a.u.

                    Orbital Energies (a.u.)
 --------------------------------------------------------------

 Alpha MOs
 -- Occupied --
-92.0025 -91.9949 -26.3413 -20.6137 -20.5597 -11.4078 -11.3798 -11.3018
-11.2946 -11.2909 -11.2894 -11.2883 -11.2793 -11.2245  -9.0017  -8.9950
 -6.6825  -6.6818  -6.6813  -6.6760  -6.6753  -6.6742  -1.6585  -1.4661
 -1.3687  -1.2140  -1.1359  -1.0671  -1.0189  -0.9945  -0.9584  -0.9134
 -0.8637  -0.8055  -0.7891  -0.7592  -0.7300  -0.7233  -0.6943  -0.6835
 -0.6729  -0.6609  -0.6110  -0.5978  -0.5914  -0.5801  -0.5639  -0.5568
 -0.5373  -0.5298  -0.5074  -0.4913  -0.4741  -0.4717  -0.4686  -0.4516
 -0.3868  -0.3448  -0.2889

          Ground-State Mulliken Net Atomic Charges

     Atom                 Charge (a.u.)
  ----------------------------------------
      1 C                     0.014851
      2 S                     0.079714
      3 C                    -0.200219
      4 C                    -0.030996
      5 C                    -0.088611
      6 S                     0.001265
      7 C                    -0.156685
      8 C                     0.387638
      9 F                    -0.207559
     10 C                     0.446417
     11 O                    -0.462748
     12 O                    -0.301065
     13 C                    -0.058474
     14 H                     0.121162
     15 H                     0.094790
     16 H                     0.094711
     17 C                    -0.371261
     18 H                     0.122338
     19 H                     0.158308
     20 H                     0.144179
     21 H                     0.212245
  ----------------------------------------
  Sum of atomic charges =     0.000000

                    Cartesian Multipole Moments
 -----------------------------------------------------------------
    Charge (ESU x 10^10)
                -0.0000
    Dipole Moment (Debye)
         X       0.5597      Y       0.5456      Z       2.6407
       Tot       2.7540
    Quadrupole Moments (Debye-Ang)
        XX     -94.3463     XY       5.5216     YY     -83.4372
        XZ      -4.0108     YZ      -7.8251     ZZ     -97.5232

 Total job time:  60.78s(wall), 2085.15s(cpu)
        *  Thank you very much for using Q-Chem.  Have a nice day.  *
