 Q-Chem 5.4, Q-Chem, Inc., Pleasanton, CA (2021)
 Q-Chem 5.4.0 for Intel X86 EM64T Linux

User input:
--------------------------------------------------------------
$molecule
0 1
C	-0.517711	-0.851940	0.975680
S	-0.064911	-0.068640	2.483180
C	0.720689	1.293660	1.694580
C	-0.064811	-0.069040	-0.092220
C	0.628189	1.136060	0.289280
S	-0.184111	-0.281440	-1.829820
C	0.686889	1.238360	-2.078820
C	1.038889	1.852960	-0.886920
F	1.703089	3.012960	-0.843420
C	0.912589	1.625360	-3.480420
O	0.534489	0.954660	-4.430820
O	1.581289	2.798760	-3.593520
C	1.833389	3.224860	-4.940520
H	2.377889	4.181860	-4.857420
H	0.883289	3.365460	-5.494520
H	2.444689	2.476060	-5.483620
C	-0.517711	-2.287140	0.975680
H	-1.597611	-2.295140	0.983080
H	-0.518011	-2.965040	0.134980
H	-0.511011	-2.818240	1.916080
H	1.181589	2.094760	2.282180
$end

$rem
JOBTYPE		SP
EXCHANGE	HF
CORRELATION	pRIMP2
BASIS		cc-pvtz
METHOD		rimp2
AUX_BASIS	rimp2-cc-pvtz
SOLVENT_METHOD	PCM
PURECART	11111
SYMMETRY	false
MEM_TOTAL	110000
SCF_CONVERGENCE = 6
THRESH=10
GUI = 2
$end

$solvent
dielectric 4.90
$end
--------------------------------------------------------------

             Standard Nuclear Orientation (Angstroms)
    I     Atom           X                Y                Z
 ----------------------------------------------------------------
    1      C      -0.5177110000    -0.8519400000     0.9756800000
    2      S      -0.0649110000    -0.0686400000     2.4831800000
    3      C       0.7206890000     1.2936600000     1.6945800000
    4      C      -0.0648110000    -0.0690400000    -0.0922200000
    5      C       0.6281890000     1.1360600000     0.2892800000
    6      S      -0.1841110000    -0.2814400000    -1.8298200000
    7      C       0.6868890000     1.2383600000    -2.0788200000
    8      C       1.0388890000     1.8529600000    -0.8869200000
    9      F       1.7030890000     3.0129600000    -0.8434200000
   10      C       0.9125890000     1.6253600000    -3.4804200000
   11      O       0.5344890000     0.9546600000    -4.4308200000
   12      O       1.5812890000     2.7987600000    -3.5935200000
   13      C       1.8333890000     3.2248600000    -4.9405200000
   14      H       2.3778890000     4.1818600000    -4.8574200000
   15      H       0.8832890000     3.3654600000    -5.4945200000
   16      H       2.4446890000     2.4760600000    -5.4836200000
   17      C      -0.5177110000    -2.2871400000     0.9756800000
   18      H      -1.5976110000    -2.2951400000     0.9830800000
   19      H      -0.5180110000    -2.9650400000     0.1349800000
   20      H      -0.5110110000    -2.8182400000     1.9160800000
   21      H       1.1815890000     2.0947600000     2.2821800000
 ----------------------------------------------------------------

   11   -1389.2493482013      4.82e-07  Convergence criterion met
 Total energy in the final basis set =    -1389.2493482013
        RIMP2         total energy =     -1391.7586124516 a.u.

                    Orbital Energies (a.u.)
 --------------------------------------------------------------

 Alpha MOs
 -- Occupied --
-92.0046 -91.9927 -26.3403 -20.6134 -20.5594 -11.4074 -11.3784 -11.2985
-11.2940 -11.2918 -11.2880 -11.2850 -11.2785 -11.2243  -9.0037  -8.9928
 -6.6845  -6.6838  -6.6834  -6.6738  -6.6731  -6.6720  -1.6576  -1.4657
 -1.3684  -1.2126  -1.1367  -1.0656  -1.0187  -0.9943  -0.9581  -0.9124
 -0.8632  -0.8053  -0.7883  -0.7584  -0.7300  -0.7224  -0.6926  -0.6831
 -0.6726  -0.6597  -0.6123  -0.5944  -0.5883  -0.5796  -0.5615  -0.5597
 -0.5322  -0.5264  -0.5096  -0.5003  -0.4732  -0.4714  -0.4709  -0.4557
 -0.3806  -0.3445  -0.2811

          Ground-State Mulliken Net Atomic Charges

     Atom                 Charge (a.u.)
  ----------------------------------------
      1 C                     0.002138
      2 S                     0.085582
      3 C                    -0.216532
      4 C                    -0.023224
      5 C                    -0.085715
      6 S                    -0.002197
      7 C                    -0.157691
      8 C                     0.393115
      9 F                    -0.208494
     10 C                     0.446787
     11 O                    -0.462548
     12 O                    -0.300971
     13 C                    -0.058487
     14 H                     0.121077
     15 H                     0.094708
     16 H                     0.094667
     17 C                    -0.385127
     18 H                     0.140478
     19 H                     0.164350
     20 H                     0.145336
     21 H                     0.212749
  ----------------------------------------
  Sum of atomic charges =     0.000000

                    Cartesian Multipole Moments
 -----------------------------------------------------------------
    Charge (ESU x 10^10)
                -0.0000
    Dipole Moment (Debye)
         X       0.3988      Y       0.2120      Z       3.2115
       Tot       3.2431
    Quadrupole Moments (Debye-Ang)
        XX     -93.7956     XY       6.7675     YY     -84.1391
        XZ      -4.8400     YZ      -8.8970     ZZ     -96.1827

 Total job time:  61.87s(wall), 2078.87s(cpu)
        *  Thank you very much for using Q-Chem.  Have a nice day.  *
