 Q-Chem 5.4, Q-Chem, Inc., Pleasanton, CA (2021)
 Q-Chem 5.4.0 for Intel X86 EM64T Linux

User input:
--------------------------------------------------------------
$molecule
0 1
C	-0.438495	-0.893839	0.978043
S	-0.055695	-0.074039	2.485543
C	0.608205	1.351461	1.696943
C	-0.055595	-0.074439	-0.089857
C	0.529805	1.186461	0.291643
S	-0.155895	-0.296439	-1.827457
C	0.579305	1.293461	-2.076457
C	0.876505	1.936461	-0.884557
F	1.437005	3.149961	-0.841057
C	0.770405	1.698761	-3.478057
O	0.452305	0.997661	-4.428457
O	1.334405	2.925861	-3.591157
C	1.548405	3.372361	-4.938157
H	2.007305	4.373161	-4.855057
H	0.589605	3.429561	-5.492157
H	2.222605	2.679661	-5.481257
C	-0.438495	-2.329039	0.978043
H	-0.814895	-2.337039	-0.034257
H	0.351405	-3.006939	0.690243
H	-1.319895	-2.860139	1.305943
H	0.997505	2.189761	2.284543
$end

$rem
JOBTYPE		SP
EXCHANGE	HF
CORRELATION	pRIMP2
BASIS		cc-pvtz
METHOD		rimp2
AUX_BASIS	rimp2-cc-pvtz
SOLVENT_METHOD	PCM
PURECART	11111
SYMMETRY	false
MEM_TOTAL	110000
SCF_CONVERGENCE = 6
THRESH=10
GUI = 2
$end

$solvent
dielectric 4.90
$end
--------------------------------------------------------------

             Standard Nuclear Orientation (Angstroms)
    I     Atom           X                Y                Z
 ----------------------------------------------------------------
    1      C      -0.4384950000    -0.8938390000     0.9780430000
    2      S      -0.0556950000    -0.0740390000     2.4855430000
    3      C       0.6082050000     1.3514610000     1.6969430000
    4      C      -0.0555950000    -0.0744390000    -0.0898570000
    5      C       0.5298050000     1.1864610000     0.2916430000
    6      S      -0.1558950000    -0.2964390000    -1.8274570000
    7      C       0.5793050000     1.2934610000    -2.0764570000
    8      C       0.8765050000     1.9364610000    -0.8845570000
    9      F       1.4370050000     3.1499610000    -0.8410570000
   10      C       0.7704050000     1.6987610000    -3.4780570000
   11      O       0.4523050000     0.9976610000    -4.4284570000
   12      O       1.3344050000     2.9258610000    -3.5911570000
   13      C       1.5484050000     3.3723610000    -4.9381570000
   14      H       2.0073050000     4.3731610000    -4.8550570000
   15      H       0.5896050000     3.4295610000    -5.4921570000
   16      H       2.2226050000     2.6796610000    -5.4812570000
   17      C      -0.4384950000    -2.3290390000     0.9780430000
   18      H      -0.8148950000    -2.3370390000    -0.0342570000
   19      H       0.3514050000    -3.0069390000     0.6902430000
   20      H      -1.3198950000    -2.8601390000     1.3059430000
   21      H       0.9975050000     2.1897610000     2.2845430000
 ----------------------------------------------------------------

   11   -1389.2612691454      4.58e-07  Convergence criterion met
 Total energy in the final basis set =    -1389.2612691454
        RIMP2         total energy =     -1391.7696291178 a.u.

                    Orbital Energies (a.u.)
 --------------------------------------------------------------

 Alpha MOs
 -- Occupied --
-92.0017 -91.9955 -26.3417 -20.6138 -20.5598 -11.4079 -11.3804 -11.3044
-11.2947 -11.2934 -11.2883 -11.2875 -11.2794 -11.2240  -9.0011  -8.9957
 -6.6818  -6.6811  -6.6808  -6.6767  -6.6760  -6.6749  -1.6589  -1.4662
 -1.3688  -1.2148  -1.1360  -1.0678  -1.0192  -0.9941  -0.9586  -0.9135
 -0.8639  -0.8059  -0.7894  -0.7595  -0.7301  -0.7237  -0.6950  -0.6836
 -0.6730  -0.6613  -0.6094  -0.6011  -0.5919  -0.5819  -0.5646  -0.5565
 -0.5368  -0.5301  -0.5077  -0.4883  -0.4740  -0.4720  -0.4669  -0.4474
 -0.3912  -0.3449  -0.2926

          Ground-State Mulliken Net Atomic Charges

     Atom                 Charge (a.u.)
  ----------------------------------------
      1 C                     0.005955
      2 S                     0.078481
      3 C                    -0.195086
      4 C                    -0.023646
      5 C                    -0.089834
      6 S                     0.001033
      7 C                    -0.157953
      8 C                     0.390704
      9 F                    -0.207231
     10 C                     0.446308
     11 O                    -0.462921
     12 O                    -0.301180
     13 C                    -0.058484
     14 H                     0.121173
     15 H                     0.094821
     16 H                     0.094723
     17 C                    -0.353758
     18 H                     0.110802
     19 H                     0.153681
     20 H                     0.139491
     21 H                     0.212922
  ----------------------------------------
  Sum of atomic charges =     0.000000

                    Cartesian Multipole Moments
 -----------------------------------------------------------------
    Charge (ESU x 10^10)
                -0.0000
    Dipole Moment (Debye)
         X       0.8302      Y       0.7094      Z       2.5200
       Tot       2.7465
    Quadrupole Moments (Debye-Ang)
        XX     -94.3065     XY       4.9204     YY     -83.5640
        XZ      -3.5453     YZ      -7.3638     ZZ     -97.8648

 Total job time:  79.90s(wall), 2661.15s(cpu)
        *  Thank you very much for using Q-Chem.  Have a nice day.  *
