 Q-Chem 5.4, Q-Chem, Inc., Pleasanton, CA (2021)
 Q-Chem 5.4.0 for Intel X86 EM64T Linux

User input:
--------------------------------------------------------------
$molecule
0 1
C	-0.269256	-0.955820	0.973565
S	-0.034656	-0.082020	2.481065
C	0.371644	1.437180	1.692465
C	-0.034456	-0.082420	-0.094335
C	0.323144	1.260980	0.287165
S	-0.094756	-0.318420	-1.831935
C	0.353344	1.374980	-2.080935
C	0.534244	2.059780	-0.889035
F	0.875544	3.352180	-0.845535
C	0.471044	1.807280	-3.482535
O	0.279544	1.061580	-4.432935
O	0.813444	3.113680	-3.595635
C	0.946544	3.590580	-4.942635
H	1.224844	4.655880	-4.859535
H	-0.007556	3.480480	-5.496635
H	1.730844	3.025480	-5.485735
C	-0.269256	-2.391020	0.973565
H	-0.261856	-2.399020	2.053465
H	-1.109956	-3.068920	0.973865
H	0.671144	-2.922120	0.966865
H	0.609444	2.330280	2.280065
$end

$rem
JOBTYPE		SP
EXCHANGE	HF
CORRELATION	pRIMP2
BASIS		cc-pvtz
METHOD		rimp2
AUX_BASIS	rimp2-cc-pvtz
SOLVENT_METHOD	PCM
PURECART	11111
SYMMETRY	false
MEM_TOTAL	110000
SCF_CONVERGENCE = 6
THRESH=10
GUI = 2
$end

$solvent
dielectric 4.90
$end
--------------------------------------------------------------

             Standard Nuclear Orientation (Angstroms)
    I     Atom           X                Y                Z
 ----------------------------------------------------------------
    1      C      -0.2692560000    -0.9558200000     0.9735650000
    2      S      -0.0346560000    -0.0820200000     2.4810650000
    3      C       0.3716440000     1.4371800000     1.6924650000
    4      C      -0.0344560000    -0.0824200000    -0.0943350000
    5      C       0.3231440000     1.2609800000     0.2871650000
    6      S      -0.0947560000    -0.3184200000    -1.8319350000
    7      C       0.3533440000     1.3749800000    -2.0809350000
    8      C       0.5342440000     2.0597800000    -0.8890350000
    9      F       0.8755440000     3.3521800000    -0.8455350000
   10      C       0.4710440000     1.8072800000    -3.4825350000
   11      O       0.2795440000     1.0615800000    -4.4329350000
   12      O       0.8134440000     3.1136800000    -3.5956350000
   13      C       0.9465440000     3.5905800000    -4.9426350000
   14      H       1.2248440000     4.6558800000    -4.8595350000
   15      H      -0.0075560000     3.4804800000    -5.4966350000
   16      H       1.7308440000     3.0254800000    -5.4857350000
   17      C      -0.2692560000    -2.3910200000     0.9735650000
   18      H      -0.2618560000    -2.3990200000     2.0534650000
   19      H      -1.1099560000    -3.0689200000     0.9738650000
   20      H       0.6711440000    -2.9221200000     0.9668650000
   21      H       0.6094440000     2.3302800000     2.2800650000
 ----------------------------------------------------------------

   11   -1389.2660938439      4.76e-07  Convergence criterion met
 Total energy in the final basis set =    -1389.2660938439
        RIMP2         total energy =     -1391.7721504578 a.u.

                    Orbital Energies (a.u.)
 --------------------------------------------------------------

 Alpha MOs
 -- Occupied --
-92.0083 -91.9926 -26.3405 -20.6134 -20.5594 -11.4073 -11.3786 -11.3015
-11.2941 -11.2902 -11.2880 -11.2862 -11.2787 -11.2247  -9.0071  -8.9927
 -6.6879  -6.6873  -6.6868  -6.6738  -6.6730  -6.6719  -1.6578  -1.4657
 -1.3683  -1.2127  -1.1373  -1.0647  -1.0201  -0.9947  -0.9588  -0.9120
 -0.8640  -0.8070  -0.7885  -0.7580  -0.7314  -0.7227  -0.6914  -0.6831
 -0.6726  -0.6606  -0.6067  -0.6032  -0.5919  -0.5766  -0.5660  -0.5571
 -0.5391  -0.5299  -0.5076  -0.4791  -0.4736  -0.4712  -0.4662  -0.4590
 -0.3920  -0.3450  -0.2921

          Ground-State Mulliken Net Atomic Charges

     Atom                 Charge (a.u.)
  ----------------------------------------
      1 C                     0.025529
      2 S                     0.077043
      3 C                    -0.208921
      4 C                    -0.015749
      5 C                    -0.087227
      6 S                    -0.001313
      7 C                    -0.157255
      8 C                     0.391008
      9 F                    -0.208641
     10 C                     0.445246
     11 O                    -0.462380
     12 O                    -0.300937
     13 C                    -0.058494
     14 H                     0.120989
     15 H                     0.094763
     16 H                     0.094664
     17 C                    -0.363280
     18 H                     0.110329
     19 H                     0.152521
     20 H                     0.137339
     21 H                     0.214766
  ----------------------------------------
  Sum of atomic charges =     0.000000

                    Cartesian Multipole Moments
 -----------------------------------------------------------------
    Charge (ESU x 10^10)
                -0.0000
    Dipole Moment (Debye)
         X       0.6288      Y       0.7151      Z       3.8088
       Tot       3.9260
    Quadrupole Moments (Debye-Ang)
        XX     -95.5638     XY       2.9099     YY     -82.2871
        XZ      -2.2137     YZ     -10.9859     ZZ     -95.4115

 Total job time:  57.68s(wall), 1887.17s(cpu)
        *  Thank you very much for using Q-Chem.  Have a nice day.  *
