 Q-Chem 5.4, Q-Chem, Inc., Pleasanton, CA (2021)
 Q-Chem 5.4.0 for Intel X86 EM64T Linux

User input:
--------------------------------------------------------------
$molecule
0 1
C	-0.518143	-0.851940	0.974537
S	-0.065343	-0.068640	2.482037
C	0.720257	1.293660	1.693437
C	-0.065243	-0.069040	-0.093363
C	0.627757	1.136060	0.288137
S	-0.184543	-0.281440	-1.830963
C	0.686457	1.238360	-2.079963
C	1.038457	1.852960	-0.888063
F	1.702657	3.012960	-0.844563
C	0.912157	1.625360	-3.481563
O	0.534057	0.954660	-4.431963
O	1.580857	2.798760	-3.594663
C	1.832957	3.224860	-4.941663
H	2.377457	4.181860	-4.858563
H	0.882857	3.365460	-5.495663
H	2.444257	2.476060	-5.484763
C	-0.518143	-2.287140	0.974537
H	-1.449643	-2.295140	1.520937
H	-0.938743	-2.965040	0.246637
H	-0.042243	-2.818240	1.785537
H	1.181157	2.094760	2.281037
$end

$rem
JOBTYPE		SP
EXCHANGE	HF
CORRELATION	pRIMP2
BASIS		cc-pvtz
METHOD		rimp2
AUX_BASIS	rimp2-cc-pvtz
SOLVENT_METHOD	PCM
PURECART	11111
SYMMETRY	false
MEM_TOTAL	110000
SCF_CONVERGENCE = 6
THRESH=10
GUI = 2
$end

$solvent
dielectric 4.90
$end
--------------------------------------------------------------

             Standard Nuclear Orientation (Angstroms)
    I     Atom           X                Y                Z
 ----------------------------------------------------------------
    1      C      -0.5181430000    -0.8519400000     0.9745370000
    2      S      -0.0653430000    -0.0686400000     2.4820370000
    3      C       0.7202570000     1.2936600000     1.6934370000
    4      C      -0.0652430000    -0.0690400000    -0.0933630000
    5      C       0.6277570000     1.1360600000     0.2881370000
    6      S      -0.1845430000    -0.2814400000    -1.8309630000
    7      C       0.6864570000     1.2383600000    -2.0799630000
    8      C       1.0384570000     1.8529600000    -0.8880630000
    9      F       1.7026570000     3.0129600000    -0.8445630000
   10      C       0.9121570000     1.6253600000    -3.4815630000
   11      O       0.5340570000     0.9546600000    -4.4319630000
   12      O       1.5808570000     2.7987600000    -3.5946630000
   13      C       1.8329570000     3.2248600000    -4.9416630000
   14      H       2.3774570000     4.1818600000    -4.8585630000
   15      H       0.8828570000     3.3654600000    -5.4956630000
   16      H       2.4442570000     2.4760600000    -5.4847630000
   17      C      -0.5181430000    -2.2871400000     0.9745370000
   18      H      -1.4496430000    -2.2951400000     1.5209370000
   19      H      -0.9387430000    -2.9650400000     0.2466370000
   20      H      -0.0422430000    -2.8182400000     1.7855370000
   21      H       1.1811570000     2.0947600000     2.2810370000
 ----------------------------------------------------------------

   11   -1389.2504926152      4.70e-07  Convergence criterion met
 Total energy in the final basis set =    -1389.2504926152
        RIMP2         total energy =     -1391.7591291132 a.u.

                    Orbital Energies (a.u.)
 --------------------------------------------------------------

 Alpha MOs
 -- Occupied --
-92.0060 -91.9927 -26.3403 -20.6134 -20.5594 -11.4073 -11.3785 -11.3016
-11.2940 -11.2891 -11.2880 -11.2856 -11.2785 -11.2233  -9.0051  -8.9928
 -6.6859  -6.6852  -6.6848  -6.6738  -6.6731  -6.6720  -1.6576  -1.4657
 -1.3683  -1.2129  -1.1372  -1.0650  -1.0193  -0.9941  -0.9584  -0.9120
 -0.8636  -0.8061  -0.7883  -0.7582  -0.7305  -0.7225  -0.6920  -0.6831
 -0.6726  -0.6598  -0.6115  -0.5956  -0.5885  -0.5812  -0.5632  -0.5589
 -0.5312  -0.5265  -0.5100  -0.4929  -0.4721  -0.4715  -0.4709  -0.4582
 -0.3827  -0.3449  -0.2841

          Ground-State Mulliken Net Atomic Charges

     Atom                 Charge (a.u.)
  ----------------------------------------
      1 C                    -0.031204
      2 S                     0.078171
      3 C                    -0.201405
      4 C                     0.015167
      5 C                    -0.094649
      6 S                    -0.000472
      7 C                    -0.157453
      8 C                     0.390520
      9 F                    -0.208754
     10 C                     0.446642
     11 O                    -0.462464
     12 O                    -0.300993
     13 C                    -0.058511
     14 H                     0.121046
     15 H                     0.094727
     16 H                     0.094684
     17 C                    -0.381926
     18 H                     0.133614
     19 H                     0.162546
     20 H                     0.146513
     21 H                     0.214200
  ----------------------------------------
  Sum of atomic charges =     0.000000

                    Cartesian Multipole Moments
 -----------------------------------------------------------------
    Charge (ESU x 10^10)
                -0.0000
    Dipole Moment (Debye)
         X       0.6004      Y       0.4054      Z       3.5020
       Tot       3.5762
    Quadrupole Moments (Debye-Ang)
        XX     -93.7273     XY       6.5198     YY     -84.3069
        XZ      -4.4082     YZ      -9.3287     ZZ     -95.6378

 Total job time:  70.05s(wall), 2029.44s(cpu)
        *  Thank you very much for using Q-Chem.  Have a nice day.  *
