 Q-Chem 5.4, Q-Chem, Inc., Pleasanton, CA (2021)
 Q-Chem 5.4.0 for Intel X86 EM64T Linux

User input:
--------------------------------------------------------------
$molecule
0 1
C	-0.667320	-0.747937	0.977832
S	-0.085420	-0.055137	2.485332
C	0.924880	1.149963	1.696732
C	-0.085420	-0.055537	-0.090068
C	0.806380	1.010863	0.291432
S	-0.239720	-0.244037	-1.827668
C	0.881980	1.101463	-2.076668
C	1.335380	1.645563	-0.884768
F	2.190880	2.672563	-0.841268
C	1.171380	1.443363	-3.478268
O	0.682680	0.848563	-4.428668
O	2.033780	2.482763	-3.591368
C	2.355980	2.858663	-4.938368
H	3.058380	3.706563	-4.855268
H	1.444780	3.162063	-5.492368
H	2.827980	2.015063	-5.481468
C	-0.667320	-2.183137	0.977832
H	-1.213720	-2.191137	0.046332
H	0.060580	-2.861037	0.557232
H	-1.478320	-2.714237	1.453732
H	1.517880	1.858863	2.284332
$end

$rem
JOBTYPE		SP
EXCHANGE	HF
CORRELATION	pRIMP2
BASIS		cc-pvtz
METHOD		rimp2
AUX_BASIS	rimp2-cc-pvtz
SOLVENT_METHOD	PCM
PURECART	11111
SYMMETRY	false
MEM_TOTAL	110000
SCF_CONVERGENCE = 6
THRESH=10
GUI = 2
$end

$solvent
dielectric 4.90
$end
--------------------------------------------------------------

             Standard Nuclear Orientation (Angstroms)
    I     Atom           X                Y                Z
 ----------------------------------------------------------------
    1      C      -0.6673200000    -0.7479370000     0.9778320000
    2      S      -0.0854200000    -0.0551370000     2.4853320000
    3      C       0.9248800000     1.1499630000     1.6967320000
    4      C      -0.0854200000    -0.0555370000    -0.0900680000
    5      C       0.8063800000     1.0108630000     0.2914320000
    6      S      -0.2397200000    -0.2440370000    -1.8276680000
    7      C       0.8819800000     1.1014630000    -2.0766680000
    8      C       1.3353800000     1.6455630000    -0.8847680000
    9      F       2.1908800000     2.6725630000    -0.8412680000
   10      C       1.1713800000     1.4433630000    -3.4782680000
   11      O       0.6826800000     0.8485630000    -4.4286680000
   12      O       2.0337800000     2.4827630000    -3.5913680000
   13      C       2.3559800000     2.8586630000    -4.9383680000
   14      H       3.0583800000     3.7065630000    -4.8552680000
   15      H       1.4447800000     3.1620630000    -5.4923680000
   16      H       2.8279800000     2.0150630000    -5.4814680000
   17      C      -0.6673200000    -2.1831370000     0.9778320000
   18      H      -1.2137200000    -2.1911370000     0.0463320000
   19      H       0.0605800000    -2.8610370000     0.5572320000
   20      H      -1.4783200000    -2.7142370000     1.4537320000
   21      H       1.5178800000     1.8588630000     2.2843320000
 ----------------------------------------------------------------

   11   -1389.2421918114      4.76e-07  Convergence criterion met
 Total energy in the final basis set =    -1389.2421918114
        RIMP2         total energy =     -1391.7540327986 a.u.

                    Orbital Energies (a.u.)
 --------------------------------------------------------------

 Alpha MOs
 -- Occupied --
-92.0002 -91.9986 -26.3425 -20.6140 -20.5601 -11.4083 -11.3816 -11.3111
-11.2983 -11.2948 -11.2885 -11.2803 -11.2771 -11.2202  -8.9998  -8.9985
 -6.6806  -6.6797  -6.6795  -6.6794  -6.6788  -6.6778  -1.6596  -1.4664
 -1.3691  -1.2171  -1.1376  -1.0681  -1.0200  -0.9928  -0.9591  -0.9119
 -0.8647  -0.8071  -0.7902  -0.7600  -0.7306  -0.7244  -0.6958  -0.6839
 -0.6733  -0.6615  -0.6103  -0.6000  -0.5924  -0.5800  -0.5632  -0.5576
 -0.5324  -0.5295  -0.5085  -0.4904  -0.4751  -0.4723  -0.4689  -0.4418
 -0.3874  -0.3450  -0.2934

          Ground-State Mulliken Net Atomic Charges

     Atom                 Charge (a.u.)
  ----------------------------------------
      1 C                    -0.041056
      2 S                     0.083072
      3 C                    -0.176775
      4 C                     0.004539
      5 C                    -0.098897
      6 S                     0.016024
      7 C                    -0.157890
      8 C                     0.391982
      9 F                    -0.206717
     10 C                     0.447216
     11 O                    -0.463252
     12 O                    -0.301333
     13 C                    -0.058418
     14 H                     0.121170
     15 H                     0.094929
     16 H                     0.094706
     17 C                    -0.364617
     18 H                     0.112125
     19 H                     0.153834
     20 H                     0.136173
     21 H                     0.213183
  ----------------------------------------
  Sum of atomic charges =     0.000000

                    Cartesian Multipole Moments
 -----------------------------------------------------------------
    Charge (ESU x 10^10)
                -0.0000
    Dipole Moment (Debye)
         X       1.5492      Y       0.7646      Z       2.4312
       Tot       2.9825
    Quadrupole Moments (Debye-Ang)
        XX     -91.9774     XY       6.3648     YY     -86.8453
        XZ      -4.9894     YZ      -5.9367     ZZ     -97.4293

 Total job time:  57.28s(wall), 1947.16s(cpu)
        *  Thank you very much for using Q-Chem.  Have a nice day.  *
