 Q-Chem 5.4, Q-Chem, Inc., Pleasanton, CA (2021)
 Q-Chem 5.4.0 for Intel X86 EM64T Linux

User input:
--------------------------------------------------------------
$molecule
0 1
C	-0.441437	-0.893839	0.977293
S	-0.058637	-0.074039	2.484793
C	0.605263	1.351461	1.696193
C	-0.058537	-0.074439	-0.090607
C	0.526863	1.186461	0.290893
S	-0.158837	-0.296439	-1.828207
C	0.576363	1.293461	-2.077207
C	0.873563	1.936461	-0.885307
F	1.434063	3.149961	-0.841807
C	0.767463	1.698761	-3.478807
O	0.449363	0.997661	-4.429207
O	1.331463	2.925861	-3.591907
C	1.545463	3.372361	-4.938907
H	2.004363	4.373161	-4.855807
H	0.586663	3.429561	-5.492907
H	2.219663	2.679661	-5.482007
C	-0.441437	-2.329039	0.977293
H	0.490063	-2.337039	0.430893
H	-0.020837	-3.006939	1.705193
H	-0.917337	-2.860139	0.166293
H	0.994563	2.189761	2.283793
$end

$rem
JOBTYPE		SP
EXCHANGE	HF
CORRELATION	pRIMP2
BASIS		cc-pvtz
METHOD		rimp2
AUX_BASIS	rimp2-cc-pvtz
SOLVENT_METHOD	PCM
PURECART	11111
SYMMETRY	false
MEM_TOTAL	110000
SCF_CONVERGENCE = 6
THRESH=10
GUI = 2
$end

$solvent
dielectric 4.90
$end
--------------------------------------------------------------

             Standard Nuclear Orientation (Angstroms)
    I     Atom           X                Y                Z
 ----------------------------------------------------------------
    1      C      -0.4414370000    -0.8938390000     0.9772930000
    2      S      -0.0586370000    -0.0740390000     2.4847930000
    3      C       0.6052630000     1.3514610000     1.6961930000
    4      C      -0.0585370000    -0.0744390000    -0.0906070000
    5      C       0.5268630000     1.1864610000     0.2908930000
    6      S      -0.1588370000    -0.2964390000    -1.8282070000
    7      C       0.5763630000     1.2934610000    -2.0772070000
    8      C       0.8735630000     1.9364610000    -0.8853070000
    9      F       1.4340630000     3.1499610000    -0.8418070000
   10      C       0.7674630000     1.6987610000    -3.4788070000
   11      O       0.4493630000     0.9976610000    -4.4292070000
   12      O       1.3314630000     2.9258610000    -3.5919070000
   13      C       1.5454630000     3.3723610000    -4.9389070000
   14      H       2.0043630000     4.3731610000    -4.8558070000
   15      H       0.5866630000     3.4295610000    -5.4929070000
   16      H       2.2196630000     2.6796610000    -5.4820070000
   17      C      -0.4414370000    -2.3290390000     0.9772930000
   18      H       0.4900630000    -2.3370390000     0.4308930000
   19      H      -0.0208370000    -3.0069390000     1.7051930000
   20      H      -0.9173370000    -2.8601390000     0.1662930000
   21      H       0.9945630000     2.1897610000     2.2837930000
 ----------------------------------------------------------------

   11   -1389.2605185819      5.02e-07  Convergence criterion met
 Total energy in the final basis set =    -1389.2605185819
        RIMP2         total energy =     -1391.7685079736 a.u.

                    Orbital Energies (a.u.)
 --------------------------------------------------------------

 Alpha MOs
 -- Occupied --
-92.0062 -91.9934 -26.3407 -20.6137 -20.5597 -11.4077 -11.3788 -11.2982
-11.2950 -11.2947 -11.2882 -11.2829 -11.2792 -11.2282  -9.0050  -8.9934
 -6.6858  -6.6852  -6.6847  -6.6745  -6.6738  -6.6727  -1.6579  -1.4660
 -1.3686  -1.2134  -1.1375  -1.0679  -1.0185  -0.9942  -0.9582  -0.9116
 -0.8634  -0.8048  -0.7887  -0.7589  -0.7302  -0.7228  -0.6933  -0.6834
 -0.6728  -0.6603  -0.6106  -0.5959  -0.5925  -0.5855  -0.5628  -0.5606
 -0.5308  -0.5276  -0.5088  -0.4965  -0.4727  -0.4715  -0.4685  -0.4623
 -0.3834  -0.3441  -0.2840

          Ground-State Mulliken Net Atomic Charges

     Atom                 Charge (a.u.)
  ----------------------------------------
      1 C                     0.026001
      2 S                     0.084129
      3 C                    -0.223488
      4 C                    -0.028204
      5 C                    -0.084661
      6 S                    -0.007011
      7 C                    -0.154355
      8 C                     0.387648
      9 F                    -0.208193
     10 C                     0.447384
     11 O                    -0.462279
     12 O                    -0.300912
     13 C                    -0.058496
     14 H                     0.121157
     15 H                     0.094845
     16 H                     0.094641
     17 C                    -0.390991
     18 H                     0.140368
     19 H                     0.166815
     20 H                     0.143824
     21 H                     0.211780
  ----------------------------------------
  Sum of atomic charges =     0.000000

                    Cartesian Multipole Moments
 -----------------------------------------------------------------
    Charge (ESU x 10^10)
                -0.0000
    Dipole Moment (Debye)
         X       1.4418      Y       0.1316      Z       2.8877
       Tot       3.2303
    Quadrupole Moments (Debye-Ang)
        XX     -95.5431     XY       2.9576     YY     -83.1273
        XZ      -2.6474     YZ      -8.9504     ZZ     -96.9211

 Total job time:  65.68s(wall), 2020.54s(cpu)
        *  Thank you very much for using Q-Chem.  Have a nice day.  *
