 Q-Chem 5.4, Q-Chem, Inc., Pleasanton, CA (2021)
 Q-Chem 5.4.0 for Intel X86 EM64T Linux

User input:
--------------------------------------------------------------
$molecule
0 1
C	-0.437602	-0.893839	0.974537
S	-0.054802	-0.074039	2.482037
C	0.609098	1.351461	1.693437
C	-0.054702	-0.074439	-0.093363
C	0.530698	1.186461	0.288137
S	-0.155002	-0.296439	-1.830963
C	0.580198	1.293461	-2.079963
C	0.877398	1.936461	-0.888063
F	1.437898	3.149961	-0.844563
C	0.771298	1.698761	-3.481563
O	0.453198	0.997661	-4.431963
O	1.335298	2.925861	-3.594663
C	1.549298	3.372361	-4.941663
H	2.008198	4.373161	-4.858563
H	0.590498	3.429561	-5.495663
H	2.223498	2.679661	-5.484763
C	-0.437602	-2.329039	0.974537
H	-1.369102	-2.337039	1.520937
H	-0.858202	-3.006939	0.246637
H	0.038298	-2.860139	1.785537
H	0.998398	2.189761	2.281037
$end

$rem
JOBTYPE		SP
EXCHANGE	HF
CORRELATION	pRIMP2
BASIS		cc-pvtz
METHOD		rimp2
AUX_BASIS	rimp2-cc-pvtz
SOLVENT_METHOD	PCM
PURECART	11111
SYMMETRY	false
MEM_TOTAL	110000
SCF_CONVERGENCE = 6
THRESH=10
GUI = 2
$end

$solvent
dielectric 4.90
$end
--------------------------------------------------------------

             Standard Nuclear Orientation (Angstroms)
    I     Atom           X                Y                Z
 ----------------------------------------------------------------
    1      C      -0.4376020000    -0.8938390000     0.9745370000
    2      S      -0.0548020000    -0.0740390000     2.4820370000
    3      C       0.6090980000     1.3514610000     1.6934370000
    4      C      -0.0547020000    -0.0744390000    -0.0933630000
    5      C       0.5306980000     1.1864610000     0.2881370000
    6      S      -0.1550020000    -0.2964390000    -1.8309630000
    7      C       0.5801980000     1.2934610000    -2.0799630000
    8      C       0.8773980000     1.9364610000    -0.8880630000
    9      F       1.4378980000     3.1499610000    -0.8445630000
   10      C       0.7712980000     1.6987610000    -3.4815630000
   11      O       0.4531980000     0.9976610000    -4.4319630000
   12      O       1.3352980000     2.9258610000    -3.5946630000
   13      C       1.5492980000     3.3723610000    -4.9416630000
   14      H       2.0081980000     4.3731610000    -4.8585630000
   15      H       0.5904980000     3.4295610000    -5.4956630000
   16      H       2.2234980000     2.6796610000    -5.4847630000
   17      C      -0.4376020000    -2.3290390000     0.9745370000
   18      H      -1.3691020000    -2.3370390000     1.5209370000
   19      H      -0.8582020000    -3.0069390000     0.2466370000
   20      H       0.0382980000    -2.8601390000     1.7855370000
   21      H       0.9983980000     2.1897610000     2.2810370000
 ----------------------------------------------------------------

   11   -1389.2567202675      4.81e-07  Convergence criterion met
 Total energy in the final basis set =    -1389.2567202675
        RIMP2         total energy =     -1391.7639687221 a.u.

                    Orbital Energies (a.u.)
 --------------------------------------------------------------

 Alpha MOs
 -- Occupied --
-92.0063 -91.9918 -26.3401 -20.6133 -20.5594 -11.4072 -11.3781 -11.2993
-11.2940 -11.2924 -11.2880 -11.2840 -11.2783 -11.2250  -9.0053  -8.9919
 -6.6861  -6.6855  -6.6850  -6.6729  -6.6722  -6.6711  -1.6574  -1.4657
 -1.3683  -1.2123  -1.1369  -1.0651  -1.0190  -0.9946  -0.9582  -0.9124
 -0.8633  -0.8056  -0.7881  -0.7581  -0.7305  -0.7223  -0.6918  -0.6830
 -0.6725  -0.6598  -0.6116  -0.5955  -0.5886  -0.5816  -0.5632  -0.5583
 -0.5315  -0.5273  -0.5107  -0.4936  -0.4720  -0.4714  -0.4708  -0.4588
 -0.3835  -0.3450  -0.2835

          Ground-State Mulliken Net Atomic Charges

     Atom                 Charge (a.u.)
  ----------------------------------------
      1 C                    -0.017100
      2 S                     0.076261
      3 C                    -0.206493
      4 C                     0.009842
      5 C                    -0.096178
      6 S                    -0.004488
      7 C                    -0.157493
      8 C                     0.390427
      9 F                    -0.208948
     10 C                     0.446560
     11 O                    -0.462299
     12 O                    -0.300924
     13 C                    -0.058552
     14 H                     0.121040
     15 H                     0.094722
     16 H                     0.094687
     17 C                    -0.381099
     18 H                     0.134524
     19 H                     0.164597
     20 H                     0.146849
     21 H                     0.214063
  ----------------------------------------
  Sum of atomic charges =     0.000000

                    Cartesian Multipole Moments
 -----------------------------------------------------------------
    Charge (ESU x 10^10)
                -0.0000
    Dipole Moment (Debye)
         X       0.3457      Y       0.3354      Z       3.5477
       Tot       3.5803
    Quadrupole Moments (Debye-Ang)
        XX     -94.5026     XY       6.0149     YY     -83.2420
        XZ      -3.8647     YZ      -9.9252     ZZ     -95.6985

 Total job time:  82.23s(wall), 3399.93s(cpu)
        *  Thank you very much for using Q-Chem.  Have a nice day.  *
