 Q-Chem 5.4, Q-Chem, Inc., Pleasanton, CA (2021)
 Q-Chem 5.4.0 for Intel X86 EM64T Linux

User input:
--------------------------------------------------------------
$molecule
0 1
C	-0.796435	-0.619704	0.973626
S	-0.103035	-0.038504	2.481126
C	1.101065	0.972896	1.692526
C	-0.103135	-0.038904	-0.094274
C	0.960365	0.856396	0.287226
S	-0.287835	-0.197704	-1.831874
C	1.050465	0.932496	-2.080874
C	1.591465	1.389696	-0.888974
F	2.612265	2.252596	-0.845474
C	1.394865	1.219096	-3.482474
O	0.810265	0.718096	-4.432874
O	2.424665	2.092896	-3.595574
C	2.807265	2.407096	-4.942574
H	3.646165	3.120196	-4.859474
H	1.962565	2.864196	-5.496574
H	3.125565	1.494396	-5.485674
C	-0.796435	-2.054904	0.973626
H	-1.158835	-2.062904	1.991026
H	-1.586535	-2.732804	0.686326
H	0.089465	-2.586004	1.289026
H	1.808265	1.568096	2.280126
$end

$rem
JOBTYPE		SP
EXCHANGE	HF
CORRELATION	pRIMP2
BASIS		cc-pvtz
METHOD		rimp2
AUX_BASIS	rimp2-cc-pvtz
SOLVENT_METHOD	PCM
PURECART	11111
SYMMETRY	false
MEM_TOTAL	110000
SCF_CONVERGENCE = 6
THRESH=10
GUI = 2
$end

$solvent
dielectric 4.90
$end
--------------------------------------------------------------

             Standard Nuclear Orientation (Angstroms)
    I     Atom           X                Y                Z
 ----------------------------------------------------------------
    1      C      -0.7964350000    -0.6197040000     0.9736260000
    2      S      -0.1030350000    -0.0385040000     2.4811260000
    3      C       1.1010650000     0.9728960000     1.6925260000
    4      C      -0.1031350000    -0.0389040000    -0.0942740000
    5      C       0.9603650000     0.8563960000     0.2872260000
    6      S      -0.2878350000    -0.1977040000    -1.8318740000
    7      C       1.0504650000     0.9324960000    -2.0808740000
    8      C       1.5914650000     1.3896960000    -0.8889740000
    9      F       2.6122650000     2.2525960000    -0.8454740000
   10      C       1.3948650000     1.2190960000    -3.4824740000
   11      O       0.8102650000     0.7180960000    -4.4328740000
   12      O       2.4246650000     2.0928960000    -3.5955740000
   13      C       2.8072650000     2.4070960000    -4.9425740000
   14      H       3.6461650000     3.1201960000    -4.8594740000
   15      H       1.9625650000     2.8641960000    -5.4965740000
   16      H       3.1255650000     1.4943960000    -5.4856740000
   17      C      -0.7964350000    -2.0549040000     0.9736260000
   18      H      -1.1588350000    -2.0629040000     1.9910260000
   19      H      -1.5865350000    -2.7328040000     0.6863260000
   20      H       0.0894650000    -2.5860040000     1.2890260000
   21      H       1.8082650000     1.5680960000     2.2801260000
 ----------------------------------------------------------------

   11   -1389.2225331657      5.15e-07  Convergence criterion met
 Total energy in the final basis set =    -1389.2225331657
        RIMP2         total energy =     -1391.7357649756 a.u.

                    Orbital Energies (a.u.)
 --------------------------------------------------------------

 Alpha MOs
 -- Occupied --
-92.0055 -91.9997 -26.3425 -20.6138 -20.5597 -11.4080 -11.3817 -11.3187
-11.2991 -11.2941 -11.2884 -11.2801 -11.2662 -11.2175  -9.0050  -8.9996
 -6.6857  -6.6848  -6.6845  -6.6805  -6.6798  -6.6788  -1.6598  -1.4662
 -1.3688  -1.2188  -1.1417  -1.0665  -1.0226  -0.9915  -0.9605  -0.9076
 -0.8662  -0.8105  -0.7903  -0.7592  -0.7331  -0.7245  -0.6941  -0.6836
 -0.6731  -0.6611  -0.6094  -0.6030  -0.5917  -0.5774  -0.5652  -0.5608
 -0.5304  -0.5234  -0.5100  -0.4800  -0.4735  -0.4720  -0.4642  -0.4536
 -0.3869  -0.3427  -0.2976

          Ground-State Mulliken Net Atomic Charges

     Atom                 Charge (a.u.)
  ----------------------------------------
      1 C                    -0.098167
      2 S                     0.089551
      3 C                    -0.161354
      4 C                     0.055692
      5 C                    -0.103973
      6 S                     0.027832
      7 C                    -0.159047
      8 C                     0.392088
      9 F                    -0.207059
     10 C                     0.447288
     11 O                    -0.463788
     12 O                    -0.301470
     13 C                    -0.058387
     14 H                     0.121040
     15 H                     0.094873
     16 H                     0.094758
     17 C                    -0.357124
     18 H                     0.103441
     19 H                     0.140831
     20 H                     0.126588
     21 H                     0.216386
  ----------------------------------------
  Sum of atomic charges =     0.000000

                    Cartesian Multipole Moments
 -----------------------------------------------------------------
    Charge (ESU x 10^10)
                -0.0000
    Dipole Moment (Debye)
         X       2.3717      Y       0.8062      Z       3.4243
       Tot       4.2427
    Quadrupole Moments (Debye-Ang)
        XX     -90.6385     XY       6.2340     YY     -89.3797
        XZ      -5.4076     YZ      -6.6813     ZZ     -94.9131

 Total job time:  62.45s(wall), 2205.74s(cpu)
        *  Thank you very much for using Q-Chem.  Have a nice day.  *
