 Q-Chem 5.4, Q-Chem, Inc., Pleasanton, CA (2021)
 Q-Chem 5.4.0 for Intel X86 EM64T Linux

User input:
--------------------------------------------------------------
$molecule
0 1
C	-0.530973	-0.853100	0.976149
S	-0.078173	-0.069800	2.483649
C	0.707427	1.292500	1.695049
C	-0.078073	-0.070200	-0.091751
C	0.614927	1.134900	0.289749
S	-0.197373	-0.282600	-1.829351
C	0.673627	1.237200	-2.078351
C	1.025627	1.851800	-0.886451
F	1.689827	3.011800	-0.842951
C	0.899327	1.624200	-3.479951
O	0.521227	0.953500	-4.430351
O	1.568027	2.797600	-3.593051
C	1.820127	3.223700	-4.940051
H	2.364627	4.180700	-4.856951
H	0.870027	3.364300	-5.494051
H	2.431427	2.474900	-5.483151
C	-0.281773	-2.266500	0.976149
H	0.783127	-2.086800	0.968749
H	-0.163773	-2.934100	1.816849
H	-0.196073	-2.790700	0.035749
H	1.168327	2.093600	2.282649
$end

$rem
JOBTYPE		SP
EXCHANGE	HF
CORRELATION	pRIMP2
BASIS		cc-pvtz
METHOD		rimp2
AUX_BASIS	rimp2-cc-pvtz
SOLVENT_METHOD	PCM
PURECART	11111
SYMMETRY	false
MEM_TOTAL	110000
SCF_CONVERGENCE = 6
THRESH=10
GUI = 2
$end

$solvent
dielectric 4.90
$end
--------------------------------------------------------------

             Standard Nuclear Orientation (Angstroms)
    I     Atom           X                Y                Z
 ----------------------------------------------------------------
    1      C      -0.5309730000    -0.8531000000     0.9761490000
    2      S      -0.0781730000    -0.0698000000     2.4836490000
    3      C       0.7074270000     1.2925000000     1.6950490000
    4      C      -0.0780730000    -0.0702000000    -0.0917510000
    5      C       0.6149270000     1.1349000000     0.2897490000
    6      S      -0.1973730000    -0.2826000000    -1.8293510000
    7      C       0.6736270000     1.2372000000    -2.0783510000
    8      C       1.0256270000     1.8518000000    -0.8864510000
    9      F       1.6898270000     3.0118000000    -0.8429510000
   10      C       0.8993270000     1.6242000000    -3.4799510000
   11      O       0.5212270000     0.9535000000    -4.4303510000
   12      O       1.5680270000     2.7976000000    -3.5930510000
   13      C       1.8201270000     3.2237000000    -4.9400510000
   14      H       2.3646270000     4.1807000000    -4.8569510000
   15      H       0.8700270000     3.3643000000    -5.4940510000
   16      H       2.4314270000     2.4749000000    -5.4831510000
   17      C      -0.2817730000    -2.2665000000     0.9761490000
   18      H       0.7831270000    -2.0868000000     0.9687490000
   19      H      -0.1637730000    -2.9341000000     1.8168490000
   20      H      -0.1960730000    -2.7907000000     0.0357490000
   21      H       1.1683270000     2.0936000000     2.2826490000
 ----------------------------------------------------------------

   11   -1389.2433887907      5.21e-07  Convergence criterion met
 Total energy in the final basis set =    -1389.2433887907
        RIMP2         total energy =     -1391.7543440721 a.u.

                    Orbital Energies (a.u.)
 --------------------------------------------------------------

 Alpha MOs
 -- Occupied --
-92.0036 -91.9945 -26.3412 -20.6139 -20.5600 -11.4080 -11.3794 -11.3019
-11.2950 -11.2924 -11.2884 -11.2864 -11.2804 -11.2280  -9.0031  -8.9945
 -6.6838  -6.6831  -6.6827  -6.6756  -6.6749  -6.6738  -1.6584  -1.4663
 -1.3689  -1.2163  -1.1406  -1.0684  -1.0196  -0.9926  -0.9589  -0.9091
 -0.8643  -0.8064  -0.7893  -0.7593  -0.7317  -0.7233  -0.6940  -0.6837
 -0.6730  -0.6605  -0.6127  -0.5985  -0.5947  -0.5745  -0.5635  -0.5590
 -0.5312  -0.5238  -0.5153  -0.5019  -0.4734  -0.4720  -0.4713  -0.4558
 -0.3824  -0.3459  -0.2815

          Ground-State Mulliken Net Atomic Charges

     Atom                 Charge (a.u.)
  ----------------------------------------
      1 C                     0.005048
      2 S                     0.082269
      3 C                    -0.209900
      4 C                    -0.030300
      5 C                    -0.082340
      6 S                     0.002833
      7 C                    -0.153070
      8 C                     0.389301
      9 F                    -0.208117
     10 C                     0.447393
     11 O                    -0.461962
     12 O                    -0.300971
     13 C                    -0.058403
     14 H                     0.121169
     15 H                     0.094925
     16 H                     0.094678
     17 C                    -0.380386
     18 H                     0.138005
     19 H                     0.158742
     20 H                     0.138371
     21 H                     0.212714
  ----------------------------------------
  Sum of atomic charges =     0.000000

                    Cartesian Multipole Moments
 -----------------------------------------------------------------
    Charge (ESU x 10^10)
                -0.0000
    Dipole Moment (Debye)
         X       2.0963      Y       0.4821      Z       3.0697
       Tot       3.7483
    Quadrupole Moments (Debye-Ang)
        XX     -95.1185     XY       2.9117     YY     -84.8253
        XZ      -3.1619     YZ      -8.7525     ZZ     -96.0883

 Total job time:  81.40s(wall), 2090.02s(cpu)
        *  Thank you very much for using Q-Chem.  Have a nice day.  *
