 Q-Chem 5.4, Q-Chem, Inc., Pleasanton, CA (2021)
 Q-Chem 5.4.0 for Intel X86 EM64T Linux

User input:
--------------------------------------------------------------
$molecule
0 1
C	-0.000680	-0.991205	0.973787
S	-0.000180	-0.086405	2.481287
C	-0.000980	1.486095	1.692687
C	0.000120	-0.086805	-0.094113
C	-0.002280	1.303395	0.287387
S	0.002920	-0.330305	-1.831713
C	-0.002580	1.421295	-2.080713
C	-0.005080	2.129695	-0.888813
F	-0.009880	3.466295	-0.845313
C	-0.000680	1.869395	-3.482313
O	0.007220	1.099495	-4.432713
O	-0.008180	3.219895	-3.595413
C	-0.002980	3.714995	-4.942413
H	-0.009980	4.815995	-4.859313
H	-0.896080	3.361695	-5.496413
H	0.900820	3.372095	-5.485513
C	-0.000680	-2.426405	0.973787
H	0.375720	-2.434405	1.986087
H	-0.790580	-3.104305	1.261587
H	0.880720	-2.957505	0.645887
H	-0.002380	2.410395	2.280287
$end

$rem
JOBTYPE		SP
EXCHANGE	HF
CORRELATION	pRIMP2
BASIS		cc-pvtz
METHOD		rimp2
AUX_BASIS	rimp2-cc-pvtz
SOLVENT_METHOD	PCM
PURECART	11111
SYMMETRY	false
MEM_TOTAL	110000
SCF_CONVERGENCE = 6
THRESH=10
GUI = 2
$end

$solvent
dielectric 4.90
$end
--------------------------------------------------------------

             Standard Nuclear Orientation (Angstroms)
    I     Atom           X                Y                Z
 ----------------------------------------------------------------
    1      C      -0.0006800000    -0.9912050000     0.9737870000
    2      S      -0.0001800000    -0.0864050000     2.4812870000
    3      C      -0.0009800000     1.4860950000     1.6926870000
    4      C       0.0001200000    -0.0868050000    -0.0941130000
    5      C      -0.0022800000     1.3033950000     0.2873870000
    6      S       0.0029200000    -0.3303050000    -1.8317130000
    7      C      -0.0025800000     1.4212950000    -2.0807130000
    8      C      -0.0050800000     2.1296950000    -0.8888130000
    9      F      -0.0098800000     3.4662950000    -0.8453130000
   10      C      -0.0006800000     1.8693950000    -3.4823130000
   11      O       0.0072200000     1.0994950000    -4.4327130000
   12      O      -0.0081800000     3.2198950000    -3.5954130000
   13      C      -0.0029800000     3.7149950000    -4.9424130000
   14      H      -0.0099800000     4.8159950000    -4.8593130000
   15      H      -0.8960800000     3.3616950000    -5.4964130000
   16      H       0.9008200000     3.3720950000    -5.4855130000
   17      C      -0.0006800000    -2.4264050000     0.9737870000
   18      H       0.3757200000    -2.4344050000     1.9860870000
   19      H      -0.7905800000    -3.1043050000     1.2615870000
   20      H       0.8807200000    -2.9575050000     0.6458870000
   21      H      -0.0023800000     2.4103950000     2.2802870000
 ----------------------------------------------------------------

   11   -1389.2705835794      4.84e-07  Convergence criterion met
 Total energy in the final basis set =    -1389.2705835794
        RIMP2         total energy =     -1391.7755099622 a.u.

                    Orbital Energies (a.u.)
 --------------------------------------------------------------

 Alpha MOs
 -- Occupied --
-92.0079 -91.9917 -26.3403 -20.6134 -20.5594 -11.4073 -11.3783 -11.2994
-11.2941 -11.2933 -11.2880 -11.2849 -11.2785 -11.2258  -9.0067  -8.9919
 -6.6875  -6.6869  -6.6864  -6.6729  -6.6722  -6.6711  -1.6576  -1.4657
 -1.3683  -1.2121  -1.1367  -1.0648  -1.0196  -0.9952  -0.9586  -0.9126
 -0.8637  -0.8064  -0.7883  -0.7579  -0.7313  -0.7225  -0.6912  -0.6831
 -0.6725  -0.6605  -0.6072  -0.6022  -0.5919  -0.5778  -0.5657  -0.5566
 -0.5389  -0.5298  -0.5078  -0.4819  -0.4732  -0.4710  -0.4676  -0.4595
 -0.3909  -0.3452  -0.2901

          Ground-State Mulliken Net Atomic Charges

     Atom                 Charge (a.u.)
  ----------------------------------------
      1 C                     0.032409
      2 S                     0.076166
      3 C                    -0.209604
      4 C                     0.000346
      5 C                    -0.096799
      6 S                    -0.005752
      7 C                    -0.158332
      8 C                     0.391341
      9 F                    -0.208839
     10 C                     0.445121
     11 O                    -0.462415
     12 O                    -0.300765
     13 C                    -0.058694
     14 H                     0.121047
     15 H                     0.094776
     16 H                     0.094678
     17 C                    -0.374012
     18 H                     0.113970
     19 H                     0.147234
     20 H                     0.143702
     21 H                     0.214423
  ----------------------------------------
  Sum of atomic charges =     0.000000

                    Cartesian Multipole Moments
 -----------------------------------------------------------------
    Charge (ESU x 10^10)
                -0.0000
    Dipole Moment (Debye)
         X       0.2375      Y       0.6253      Z       3.8132
       Tot       3.8714
    Quadrupole Moments (Debye-Ang)
        XX     -96.3174     XY      -0.5481     YY     -81.2419
        XZ       0.0641     YZ     -11.4860     ZZ     -95.5153

 Total job time:  57.14s(wall), 2115.83s(cpu)
        *  Thank you very much for using Q-Chem.  Have a nice day.  *
