 Q-Chem 5.4, Q-Chem, Inc., Pleasanton, CA (2021)
 Q-Chem 5.4.0 for Intel X86 EM64T Linux

User input:
--------------------------------------------------------------
$molecule
0 1
C	-0.903245	-0.471137	0.976939
S	-0.119445	-0.019137	2.484439
C	1.242055	0.767763	1.695839
C	-0.119545	-0.019537	-0.090961
C	1.083155	0.677463	0.290539
S	-0.329145	-0.143837	-1.828561
C	1.185155	0.736763	-2.077561
C	1.797255	1.093063	-0.885661
F	2.952455	1.765563	-0.842161
C	1.574055	0.959163	-3.479161
O	0.911355	0.567363	-4.429561
O	2.739955	1.640863	-3.592261
C	3.171255	1.883963	-4.939261
H	4.121355	2.440463	-4.856161
H	2.418755	2.480763	-5.493261
H	3.326255	0.929763	-5.482361
C	-0.903245	-1.906337	0.976939
H	0.109055	-1.914337	0.600539
H	-0.615445	-2.584237	1.766839
H	-1.231145	-2.437437	0.095539
H	2.041755	1.231163	2.283439
$end

$rem
JOBTYPE		SP
EXCHANGE	HF
CORRELATION	pRIMP2
BASIS		cc-pvtz
METHOD		rimp2
AUX_BASIS	rimp2-cc-pvtz
SOLVENT_METHOD	PCM
PURECART	11111
SYMMETRY	false
MEM_TOTAL	110000
SCF_CONVERGENCE = 6
THRESH=10
GUI = 2
$end

$solvent
dielectric 4.90
$end
--------------------------------------------------------------

             Standard Nuclear Orientation (Angstroms)
    I     Atom           X                Y                Z
 ----------------------------------------------------------------
    1      C      -0.9032450000    -0.4711370000     0.9769390000
    2      S      -0.1194450000    -0.0191370000     2.4844390000
    3      C       1.2420550000     0.7677630000     1.6958390000
    4      C      -0.1195450000    -0.0195370000    -0.0909610000
    5      C       1.0831550000     0.6774630000     0.2905390000
    6      S      -0.3291450000    -0.1438370000    -1.8285610000
    7      C       1.1851550000     0.7367630000    -2.0775610000
    8      C       1.7972550000     1.0930630000    -0.8856610000
    9      F       2.9524550000     1.7655630000    -0.8421610000
   10      C       1.5740550000     0.9591630000    -3.4791610000
   11      O       0.9113550000     0.5673630000    -4.4295610000
   12      O       2.7399550000     1.6408630000    -3.5922610000
   13      C       3.1712550000     1.8839630000    -4.9392610000
   14      H       4.1213550000     2.4404630000    -4.8561610000
   15      H       2.4187550000     2.4807630000    -5.4932610000
   16      H       3.3262550000     0.9297630000    -5.4823610000
   17      C      -0.9032450000    -1.9063370000     0.9769390000
   18      H       0.1090550000    -1.9143370000     0.6005390000
   19      H      -0.6154450000    -2.5842370000     1.7668390000
   20      H      -1.2311450000    -2.4374370000     0.0955390000
   21      H       2.0417550000     1.2311630000     2.2834390000
 ----------------------------------------------------------------

   11   -1389.1938657648      6.02e-07  Convergence criterion met
 Total energy in the final basis set =    -1389.1938657648
        RIMP2         total energy =     -1391.7146447257 a.u.

                    Orbital Energies (a.u.)
 --------------------------------------------------------------

 Alpha MOs
 -- Occupied --
-92.0064 -92.0038 -26.3438 -20.6145 -20.5605 -11.4090 -11.3832 -11.3205
-11.3009 -11.2955 -11.2889 -11.2832 -11.2674 -11.2193  -9.0058  -9.0035
 -6.6865  -6.6856  -6.6854  -6.6844  -6.6837  -6.6827  -1.6609  -1.4670
 -1.3696  -1.2252  -1.1460  -1.0727  -1.0227  -0.9911  -0.9610  -0.9042
 -0.8669  -0.8100  -0.7919  -0.7613  -0.7343  -0.7257  -0.6987  -0.6844
 -0.6738  -0.6627  -0.6142  -0.6013  -0.5966  -0.5728  -0.5668  -0.5622
 -0.5313  -0.5212  -0.5084  -0.4978  -0.4754  -0.4732  -0.4720  -0.4517
 -0.3794  -0.3415  -0.2878

          Ground-State Mulliken Net Atomic Charges

     Atom                 Charge (a.u.)
  ----------------------------------------
      1 C                    -0.137208
      2 S                     0.109449
      3 C                    -0.163955
      4 C                     0.086286
      5 C                    -0.123219
      6 S                     0.040386
      7 C                    -0.155589
      8 C                     0.392256
      9 F                    -0.206414
     10 C                     0.449667
     11 O                    -0.463574
     12 O                    -0.301378
     13 C                    -0.058237
     14 H                     0.121250
     15 H                     0.095102
     16 H                     0.094770
     17 C                    -0.370361
     18 H                     0.101123
     19 H                     0.151153
     20 H                     0.122714
     21 H                     0.215779
  ----------------------------------------
  Sum of atomic charges =     0.000000

                    Cartesian Multipole Moments
 -----------------------------------------------------------------
    Charge (ESU x 10^10)
                -0.0000
    Dipole Moment (Debye)
         X       3.4423      Y       0.3411      Z       2.6758
       Tot       4.3733
    Quadrupole Moments (Debye-Ang)
        XX     -90.9990     XY       4.4729     YY     -91.4246
        XZ      -4.8788     YZ      -4.5044     ZZ     -95.0703

 Total job time:  78.05s(wall), 3418.43s(cpu)
        *  Thank you very much for using Q-Chem.  Have a nice day.  *
