 Q-Chem 5.4, Q-Chem, Inc., Pleasanton, CA (2021)
 Q-Chem 5.4.0 for Intel X86 EM64T Linux

User input:
--------------------------------------------------------------
$molecule
0 1
C	-0.670850	-0.747937	0.974943
S	-0.088950	-0.055137	2.482443
C	0.921350	1.149963	1.693843
C	-0.088950	-0.055537	-0.092957
C	0.802850	1.010863	0.288543
S	-0.243250	-0.244037	-1.830557
C	0.878450	1.101463	-2.079557
C	1.331850	1.645563	-0.887657
F	2.187350	2.672563	-0.844157
C	1.167850	1.443363	-3.481157
O	0.679150	0.848563	-4.431557
O	2.030250	2.482763	-3.594257
C	2.352450	2.858663	-4.941257
H	3.054850	3.706563	-4.858157
H	1.441250	3.162063	-5.495257
H	2.824450	2.015063	-5.484357
C	-0.670850	-2.183137	0.974943
H	0.268150	-2.191137	1.508443
H	-1.090950	-2.861037	1.703143
H	-0.206450	-2.714237	0.157243
H	1.514350	1.858863	2.281443
$end

$rem
JOBTYPE		SP
EXCHANGE	HF
CORRELATION	pRIMP2
BASIS		cc-pvtz
METHOD		rimp2
AUX_BASIS	rimp2-cc-pvtz
SOLVENT_METHOD	PCM
PURECART	11111
SYMMETRY	false
MEM_TOTAL	110000
SCF_CONVERGENCE = 6
THRESH=10
GUI = 2
$end

$solvent
dielectric 4.90
$end
--------------------------------------------------------------

             Standard Nuclear Orientation (Angstroms)
    I     Atom           X                Y                Z
 ----------------------------------------------------------------
    1      C      -0.6708500000    -0.7479370000     0.9749430000
    2      S      -0.0889500000    -0.0551370000     2.4824430000
    3      C       0.9213500000     1.1499630000     1.6938430000
    4      C      -0.0889500000    -0.0555370000    -0.0929570000
    5      C       0.8028500000     1.0108630000     0.2885430000
    6      S      -0.2432500000    -0.2440370000    -1.8305570000
    7      C       0.8784500000     1.1014630000    -2.0795570000
    8      C       1.3318500000     1.6455630000    -0.8876570000
    9      F       2.1873500000     2.6725630000    -0.8441570000
   10      C       1.1678500000     1.4433630000    -3.4811570000
   11      O       0.6791500000     0.8485630000    -4.4315570000
   12      O       2.0302500000     2.4827630000    -3.5942570000
   13      C       2.3524500000     2.8586630000    -4.9412570000
   14      H       3.0548500000     3.7065630000    -4.8581570000
   15      H       1.4412500000     3.1620630000    -5.4952570000
   16      H       2.8244500000     2.0150630000    -5.4843570000
   17      C      -0.6708500000    -2.1831370000     0.9749430000
   18      H       0.2681500000    -2.1911370000     1.5084430000
   19      H      -1.0909500000    -2.8610370000     1.7031430000
   20      H      -0.2064500000    -2.7142370000     0.1572430000
   21      H       1.5143500000     1.8588630000     2.2814430000
 ----------------------------------------------------------------

   11   -1389.2406926710      5.59e-07  Convergence criterion met
 Total energy in the final basis set =    -1389.2406926710
        RIMP2         total energy =     -1391.7507062643 a.u.

                    Orbital Energies (a.u.)
 --------------------------------------------------------------

 Alpha MOs
 -- Occupied --
-92.0006 -91.9942 -26.3415 -20.6137 -20.5599 -11.4078 -11.3801 -11.3065
-11.2946 -11.2905 -11.2883 -11.2882 -11.2798 -11.2244  -9.0007  -8.9943
 -6.6815  -6.6807  -6.6803  -6.6753  -6.6746  -6.6735  -1.6587  -1.4661
 -1.3688  -1.2166  -1.1409  -1.0675  -1.0204  -0.9923  -0.9592  -0.9087
 -0.8645  -0.8077  -0.7894  -0.7590  -0.7323  -0.7235  -0.6937  -0.6836
 -0.6729  -0.6605  -0.6121  -0.6011  -0.5939  -0.5712  -0.5640  -0.5543
 -0.5347  -0.5291  -0.5146  -0.4981  -0.4742  -0.4718  -0.4710  -0.4490
 -0.3842  -0.3469  -0.2836

          Ground-State Mulliken Net Atomic Charges

     Atom                 Charge (a.u.)
  ----------------------------------------
      1 C                     0.015140
      2 S                     0.072710
      3 C                    -0.191864
      4 C                    -0.042328
      5 C                    -0.084634
      6 S                     0.007211
      7 C                    -0.154084
      8 C                     0.388768
      9 F                    -0.207692
     10 C                     0.446456
     11 O                    -0.462249
     12 O                    -0.301162
     13 C                    -0.058469
     14 H                     0.121071
     15 H                     0.094958
     16 H                     0.094621
     17 C                    -0.379852
     18 H                     0.135133
     19 H                     0.150016
     20 H                     0.142928
     21 H                     0.213322
  ----------------------------------------
  Sum of atomic charges =     0.000000

                    Cartesian Multipole Moments
 -----------------------------------------------------------------
    Charge (ESU x 10^10)
                -0.0000
    Dipole Moment (Debye)
         X       2.2372      Y       0.3120      Z       3.3621
       Tot       4.0505
    Quadrupole Moments (Debye-Ang)
        XX     -93.5077     XY       4.5286     YY     -86.4157
        XZ      -4.8860     YZ      -8.5181     ZZ     -95.7153

 Total job time:  57.12s(wall), 1943.22s(cpu)
        *  Thank you very much for using Q-Chem.  Have a nice day.  *
