 Q-Chem 5.4, Q-Chem, Inc., Pleasanton, CA (2021)
 Q-Chem 5.4.0 for Intel X86 EM64T Linux

User input:
--------------------------------------------------------------
$molecule
0 1
C	-0.898989	-0.471137	0.974891
S	-0.115189	-0.019137	2.482391
C	1.246311	0.767763	1.693791
C	-0.115289	-0.019537	-0.093009
C	1.087411	0.677463	0.288491
S	-0.324889	-0.143837	-1.830609
C	1.189411	0.736763	-2.079609
C	1.801511	1.093063	-0.887709
F	2.956711	1.765563	-0.844209
C	1.578311	0.959163	-3.481209
O	0.915611	0.567363	-4.431609
O	2.744211	1.640863	-3.594309
C	3.175511	1.883963	-4.941309
H	4.125611	2.440463	-4.858209
H	2.423011	2.480763	-5.495309
H	3.330511	0.929763	-5.484409
C	-0.898989	-1.906337	0.974891
H	-1.911289	-1.914337	1.351291
H	-1.186789	-2.584237	0.184991
H	-0.571089	-2.437437	1.856291
H	2.046011	1.231163	2.281391
$end

$rem
JOBTYPE		SP
EXCHANGE	HF
CORRELATION	pRIMP2
BASIS		cc-pvtz
METHOD		rimp2
AUX_BASIS	rimp2-cc-pvtz
SOLVENT_METHOD	PCM
PURECART	11111
SYMMETRY	false
MEM_TOTAL	110000
SCF_CONVERGENCE = 6
THRESH=10
GUI = 2
$end

$solvent
dielectric 4.90
$end
--------------------------------------------------------------

             Standard Nuclear Orientation (Angstroms)
    I     Atom           X                Y                Z
 ----------------------------------------------------------------
    1      C      -0.8989890000    -0.4711370000     0.9748910000
    2      S      -0.1151890000    -0.0191370000     2.4823910000
    3      C       1.2463110000     0.7677630000     1.6937910000
    4      C      -0.1152890000    -0.0195370000    -0.0930090000
    5      C       1.0874110000     0.6774630000     0.2884910000
    6      S      -0.3248890000    -0.1438370000    -1.8306090000
    7      C       1.1894110000     0.7367630000    -2.0796090000
    8      C       1.8015110000     1.0930630000    -0.8877090000
    9      F       2.9567110000     1.7655630000    -0.8442090000
   10      C       1.5783110000     0.9591630000    -3.4812090000
   11      O       0.9156110000     0.5673630000    -4.4316090000
   12      O       2.7442110000     1.6408630000    -3.5943090000
   13      C       3.1755110000     1.8839630000    -4.9413090000
   14      H       4.1256110000     2.4404630000    -4.8582090000
   15      H       2.4230110000     2.4807630000    -5.4953090000
   16      H       3.3305110000     0.9297630000    -5.4844090000
   17      C      -0.8989890000    -1.9063370000     0.9748910000
   18      H      -1.9112890000    -1.9143370000     1.3512910000
   19      H      -1.1867890000    -2.5842370000     0.1849910000
   20      H      -0.5710890000    -2.4374370000     1.8562910000
   21      H       2.0460110000     1.2311630000     2.2813910000
 ----------------------------------------------------------------

   11   -1389.1892514418      6.14e-07  Convergence criterion met
 Total energy in the final basis set =    -1389.1892514418
        RIMP2         total energy =     -1391.7061866387 a.u.

                    Orbital Energies (a.u.)
 --------------------------------------------------------------

 Alpha MOs
 -- Occupied --
-92.0026 -92.0023 -26.3433 -20.6140 -20.5599 -11.4083 -11.3830 -11.3249
-11.3053 -11.2942 -11.2886 -11.2806 -11.2543 -11.2106  -9.0024  -9.0022
 -6.6833  -6.6829  -6.6826  -6.6819  -6.6818  -6.6816  -1.6605  -1.4664
 -1.3691  -1.2212  -1.1424  -1.0676  -1.0227  -0.9906  -0.9607  -0.9069
 -0.8666  -0.8108  -0.7910  -0.7601  -0.7331  -0.7251  -0.6961  -0.6839
 -0.6734  -0.6609  -0.6140  -0.5968  -0.5912  -0.5712  -0.5671  -0.5608
 -0.5315  -0.5244  -0.5071  -0.4890  -0.4753  -0.4720  -0.4715  -0.4465
 -0.3724  -0.3427  -0.2885

          Ground-State Mulliken Net Atomic Charges

     Atom                 Charge (a.u.)
  ----------------------------------------
      1 C                    -0.165979
      2 S                     0.092017
      3 C                    -0.135133
      4 C                     0.113223
      5 C                    -0.124663
      6 S                     0.038781
      7 C                    -0.160268
      8 C                     0.393235
      9 F                    -0.206693
     10 C                     0.448441
     11 O                    -0.464346
     12 O                    -0.301549
     13 C                    -0.058286
     14 H                     0.121132
     15 H                     0.094937
     16 H                     0.094710
     17 C                    -0.402703
     18 H                     0.130822
     19 H                     0.148687
     20 H                     0.126557
     21 H                     0.217079
  ----------------------------------------
  Sum of atomic charges =     0.000000

                    Cartesian Multipole Moments
 -----------------------------------------------------------------
    Charge (ESU x 10^10)
                -0.0000
    Dipole Moment (Debye)
         X       2.7205      Y       0.5279      Z       2.9710
       Tot       4.0628
    Quadrupole Moments (Debye-Ang)
        XX     -89.2535     XY       6.2491     YY     -91.6331
        XZ      -5.5575     YZ      -4.6828     ZZ     -94.8095

 Total job time:  53.27s(wall), 1925.79s(cpu)
        *  Thank you very much for using Q-Chem.  Have a nice day.  *
