 Q-Chem 5.4, Q-Chem, Inc., Pleasanton, CA (2021)
 Q-Chem 5.4.0 for Intel X86 EM64T Linux

User input:
--------------------------------------------------------------
$molecule
0 1
C	-0.522334	-0.851940	0.976554
S	-0.069534	-0.068640	2.484054
C	0.716066	1.293660	1.695454
C	-0.069434	-0.069040	-0.091346
C	0.623566	1.136060	0.290154
S	-0.188734	-0.281440	-1.828946
C	0.682266	1.238360	-2.077946
C	1.034266	1.852960	-0.886046
F	1.698466	3.012960	-0.842546
C	0.907966	1.625360	-3.479546
O	0.529866	0.954660	-4.429946
O	1.576666	2.798760	-3.592646
C	1.828766	3.224860	-4.939646
H	2.373266	4.181860	-4.856546
H	0.878666	3.365460	-5.493646
H	2.440066	2.476060	-5.482746
C	-0.522334	-2.287140	0.976554
H	0.539866	-2.295140	0.781654
H	-0.376034	-2.965040	1.804454
H	-0.692134	-2.818240	0.051654
H	1.176966	2.094760	2.283054
$end

$rem
JOBTYPE		SP
EXCHANGE	HF
CORRELATION	pRIMP2
BASIS		cc-pvtz
METHOD		rimp2
AUX_BASIS	rimp2-cc-pvtz
SOLVENT_METHOD	PCM
PURECART	11111
SYMMETRY	false
MEM_TOTAL	110000
SCF_CONVERGENCE = 6
THRESH=10
GUI = 2
$end

$solvent
dielectric 4.90
$end
--------------------------------------------------------------

             Standard Nuclear Orientation (Angstroms)
    I     Atom           X                Y                Z
 ----------------------------------------------------------------
    1      C      -0.5223340000    -0.8519400000     0.9765540000
    2      S      -0.0695340000    -0.0686400000     2.4840540000
    3      C       0.7160660000     1.2936600000     1.6954540000
    4      C      -0.0694340000    -0.0690400000    -0.0913460000
    5      C       0.6235660000     1.1360600000     0.2901540000
    6      S      -0.1887340000    -0.2814400000    -1.8289460000
    7      C       0.6822660000     1.2383600000    -2.0779460000
    8      C       1.0342660000     1.8529600000    -0.8860460000
    9      F       1.6984660000     3.0129600000    -0.8425460000
   10      C       0.9079660000     1.6253600000    -3.4795460000
   11      O       0.5298660000     0.9546600000    -4.4299460000
   12      O       1.5766660000     2.7987600000    -3.5926460000
   13      C       1.8287660000     3.2248600000    -4.9396460000
   14      H       2.3732660000     4.1818600000    -4.8565460000
   15      H       0.8786660000     3.3654600000    -5.4936460000
   16      H       2.4400660000     2.4760600000    -5.4827460000
   17      C      -0.5223340000    -2.2871400000     0.9765540000
   18      H       0.5398660000    -2.2951400000     0.7816540000
   19      H      -0.3760340000    -2.9650400000     1.8044540000
   20      H      -0.6921340000    -2.8182400000     0.0516540000
   21      H       1.1769660000     2.0947600000     2.2830540000
 ----------------------------------------------------------------

   11   -1389.2570700513      5.19e-07  Convergence criterion met
 Total energy in the final basis set =    -1389.2570700513
        RIMP2         total energy =     -1391.7652166740 a.u.

                    Orbital Energies (a.u.)
 --------------------------------------------------------------

 Alpha MOs
 -- Occupied --
-92.0053 -91.9927 -26.3405 -20.6137 -20.5598 -11.4077 -11.3785 -11.2985
-11.2956 -11.2948 -11.2882 -11.2824 -11.2795 -11.2299  -9.0043  -8.9928
 -6.6852  -6.6845  -6.6840  -6.6739  -6.6732  -6.6720  -1.6577  -1.4660
 -1.3687  -1.2139  -1.1386  -1.0679  -1.0187  -0.9938  -0.9583  -0.9108
 -0.8635  -0.8051  -0.7886  -0.7589  -0.7308  -0.7226  -0.6931  -0.6834
 -0.6728  -0.6602  -0.6119  -0.5960  -0.5943  -0.5799  -0.5621  -0.5605
 -0.5308  -0.5243  -0.5140  -0.5011  -0.4725  -0.4718  -0.4706  -0.4597
 -0.3829  -0.3451  -0.2811

          Ground-State Mulliken Net Atomic Charges

     Atom                 Charge (a.u.)
  ----------------------------------------
      1 C                     0.028627
      2 S                     0.083222
      3 C                    -0.225621
      4 C                    -0.042539
      5 C                    -0.079334
      6 S                    -0.006640
      7 C                    -0.153364
      8 C                     0.388407
      9 F                    -0.208452
     10 C                     0.447220
     11 O                    -0.461877
     12 O                    -0.300875
     13 C                    -0.058474
     14 H                     0.121147
     15 H                     0.094862
     16 H                     0.094638
     17 C                    -0.385572
     18 H                     0.146787
     19 H                     0.163979
     20 H                     0.141795
     21 H                     0.212065
  ----------------------------------------
  Sum of atomic charges =     0.000000

                    Cartesian Multipole Moments
 -----------------------------------------------------------------
    Charge (ESU x 10^10)
                -0.0000
    Dipole Moment (Debye)
         X       1.6858      Y       0.0030      Z       3.0732
       Tot       3.5052
    Quadrupole Moments (Debye-Ang)
        XX     -95.1870     XY       3.5378     YY     -83.8298
        XZ      -3.5024     YZ      -9.1229     ZZ     -96.4695

 Total job time:  62.14s(wall), 2152.01s(cpu)
        *  Thank you very much for using Q-Chem.  Have a nice day.  *
