 Q-Chem 5.4, Q-Chem, Inc., Pleasanton, CA (2021)
 Q-Chem 5.4.0 for Intel X86 EM64T Linux

User input:
--------------------------------------------------------------
$molecule
0 1
C	-0.670029	-0.747937	0.977865
S	-0.088129	-0.055137	2.485365
C	0.922171	1.149963	1.696765
C	-0.088129	-0.055537	-0.090035
C	0.803671	1.010863	0.291465
S	-0.242429	-0.244037	-1.827635
C	0.879271	1.101463	-2.076635
C	1.332671	1.645563	-0.884735
F	2.188171	2.672563	-0.841235
C	1.168671	1.443363	-3.478235
O	0.679971	0.848563	-4.428635
O	2.031071	2.482763	-3.591335
C	2.353271	2.858663	-4.938335
H	3.055671	3.706563	-4.855235
H	1.442071	3.162063	-5.492335
H	2.825271	2.015063	-5.481435
C	-0.670029	-2.183137	0.977865
H	0.018471	-2.191137	0.145765
H	-0.025829	-2.861037	1.518065
H	-1.394629	-2.714237	0.378565
H	1.515171	1.858863	2.284365
$end

$rem
JOBTYPE		SP
EXCHANGE	HF
CORRELATION	pRIMP2
BASIS		cc-pvtz
METHOD		rimp2
AUX_BASIS	rimp2-cc-pvtz
SOLVENT_METHOD	PCM
PURECART	11111
SYMMETRY	false
MEM_TOTAL	110000
SCF_CONVERGENCE = 6
THRESH=10
GUI = 2
$end

$solvent
dielectric 4.90
$end
--------------------------------------------------------------

             Standard Nuclear Orientation (Angstroms)
    I     Atom           X                Y                Z
 ----------------------------------------------------------------
    1      C      -0.6700290000    -0.7479370000     0.9778650000
    2      S      -0.0881290000    -0.0551370000     2.4853650000
    3      C       0.9221710000     1.1499630000     1.6967650000
    4      C      -0.0881290000    -0.0555370000    -0.0900350000
    5      C       0.8036710000     1.0108630000     0.2914650000
    6      S      -0.2424290000    -0.2440370000    -1.8276350000
    7      C       0.8792710000     1.1014630000    -2.0766350000
    8      C       1.3326710000     1.6455630000    -0.8847350000
    9      F       2.1881710000     2.6725630000    -0.8412350000
   10      C       1.1686710000     1.4433630000    -3.4782350000
   11      O       0.6799710000     0.8485630000    -4.4286350000
   12      O       2.0310710000     2.4827630000    -3.5913350000
   13      C       2.3532710000     2.8586630000    -4.9383350000
   14      H       3.0556710000     3.7065630000    -4.8552350000
   15      H       1.4420710000     3.1620630000    -5.4923350000
   16      H       2.8252710000     2.0150630000    -5.4814350000
   17      C      -0.6700290000    -2.1831370000     0.9778650000
   18      H       0.0184710000    -2.1911370000     0.1457650000
   19      H      -0.0258290000    -2.8610370000     1.5180650000
   20      H      -1.3946290000    -2.7142370000     0.3785650000
   21      H       1.5151710000     1.8588630000     2.2843650000
 ----------------------------------------------------------------

   11   -1389.2361986234      4.86e-07  Convergence criterion met
 Total energy in the final basis set =    -1389.2361986234
        RIMP2         total energy =     -1391.7499194283 a.u.

                    Orbital Energies (a.u.)
 --------------------------------------------------------------

 Alpha MOs
 -- Occupied --
-92.0055 -91.9983 -26.3422 -20.6140 -20.5600 -11.4082 -11.3812 -11.3057
-11.2948 -11.2914 -11.2885 -11.2837 -11.2800 -11.2203  -9.0045  -8.9983
 -6.6853  -6.6845  -6.6842  -6.6793  -6.6785  -6.6775  -1.6594  -1.4664
 -1.3690  -1.2172  -1.1391  -1.0692  -1.0200  -0.9922  -0.9591  -0.9095
 -0.8646  -0.8067  -0.7901  -0.7599  -0.7304  -0.7241  -0.6956  -0.6838
 -0.6732  -0.6610  -0.6085  -0.5995  -0.5927  -0.5856  -0.5641  -0.5611
 -0.5306  -0.5242  -0.5096  -0.4894  -0.4737  -0.4722  -0.4672  -0.4565
 -0.3830  -0.3421  -0.2910

          Ground-State Mulliken Net Atomic Charges

     Atom                 Charge (a.u.)
  ----------------------------------------
      1 C                    -0.034335
      2 S                     0.090168
      3 C                    -0.193951
      4 C                     0.004022
      5 C                    -0.090973
      6 S                     0.013410
      7 C                    -0.155650
      8 C                     0.387709
      9 F                    -0.206926
     10 C                     0.448005
     11 O                    -0.463222
     12 O                    -0.301266
     13 C                    -0.058392
     14 H                     0.121155
     15 H                     0.094947
     16 H                     0.094654
     17 C                    -0.380167
     18 H                     0.125506
     19 H                     0.161253
     20 H                     0.131434
     21 H                     0.212621
  ----------------------------------------
  Sum of atomic charges =     0.000000

                    Cartesian Multipole Moments
 -----------------------------------------------------------------
    Charge (ESU x 10^10)
                -0.0000
    Dipole Moment (Debye)
         X       2.1211      Y       0.5514      Z       2.5970
       Tot       3.3982
    Quadrupole Moments (Debye-Ang)
        XX     -93.1068     XY       4.4999     YY     -86.9473
        XZ      -3.9307     YZ      -6.5455     ZZ     -96.8755

 Total job time:  70.36s(wall), 2020.76s(cpu)
        *  Thank you very much for using Q-Chem.  Have a nice day.  *
