 Q-Chem 5.4, Q-Chem, Inc., Pleasanton, CA (2021)
 Q-Chem 5.4.0 for Intel X86 EM64T Linux

User input:
--------------------------------------------------------------
$molecule
0 1
C	-0.092708	-0.987267	0.975737
S	-0.013408	-0.085967	2.483237
C	0.122892	1.480633	1.694637
C	-0.013108	-0.086367	-0.092163
C	0.105692	1.298733	0.289337
S	-0.031508	-0.329267	-1.829763
C	0.115592	1.416233	-2.078763
C	0.174892	2.122133	-0.886863
F	0.286592	3.454033	-0.843363
C	0.156592	1.862433	-3.480363
O	0.097392	1.094833	-4.430763
O	0.266792	3.208433	-3.593463
C	0.315192	3.701233	-4.940463
H	0.404192	4.798633	-4.857363
H	-0.605308	3.427033	-5.494463
H	1.185692	3.280833	-5.483563
C	-0.092708	-2.422467	0.975737
H	0.972092	-2.430467	1.155937
H	-0.238408	-3.100367	1.803737
H	0.063992	-2.953567	0.048537
H	0.202092	2.401533	2.282237
$end

$rem
JOBTYPE		SP
EXCHANGE	HF
CORRELATION	pRIMP2
BASIS		cc-pvtz
METHOD		rimp2
AUX_BASIS	rimp2-cc-pvtz
SOLVENT_METHOD	PCM
PURECART	11111
SYMMETRY	false
MEM_TOTAL	110000
SCF_CONVERGENCE = 6
THRESH=10
GUI = 2
$end

$solvent
dielectric 4.90
$end
--------------------------------------------------------------

             Standard Nuclear Orientation (Angstroms)
    I     Atom           X                Y                Z
 ----------------------------------------------------------------
    1      C      -0.0927080000    -0.9872670000     0.9757370000
    2      S      -0.0134080000    -0.0859670000     2.4832370000
    3      C       0.1228920000     1.4806330000     1.6946370000
    4      C      -0.0131080000    -0.0863670000    -0.0921630000
    5      C       0.1056920000     1.2987330000     0.2893370000
    6      S      -0.0315080000    -0.3292670000    -1.8297630000
    7      C       0.1155920000     1.4162330000    -2.0787630000
    8      C       0.1748920000     2.1221330000    -0.8868630000
    9      F       0.2865920000     3.4540330000    -0.8433630000
   10      C       0.1565920000     1.8624330000    -3.4803630000
   11      O       0.0973920000     1.0948330000    -4.4307630000
   12      O       0.2667920000     3.2084330000    -3.5934630000
   13      C       0.3151920000     3.7012330000    -4.9404630000
   14      H       0.4041920000     4.7986330000    -4.8573630000
   15      H      -0.6053080000     3.4270330000    -5.4944630000
   16      H       1.1856920000     3.2808330000    -5.4835630000
   17      C      -0.0927080000    -2.4224670000     0.9757370000
   18      H       0.9720920000    -2.4304670000     1.1559370000
   19      H      -0.2384080000    -3.1003670000     1.8037370000
   20      H       0.0639920000    -2.9535670000     0.0485370000
   21      H       0.2020920000     2.4015330000     2.2822370000
 ----------------------------------------------------------------

   11   -1389.2734983534      5.31e-07  Convergence criterion met
 Total energy in the final basis set =    -1389.2734983534
        RIMP2         total energy =     -1391.7767916950 a.u.

                    Orbital Energies (a.u.)
 --------------------------------------------------------------

 Alpha MOs
 -- Occupied --
-92.0052 -91.9895 -26.3396 -20.6133 -20.5594 -11.4072 -11.3772 -11.3043
-11.2942 -11.2911 -11.2879 -11.2796 -11.2781 -11.2323  -9.0042  -8.9897
 -6.6850  -6.6845  -6.6839  -6.6708  -6.6701  -6.6690  -1.6569  -1.4656
 -1.3682  -1.2111  -1.1364  -1.0669  -1.0178  -0.9957  -0.9576  -0.9131
 -0.8626  -0.8042  -0.7877  -0.7581  -0.7307  -0.7218  -0.6917  -0.6830
 -0.6724  -0.6598  -0.6121  -0.5959  -0.5915  -0.5821  -0.5619  -0.5580
 -0.5313  -0.5254  -0.5190  -0.4997  -0.4720  -0.4713  -0.4698  -0.4598
 -0.3843  -0.3454  -0.2800

          Ground-State Mulliken Net Atomic Charges

     Atom                 Charge (a.u.)
  ----------------------------------------
      1 C                     0.052461
      2 S                     0.073310
      3 C                    -0.229697
      4 C                    -0.031848
      5 C                    -0.092427
      6 S                    -0.017297
      7 C                    -0.156925
      8 C                     0.389476
      9 F                    -0.209232
     10 C                     0.445496
     11 O                    -0.461922
     12 O                    -0.300656
     13 C                    -0.058720
     14 H                     0.121122
     15 H                     0.094811
     16 H                     0.094594
     17 C                    -0.389822
     18 H                     0.149609
     19 H                     0.165551
     20 H                     0.149495
     21 H                     0.212621
  ----------------------------------------
  Sum of atomic charges =     0.000000

                    Cartesian Multipole Moments
 -----------------------------------------------------------------
    Charge (ESU x 10^10)
                -0.0000
    Dipole Moment (Debye)
         X       0.8805      Y      -0.1168      Z       3.4286
       Tot       3.5418
    Quadrupole Moments (Debye-Ang)
        XX     -97.0565     XY      -0.8080     YY     -80.2812
        XZ      -0.1484     YZ     -11.3219     ZZ     -96.3150

 Total job time:  77.87s(wall), 3469.07s(cpu)
        *  Thank you very much for using Q-Chem.  Have a nice day.  *
