 Q-Chem 5.4, Q-Chem, Inc., Pleasanton, CA (2021)
 Q-Chem 5.4.0 for Intel X86 EM64T Linux

User input:
--------------------------------------------------------------
$molecule
0 1
C	-0.357266	-0.928548	0.977605
S	-0.047366	-0.078548	2.485105
C	0.489734	1.399452	1.696505
C	-0.047266	-0.078948	-0.090295
C	0.426034	1.228152	0.291205
S	-0.127866	-0.308748	-1.827895
C	0.466034	1.339152	-2.076895
C	0.706034	2.005552	-0.884995
F	1.158634	3.263252	-0.841495
C	0.621034	1.759552	-3.478495
O	0.365234	1.033352	-4.428895
O	1.075934	3.031152	-3.591595
C	1.250234	3.494552	-4.938595
H	1.620234	4.531652	-4.855495
H	0.290134	3.468052	-5.492595
H	1.982234	2.863252	-5.481695
C	-0.357266	-2.363748	0.977605
H	0.465234	-2.371748	0.277705
H	0.183334	-3.041648	1.621505
H	-0.966866	-2.894848	0.261505
H	0.804534	2.268452	2.284105
$end

$rem
JOBTYPE		SP
EXCHANGE	HF
CORRELATION	pRIMP2
BASIS		cc-pvtz
METHOD		rimp2
AUX_BASIS	rimp2-cc-pvtz
SOLVENT_METHOD	PCM
PURECART	11111
SYMMETRY	false
MEM_TOTAL	110000
SCF_CONVERGENCE = 6
THRESH=10
GUI = 2
$end

$solvent
dielectric 4.90
$end
--------------------------------------------------------------

             Standard Nuclear Orientation (Angstroms)
    I     Atom           X                Y                Z
 ----------------------------------------------------------------
    1      C      -0.3572660000    -0.9285480000     0.9776050000
    2      S      -0.0473660000    -0.0785480000     2.4851050000
    3      C       0.4897340000     1.3994520000     1.6965050000
    4      C      -0.0472660000    -0.0789480000    -0.0902950000
    5      C       0.4260340000     1.2281520000     0.2912050000
    6      S      -0.1278660000    -0.3087480000    -1.8278950000
    7      C       0.4660340000     1.3391520000    -2.0768950000
    8      C       0.7060340000     2.0055520000    -0.8849950000
    9      F       1.1586340000     3.2632520000    -0.8414950000
   10      C       0.6210340000     1.7595520000    -3.4784950000
   11      O       0.3652340000     1.0333520000    -4.4288950000
   12      O       1.0759340000     3.0311520000    -3.5915950000
   13      C       1.2502340000     3.4945520000    -4.9385950000
   14      H       1.6202340000     4.5316520000    -4.8554950000
   15      H       0.2901340000     3.4680520000    -5.4925950000
   16      H       1.9822340000     2.8632520000    -5.4816950000
   17      C      -0.3572660000    -2.3637480000     0.9776050000
   18      H       0.4652340000    -2.3717480000     0.2777050000
   19      H       0.1833340000    -3.0416480000     1.6215050000
   20      H      -0.9668660000    -2.8948480000     0.2615050000
   21      H       0.8045340000     2.2684520000     2.2841050000
 ----------------------------------------------------------------

   11   -1389.2645956751      4.93e-07  Convergence criterion met
 Total energy in the final basis set =    -1389.2645956751
        RIMP2         total energy =     -1391.7718844740 a.u.

                    Orbital Energies (a.u.)
 --------------------------------------------------------------

 Alpha MOs
 -- Occupied --
-92.0059 -91.9935 -26.3408 -20.6137 -20.5597 -11.4077 -11.3790 -11.2980
-11.2953 -11.2946 -11.2882 -11.2839 -11.2791 -11.2277  -9.0046  -8.9936
 -6.6854  -6.6848  -6.6844  -6.6746  -6.6739  -6.6728  -1.6580  -1.4660
 -1.3686  -1.2131  -1.1367  -1.0679  -1.0185  -0.9945  -0.9581  -0.9124
 -0.8633  -0.8047  -0.7888  -0.7590  -0.7301  -0.7228  -0.6935  -0.6834
 -0.6728  -0.6605  -0.6099  -0.5973  -0.5911  -0.5870  -0.5638  -0.5595
 -0.5318  -0.5294  -0.5079  -0.4931  -0.4729  -0.4715  -0.4660  -0.4632
 -0.3846  -0.3440  -0.2860

          Ground-State Mulliken Net Atomic Charges

     Atom                 Charge (a.u.)
  ----------------------------------------
      1 C                     0.031976
      2 S                     0.080872
      3 C                    -0.219826
      4 C                    -0.024165
      5 C                    -0.087673
      6 S                    -0.007699
      7 C                    -0.155396
      8 C                     0.387430
      9 F                    -0.208035
     10 C                     0.446959
     11 O                    -0.462440
     12 O                    -0.300894
     13 C                    -0.058430
     14 H                     0.121086
     15 H                     0.094813
     16 H                     0.094659
     17 C                    -0.389418
     18 H                     0.133539
     19 H                     0.166177
     20 H                     0.144651
     21 H                     0.211814
  ----------------------------------------
  Sum of atomic charges =     0.000000

                    Cartesian Multipole Moments
 -----------------------------------------------------------------
    Charge (ESU x 10^10)
                -0.0000
    Dipole Moment (Debye)
         X       1.2112      Y       0.2334      Z       2.8031
       Tot       3.0625
    Quadrupole Moments (Debye-Ang)
        XX     -95.8743     XY       2.3244     YY     -82.4054
        XZ      -1.9460     YZ      -8.9640     ZZ     -97.2262

 Total job time:  57.90s(wall), 2044.82s(cpu)
        *  Thank you very much for using Q-Chem.  Have a nice day.  *
