 Q-Chem 5.4, Q-Chem, Inc., Pleasanton, CA (2021)
 Q-Chem 5.4.0 for Intel X86 EM64T Linux

User input:
--------------------------------------------------------------
$molecule
0 1
C	-0.441808	-0.893839	0.975331
S	-0.059008	-0.074039	2.482831
C	0.604892	1.351461	1.694231
C	-0.058908	-0.074439	-0.092569
C	0.526492	1.186461	0.288931
S	-0.159208	-0.296439	-1.830169
C	0.575992	1.293461	-2.079169
C	0.873192	1.936461	-0.887269
F	1.433692	3.149961	-0.843769
C	0.767092	1.698761	-3.480769
O	0.448992	0.997661	-4.431169
O	1.331092	2.925861	-3.593869
C	1.545092	3.372361	-4.940869
H	2.003992	4.373161	-4.857769
H	0.586292	3.429561	-5.494869
H	2.219292	2.679661	-5.483969
C	-0.441808	-2.329039	0.975331
H	0.575592	-2.337039	1.337731
H	-0.729108	-3.006939	1.765431
H	-0.126408	-2.860139	0.089431
H	0.994192	2.189761	2.281831
$end

$rem
JOBTYPE		SP
EXCHANGE	HF
CORRELATION	pRIMP2
BASIS		cc-pvtz
METHOD		rimp2
AUX_BASIS	rimp2-cc-pvtz
SOLVENT_METHOD	PCM
PURECART	11111
SYMMETRY	false
MEM_TOTAL	110000
SCF_CONVERGENCE = 6
THRESH=10
GUI = 2
$end

$solvent
dielectric 4.90
$end
--------------------------------------------------------------

             Standard Nuclear Orientation (Angstroms)
    I     Atom           X                Y                Z
 ----------------------------------------------------------------
    1      C      -0.4418080000    -0.8938390000     0.9753310000
    2      S      -0.0590080000    -0.0740390000     2.4828310000
    3      C       0.6048920000     1.3514610000     1.6942310000
    4      C      -0.0589080000    -0.0744390000    -0.0925690000
    5      C       0.5264920000     1.1864610000     0.2889310000
    6      S      -0.1592080000    -0.2964390000    -1.8301690000
    7      C       0.5759920000     1.2934610000    -2.0791690000
    8      C       0.8731920000     1.9364610000    -0.8872690000
    9      F       1.4336920000     3.1499610000    -0.8437690000
   10      C       0.7670920000     1.6987610000    -3.4807690000
   11      O       0.4489920000     0.9976610000    -4.4311690000
   12      O       1.3310920000     2.9258610000    -3.5938690000
   13      C       1.5450920000     3.3723610000    -4.9408690000
   14      H       2.0039920000     4.3731610000    -4.8577690000
   15      H       0.5862920000     3.4295610000    -5.4948690000
   16      H       2.2192920000     2.6796610000    -5.4839690000
   17      C      -0.4418080000    -2.3290390000     0.9753310000
   18      H       0.5755920000    -2.3370390000     1.3377310000
   19      H      -0.7291080000    -3.0069390000     1.7654310000
   20      H      -0.1264080000    -2.8601390000     0.0894310000
   21      H       0.9941920000     2.1897610000     2.2818310000
 ----------------------------------------------------------------

   11   -1389.2626984352      5.48e-07  Convergence criterion met
 Total energy in the final basis set =    -1389.2626984352
        RIMP2         total energy =     -1391.7683886954 a.u.

                    Orbital Energies (a.u.)
 --------------------------------------------------------------

 Alpha MOs
 -- Occupied --
-92.0033 -91.9911 -26.3403 -20.6135 -20.5596 -11.4074 -11.3782 -11.2991
-11.2966 -11.2944 -11.2881 -11.2831 -11.2788 -11.2299  -9.0027  -8.9912
 -6.6835  -6.6829  -6.6824  -6.6723  -6.6716  -6.6704  -1.6575  -1.4658
 -1.3684  -1.2131  -1.1382  -1.0670  -1.0187  -0.9942  -0.9582  -0.9113
 -0.8633  -0.8054  -0.7882  -0.7584  -0.7313  -0.7224  -0.6924  -0.6832
 -0.6726  -0.6600  -0.6121  -0.5986  -0.5932  -0.5754  -0.5634  -0.5560
 -0.5331  -0.5283  -0.5165  -0.4989  -0.4727  -0.4712  -0.4706  -0.4563
 -0.3848  -0.3462  -0.2811

          Ground-State Mulliken Net Atomic Charges

     Atom                 Charge (a.u.)
  ----------------------------------------
      1 C                     0.056278
      2 S                     0.073606
      3 C                    -0.220828
      4 C                    -0.070982
      5 C                    -0.074799
      6 S                    -0.007461
      7 C                    -0.154145
      8 C                     0.388322
      9 F                    -0.208555
     10 C                     0.445985
     11 O                    -0.461803
     12 O                    -0.300924
     13 C                    -0.058519
     14 H                     0.121101
     15 H                     0.094844
     16 H                     0.094624
     17 C                    -0.380318
     18 H                     0.145853
     19 H                     0.159155
     20 H                     0.146077
     21 H                     0.212488
  ----------------------------------------
  Sum of atomic charges =     0.000000

                    Cartesian Multipole Moments
 -----------------------------------------------------------------
    Charge (ESU x 10^10)
                -0.0000
    Dipole Moment (Debye)
         X       1.5340      Y       0.0548      Z       3.4315
       Tot       3.7592
    Quadrupole Moments (Debye-Ang)
        XX     -95.6871     XY       2.9490     YY     -82.8252
        XZ      -3.2627     YZ     -10.2889     ZZ     -96.0736

 Total job time:  59.22s(wall), 2026.16s(cpu)
        *  Thank you very much for using Q-Chem.  Have a nice day.  *
