 Q-Chem 5.4, Q-Chem, Inc., Pleasanton, CA (2021)
 Q-Chem 5.4.0 for Intel X86 EM64T Linux

User input:
--------------------------------------------------------------
$molecule
0 1
C	-0.182334	-0.975447	0.974584
S	-0.024734	-0.084547	2.482084
C	0.247566	1.464253	1.693484
C	-0.024534	-0.084847	-0.093316
C	0.214566	1.284553	0.288184
S	-0.064034	-0.325247	-1.830916
C	0.234666	1.400753	-2.079916
C	0.355266	2.098753	-0.888016
F	0.582666	3.415953	-0.844516
C	0.314366	1.841653	-3.481516
O	0.188566	1.082153	-4.431916
O	0.541566	3.172953	-3.594616
C	0.632666	3.659653	-4.941616
H	0.816966	4.745153	-4.858516
H	-0.308234	3.466753	-5.495616
H	1.463166	3.165053	-5.484716
C	-0.182334	-2.410647	0.974584
H	0.649766	-2.418647	1.663084
H	-0.722534	-3.088547	1.618784
H	0.416966	-2.941747	0.249984
H	0.406666	2.374753	2.281084
$end

$rem
JOBTYPE		SP
EXCHANGE	HF
CORRELATION	pRIMP2
BASIS		cc-pvtz
METHOD		rimp2
AUX_BASIS	rimp2-cc-pvtz
SOLVENT_METHOD	PCM
PURECART	11111
SYMMETRY	false
MEM_TOTAL	110000
SCF_CONVERGENCE = 6
THRESH=10
GUI = 2
$end

$solvent
dielectric 4.90
$end
--------------------------------------------------------------

             Standard Nuclear Orientation (Angstroms)
    I     Atom           X                Y                Z
 ----------------------------------------------------------------
    1      C      -0.1823340000    -0.9754470000     0.9745840000
    2      S      -0.0247340000    -0.0845470000     2.4820840000
    3      C       0.2475660000     1.4642530000     1.6934840000
    4      C      -0.0245340000    -0.0848470000    -0.0933160000
    5      C       0.2145660000     1.2845530000     0.2881840000
    6      S      -0.0640340000    -0.3252470000    -1.8309160000
    7      C       0.2346660000     1.4007530000    -2.0799160000
    8      C       0.3552660000     2.0987530000    -0.8880160000
    9      F       0.5826660000     3.4159530000    -0.8445160000
   10      C       0.3143660000     1.8416530000    -3.4815160000
   11      O       0.1885660000     1.0821530000    -4.4319160000
   12      O       0.5415660000     3.1729530000    -3.5946160000
   13      C       0.6326660000     3.6596530000    -4.9416160000
   14      H       0.8169660000     4.7451530000    -4.8585160000
   15      H      -0.3082340000     3.4667530000    -5.4956160000
   16      H       1.4631660000     3.1650530000    -5.4847160000
   17      C      -0.1823340000    -2.4106470000     0.9745840000
   18      H       0.6497660000    -2.4186470000     1.6630840000
   19      H      -0.7225340000    -3.0885470000     1.6187840000
   20      H       0.4169660000    -2.9417470000     0.2499840000
   21      H       0.4066660000     2.3747530000     2.2810840000
 ----------------------------------------------------------------

   11   -1389.2706833747      5.25e-07  Convergence criterion met
 Total energy in the final basis set =    -1389.2706833747
        RIMP2         total energy =     -1391.7746780691 a.u.

                    Orbital Energies (a.u.)
 --------------------------------------------------------------

 Alpha MOs
 -- Occupied --
-92.0051 -91.9904 -26.3400 -20.6133 -20.5594 -11.4072 -11.3779 -11.2988
-11.2963 -11.2941 -11.2879 -11.2829 -11.2782 -11.2285  -9.0042  -8.9906
 -6.6850  -6.6845  -6.6839  -6.6716  -6.6709  -6.6698  -1.6572  -1.4656
 -1.3683  -1.2118  -1.1369  -1.0659  -1.0187  -0.9952  -0.9581  -0.9125
 -0.8631  -0.8054  -0.7880  -0.7580  -0.7311  -0.7222  -0.6915  -0.6830
 -0.6724  -0.6601  -0.6105  -0.5993  -0.5922  -0.5773  -0.5642  -0.5557
 -0.5362  -0.5295  -0.5112  -0.4936  -0.4727  -0.4708  -0.4702  -0.4574
 -0.3871  -0.3458  -0.2840

          Ground-State Mulliken Net Atomic Charges

     Atom                 Charge (a.u.)
  ----------------------------------------
      1 C                     0.049857
      2 S                     0.072850
      3 C                    -0.216739
      4 C                    -0.034394
      5 C                    -0.088420
      6 S                    -0.008832
      7 C                    -0.156868
      8 C                     0.389276
      9 F                    -0.208916
     10 C                     0.445605
     11 O                    -0.462056
     12 O                    -0.300810
     13 C                    -0.058650
     14 H                     0.121032
     15 H                     0.094780
     16 H                     0.094637
     17 C                    -0.383449
     18 H                     0.133544
     19 H                     0.157011
     20 H                     0.147126
     21 H                     0.213418
  ----------------------------------------
  Sum of atomic charges =     0.000000

                    Cartesian Multipole Moments
 -----------------------------------------------------------------
    Charge (ESU x 10^10)
                -0.0000
    Dipole Moment (Debye)
         X       0.9046      Y       0.2476      Z       3.6908
       Tot       3.8081
    Quadrupole Moments (Debye-Ang)
        XX     -96.5774     XY       0.6236     YY     -81.1089
        XZ      -1.3210     YZ     -11.4433     ZZ     -95.7937

 Total job time:  71.07s(wall), 1939.37s(cpu)
        *  Thank you very much for using Q-Chem.  Have a nice day.  *
