 Q-Chem 5.4, Q-Chem, Inc., Pleasanton, CA (2021)
 Q-Chem 5.4.0 for Intel X86 EM64T Linux

User input:
--------------------------------------------------------------
$molecule
0 1
C	-0.180206	-0.975447	0.973560
S	-0.022606	-0.084547	2.481060
C	0.249694	1.464253	1.692460
C	-0.022406	-0.084847	-0.094340
C	0.216694	1.284553	0.287160
S	-0.061906	-0.325247	-1.831940
C	0.236794	1.400753	-2.080940
C	0.357394	2.098753	-0.889040
F	0.584794	3.415953	-0.845540
C	0.316494	1.841653	-3.482540
O	0.190694	1.082153	-4.432940
O	0.543694	3.172953	-3.595640
C	0.634794	3.659653	-4.942640
H	0.819094	4.745153	-4.859540
H	-0.306106	3.466753	-5.496640
H	1.465294	3.165053	-5.485740
C	-0.180206	-2.410647	0.973560
H	-0.360406	-2.418647	2.038360
H	-1.008206	-3.088547	0.827860
H	0.746994	-2.941747	1.130260
H	0.408794	2.374753	2.280060
$end

$rem
JOBTYPE		SP
EXCHANGE	HF
CORRELATION	pRIMP2
BASIS		cc-pvtz
METHOD		rimp2
AUX_BASIS	rimp2-cc-pvtz
SOLVENT_METHOD	PCM
PURECART	11111
SYMMETRY	false
MEM_TOTAL	110000
SCF_CONVERGENCE = 6
THRESH=10
GUI = 2
$end

$solvent
dielectric 4.90
$end
--------------------------------------------------------------

             Standard Nuclear Orientation (Angstroms)
    I     Atom           X                Y                Z
 ----------------------------------------------------------------
    1      C      -0.1802060000    -0.9754470000     0.9735600000
    2      S      -0.0226060000    -0.0845470000     2.4810600000
    3      C       0.2496940000     1.4642530000     1.6924600000
    4      C      -0.0224060000    -0.0848470000    -0.0943400000
    5      C       0.2166940000     1.2845530000     0.2871600000
    6      S      -0.0619060000    -0.3252470000    -1.8319400000
    7      C       0.2367940000     1.4007530000    -2.0809400000
    8      C       0.3573940000     2.0987530000    -0.8890400000
    9      F       0.5847940000     3.4159530000    -0.8455400000
   10      C       0.3164940000     1.8416530000    -3.4825400000
   11      O       0.1906940000     1.0821530000    -4.4329400000
   12      O       0.5436940000     3.1729530000    -3.5956400000
   13      C       0.6347940000     3.6596530000    -4.9426400000
   14      H       0.8190940000     4.7451530000    -4.8595400000
   15      H      -0.3061060000     3.4667530000    -5.4966400000
   16      H       1.4652940000     3.1650530000    -5.4857400000
   17      C      -0.1802060000    -2.4106470000     0.9735600000
   18      H      -0.3604060000    -2.4186470000     2.0383600000
   19      H      -1.0082060000    -3.0885470000     0.8278600000
   20      H       0.7469940000    -2.9417470000     1.1302600000
   21      H       0.4087940000     2.3747530000     2.2800600000
 ----------------------------------------------------------------

   11   -1389.2686054712      4.77e-07  Convergence criterion met
 Total energy in the final basis set =    -1389.2686054712
        RIMP2         total energy =     -1391.7740991357 a.u.

                    Orbital Energies (a.u.)
 --------------------------------------------------------------

 Alpha MOs
 -- Occupied --
-92.0086 -91.9922 -26.3404 -20.6133 -20.5594 -11.4073 -11.3784 -11.3005
-11.2941 -11.2915 -11.2880 -11.2853 -11.2786 -11.2252  -9.0074  -8.9923
 -6.6881  -6.6876  -6.6870  -6.6733  -6.6726  -6.6715  -1.6576  -1.4657
 -1.3683  -1.2123  -1.1370  -1.0647  -1.0199  -0.9950  -0.9587  -0.9124
 -0.8638  -0.8067  -0.7884  -0.7579  -0.7313  -0.7225  -0.6913  -0.6831
 -0.6725  -0.6606  -0.6075  -0.6021  -0.5918  -0.5771  -0.5660  -0.5568
 -0.5395  -0.5299  -0.5076  -0.4794  -0.4733  -0.4712  -0.4648  -0.4619
 -0.3917  -0.3451  -0.2914

          Ground-State Mulliken Net Atomic Charges

     Atom                 Charge (a.u.)
  ----------------------------------------
      1 C                     0.025835
      2 S                     0.076918
      3 C                    -0.209555
      4 C                    -0.006144
      5 C                    -0.092956
      6 S                    -0.003678
      7 C                    -0.158373
      8 C                     0.392526
      9 F                    -0.208845
     10 C                     0.445090
     11 O                    -0.462344
     12 O                    -0.300875
     13 C                    -0.058643
     14 H                     0.121010
     15 H                     0.094759
     16 H                     0.094709
     17 C                    -0.366147
     18 H                     0.110869
     19 H                     0.156505
     20 H                     0.134678
     21 H                     0.214658
  ----------------------------------------
  Sum of atomic charges =     0.000000

                    Cartesian Multipole Moments
 -----------------------------------------------------------------
    Charge (ESU x 10^10)
                -0.0000
    Dipole Moment (Debye)
         X       0.2986      Y       0.6861      Z       3.8202
       Tot       3.8928
    Quadrupole Moments (Debye-Ang)
        XX     -95.9064     XY       2.3457     YY     -81.7324
        XZ      -1.4679     YZ     -11.2142     ZZ     -95.4490

 Total job time:  58.00s(wall), 1999.25s(cpu)
        *  Thank you very much for using Q-Chem.  Have a nice day.  *
