 Q-Chem 5.4, Q-Chem, Inc., Pleasanton, CA (2021)
 Q-Chem 5.4.0 for Intel X86 EM64T Linux

User input:
--------------------------------------------------------------
$molecule
0 1
C	-0.670971	-0.747937	0.976554
S	-0.089071	-0.055137	2.484054
C	0.921229	1.149963	1.695454
C	-0.089071	-0.055537	-0.091346
C	0.802729	1.010863	0.290154
S	-0.243371	-0.244037	-1.828946
C	0.878329	1.101463	-2.077946
C	1.331729	1.645563	-0.886046
F	2.187229	2.672563	-0.842546
C	1.167729	1.443363	-3.479546
O	0.679029	0.848563	-4.429946
O	2.030129	2.482763	-3.592646
C	2.352329	2.858663	-4.939646
H	3.054729	3.706563	-4.856546
H	1.441129	3.162063	-5.493646
H	2.824329	2.015063	-5.482746
C	-0.670971	-2.183137	0.976554
H	0.391229	-2.191137	0.781654
H	-0.524671	-2.861037	1.804454
H	-0.840771	-2.714237	0.051654
H	1.514229	1.858863	2.283054
$end

$rem
JOBTYPE		SP
EXCHANGE	HF
CORRELATION	pRIMP2
BASIS		cc-pvtz
METHOD		rimp2
AUX_BASIS	rimp2-cc-pvtz
SOLVENT_METHOD	PCM
PURECART	11111
SYMMETRY	false
MEM_TOTAL	110000
SCF_CONVERGENCE = 6
THRESH=10
GUI = 2
$end

$solvent
dielectric 4.90
$end
--------------------------------------------------------------

             Standard Nuclear Orientation (Angstroms)
    I     Atom           X                Y                Z
 ----------------------------------------------------------------
    1      C      -0.6709710000    -0.7479370000     0.9765540000
    2      S      -0.0890710000    -0.0551370000     2.4840540000
    3      C       0.9212290000     1.1499630000     1.6954540000
    4      C      -0.0890710000    -0.0555370000    -0.0913460000
    5      C       0.8027290000     1.0108630000     0.2901540000
    6      S      -0.2433710000    -0.2440370000    -1.8289460000
    7      C       0.8783290000     1.1014630000    -2.0779460000
    8      C       1.3317290000     1.6455630000    -0.8860460000
    9      F       2.1872290000     2.6725630000    -0.8425460000
   10      C       1.1677290000     1.4433630000    -3.4795460000
   11      O       0.6790290000     0.8485630000    -4.4299460000
   12      O       2.0301290000     2.4827630000    -3.5926460000
   13      C       2.3523290000     2.8586630000    -4.9396460000
   14      H       3.0547290000     3.7065630000    -4.8565460000
   15      H       1.4411290000     3.1620630000    -5.4936460000
   16      H       2.8243290000     2.0150630000    -5.4827460000
   17      C      -0.6709710000    -2.1831370000     0.9765540000
   18      H       0.3912290000    -2.1911370000     0.7816540000
   19      H      -0.5246710000    -2.8610370000     1.8044540000
   20      H      -0.8407710000    -2.7142370000     0.0516540000
   21      H       1.5142290000     1.8588630000     2.2830540000
 ----------------------------------------------------------------

   11   -1389.2422266460      5.08e-07  Convergence criterion met
 Total energy in the final basis set =    -1389.2422266460
        RIMP2         total energy =     -1391.7539260541 a.u.

                    Orbital Energies (a.u.)
 --------------------------------------------------------------

 Alpha MOs
 -- Occupied --
-92.0050 -91.9951 -26.3412 -20.6139 -20.5600 -11.4080 -11.3795 -11.3013
-11.2950 -11.2920 -11.2884 -11.2861 -11.2805 -11.2274  -9.0042  -8.9951
 -6.6849  -6.6842  -6.6838  -6.6761  -6.6754  -6.6743  -1.6585  -1.4663
 -1.3689  -1.2163  -1.1404  -1.0686  -1.0196  -0.9926  -0.9589  -0.9092
 -0.8643  -0.8062  -0.7894  -0.7594  -0.7314  -0.7233  -0.6942  -0.6837
 -0.6731  -0.6606  -0.6122  -0.5974  -0.5951  -0.5771  -0.5632  -0.5607
 -0.5309  -0.5229  -0.5123  -0.5018  -0.4731  -0.4721  -0.4713  -0.4577
 -0.3820  -0.3450  -0.2821

          Ground-State Mulliken Net Atomic Charges

     Atom                 Charge (a.u.)
  ----------------------------------------
      1 C                    -0.007063
      2 S                     0.087246
      3 C                    -0.211629
      4 C                    -0.018248
      5 C                    -0.085200
      6 S                     0.003669
      7 C                    -0.152782
      8 C                     0.389034
      9 F                    -0.208024
     10 C                     0.447820
     11 O                    -0.462123
     12 O                    -0.300993
     13 C                    -0.058451
     14 H                     0.121142
     15 H                     0.094981
     16 H                     0.094644
     17 C                    -0.383113
     18 H                     0.138211
     19 H                     0.161054
     20 H                     0.137229
     21 H                     0.212594
  ----------------------------------------
  Sum of atomic charges =     0.000000

                    Cartesian Multipole Moments
 -----------------------------------------------------------------
    Charge (ESU x 10^10)
                -0.0000
    Dipole Moment (Debye)
         X       2.1276      Y       0.1292      Z       2.9811
       Tot       3.6648
    Quadrupole Moments (Debye-Ang)
        XX     -93.7901     XY       4.4652     YY     -86.2223
        XZ      -4.4873     YZ      -7.8346     ZZ     -96.1744

 Total job time:  61.84s(wall), 2089.78s(cpu)
        *  Thank you very much for using Q-Chem.  Have a nice day.  *
