 Q-Chem 5.4, Q-Chem, Inc., Pleasanton, CA (2021)
 Q-Chem 5.4.0 for Intel X86 EM64T Linux

User input:
--------------------------------------------------------------
$molecule
0 1
C	-0.180149	-0.975447	0.978264
S	-0.022549	-0.084547	2.485764
C	0.249751	1.464253	1.697164
C	-0.022349	-0.084847	-0.089636
C	0.216751	1.284553	0.291864
S	-0.061849	-0.325247	-1.827236
C	0.236851	1.400753	-2.076236
C	0.357451	2.098753	-0.884336
F	0.584851	3.415953	-0.840836
C	0.316551	1.841653	-3.477836
O	0.190751	1.082153	-4.428236
O	0.543751	3.172953	-3.590936
C	0.634851	3.659653	-4.937936
H	0.819151	4.745153	-4.854836
H	-0.306049	3.466753	-5.491936
H	1.465351	3.165053	-5.481036
C	-0.180149	-2.410647	0.978264
H	-0.187549	-2.418647	-0.101636
H	0.660551	-3.088547	0.977964
H	-1.120549	-2.941747	0.984964
H	0.408851	2.374753	2.284764
$end

$rem
JOBTYPE		SP
EXCHANGE	HF
CORRELATION	pRIMP2
BASIS		cc-pvtz
METHOD		rimp2
AUX_BASIS	rimp2-cc-pvtz
SOLVENT_METHOD	PCM
PURECART	11111
SYMMETRY	false
MEM_TOTAL	110000
SCF_CONVERGENCE = 6
THRESH=10
GUI = 2
$end

$solvent
dielectric 4.90
$end
--------------------------------------------------------------

             Standard Nuclear Orientation (Angstroms)
    I     Atom           X                Y                Z
 ----------------------------------------------------------------
    1      C      -0.1801490000    -0.9754470000     0.9782640000
    2      S      -0.0225490000    -0.0845470000     2.4857640000
    3      C       0.2497510000     1.4642530000     1.6971640000
    4      C      -0.0223490000    -0.0848470000    -0.0896360000
    5      C       0.2167510000     1.2845530000     0.2918640000
    6      S      -0.0618490000    -0.3252470000    -1.8272360000
    7      C       0.2368510000     1.4007530000    -2.0762360000
    8      C       0.3574510000     2.0987530000    -0.8843360000
    9      F       0.5848510000     3.4159530000    -0.8408360000
   10      C       0.3165510000     1.8416530000    -3.4778360000
   11      O       0.1907510000     1.0821530000    -4.4282360000
   12      O       0.5437510000     3.1729530000    -3.5909360000
   13      C       0.6348510000     3.6596530000    -4.9379360000
   14      H       0.8191510000     4.7451530000    -4.8548360000
   15      H      -0.3060490000     3.4667530000    -5.4919360000
   16      H       1.4653510000     3.1650530000    -5.4810360000
   17      C      -0.1801490000    -2.4106470000     0.9782640000
   18      H      -0.1875490000    -2.4186470000    -0.1016360000
   19      H       0.6605510000    -3.0885470000     0.9779640000
   20      H      -1.1205490000    -2.9417470000     0.9849640000
   21      H       0.4088510000     2.3747530000     2.2847640000
 ----------------------------------------------------------------

   11   -1389.2710994487      4.57e-07  Convergence criterion met
 Total energy in the final basis set =    -1389.2710994487
        RIMP2         total energy =     -1391.7773558679 a.u.

                    Orbital Energies (a.u.)
 --------------------------------------------------------------

 Alpha MOs
 -- Occupied --
-92.0026 -91.9941 -26.3414 -20.6137 -20.5598 -11.4078 -11.3800 -11.3011
-11.2947 -11.2932 -11.2908 -11.2883 -11.2789 -11.2260  -9.0018  -8.9943
 -6.6826  -6.6819  -6.6815  -6.6753  -6.6746  -6.6735  -1.6585  -1.4661
 -1.3687  -1.2139  -1.1353  -1.0681  -1.0189  -0.9948  -0.9584  -0.9143
 -0.8636  -0.8054  -0.7892  -0.7594  -0.7301  -0.7233  -0.6947  -0.6835
 -0.6729  -0.6613  -0.6075  -0.6042  -0.5918  -0.5828  -0.5663  -0.5558
 -0.5394  -0.5302  -0.5071  -0.4871  -0.4735  -0.4718  -0.4647  -0.4506
 -0.3935  -0.3449  -0.2927

          Ground-State Mulliken Net Atomic Charges

     Atom                 Charge (a.u.)
  ----------------------------------------
      1 C                     0.035629
      2 S                     0.074032
      3 C                    -0.200145
      4 C                    -0.017056
      5 C                    -0.097881
      6 S                    -0.009192
      7 C                    -0.157765
      8 C                     0.390879
      9 F                    -0.207588
     10 C                     0.444692
     11 O                    -0.462987
     12 O                    -0.301077
     13 C                    -0.058646
     14 H                     0.121155
     15 H                     0.094801
     16 H                     0.094741
     17 C                    -0.358539
     18 H                     0.112052
     19 H                     0.150887
     20 H                     0.139069
     21 H                     0.212938
  ----------------------------------------
  Sum of atomic charges =     0.000000

                    Cartesian Multipole Moments
 -----------------------------------------------------------------
    Charge (ESU x 10^10)
                -0.0000
    Dipole Moment (Debye)
         X       0.3839      Y       0.6570      Z       2.5593
       Tot       2.6700
    Quadrupole Moments (Debye-Ang)
        XX     -95.8867     XY       1.8950     YY     -81.4882
        XZ      -1.2997     YZ      -8.1998     ZZ     -98.1306

 Total job time:  57.27s(wall), 1959.39s(cpu)
        *  Thank you very much for using Q-Chem.  Have a nice day.  *
