 Q-Chem 5.4, Q-Chem, Inc., Pleasanton, CA (2021)
 Q-Chem 5.4.0 for Intel X86 EM64T Linux

User input:
--------------------------------------------------------------
$molecule
0 1
C	-0.797195	-0.619704	0.978269
S	-0.103795	-0.038504	2.485769
C	1.100305	0.972896	1.697169
C	-0.103895	-0.038904	-0.089631
C	0.959605	0.856396	0.291869
S	-0.288595	-0.197704	-1.827231
C	1.049705	0.932496	-2.076231
C	1.590705	1.389696	-0.884331
F	2.611505	2.252596	-0.840831
C	1.394105	1.219096	-3.477831
O	0.809505	0.718096	-4.428231
O	2.423905	2.092896	-3.590931
C	2.806505	2.407096	-4.937931
H	3.645405	3.120196	-4.854831
H	1.961805	2.864196	-5.491931
H	3.124805	1.494396	-5.481031
C	-0.797195	-2.054904	0.978269
H	-0.616995	-2.062904	-0.086531
H	0.030805	-2.732804	1.123969
H	-1.724395	-2.586004	0.821569
H	1.807505	1.568096	2.284769
$end

$rem
JOBTYPE		SP
EXCHANGE	HF
CORRELATION	pRIMP2
BASIS		cc-pvtz
METHOD		rimp2
AUX_BASIS	rimp2-cc-pvtz
SOLVENT_METHOD	PCM
PURECART	11111
SYMMETRY	false
MEM_TOTAL	110000
SCF_CONVERGENCE = 6
THRESH=10
GUI = 2
$end

$solvent
dielectric 4.90
$end
--------------------------------------------------------------

             Standard Nuclear Orientation (Angstroms)
    I     Atom           X                Y                Z
 ----------------------------------------------------------------
    1      C      -0.7971950000    -0.6197040000     0.9782690000
    2      S      -0.1037950000    -0.0385040000     2.4857690000
    3      C       1.1003050000     0.9728960000     1.6971690000
    4      C      -0.1038950000    -0.0389040000    -0.0896310000
    5      C       0.9596050000     0.8563960000     0.2918690000
    6      S      -0.2885950000    -0.1977040000    -1.8272310000
    7      C       1.0497050000     0.9324960000    -2.0762310000
    8      C       1.5907050000     1.3896960000    -0.8843310000
    9      F       2.6115050000     2.2525960000    -0.8408310000
   10      C       1.3941050000     1.2190960000    -3.4778310000
   11      O       0.8095050000     0.7180960000    -4.4282310000
   12      O       2.4239050000     2.0928960000    -3.5909310000
   13      C       2.8065050000     2.4070960000    -4.9379310000
   14      H       3.6454050000     3.1201960000    -4.8548310000
   15      H       1.9618050000     2.8641960000    -5.4919310000
   16      H       3.1248050000     1.4943960000    -5.4810310000
   17      C      -0.7971950000    -2.0549040000     0.9782690000
   18      H      -0.6169950000    -2.0629040000    -0.0865310000
   19      H       0.0308050000    -2.7328040000     1.1239690000
   20      H      -1.7243950000    -2.5860040000     0.8215690000
   21      H       1.8075050000     1.5680960000     2.2847690000
 ----------------------------------------------------------------

   11   -1389.2193780598      5.26e-07  Convergence criterion met
 Total energy in the final basis set =    -1389.2193780598
        RIMP2         total energy =     -1391.7349675649 a.u.

                    Orbital Energies (a.u.)
 --------------------------------------------------------------

 Alpha MOs
 -- Occupied --
-92.0021 -92.0018 -26.3436 -20.6143 -20.5603 -11.4087 -11.3834 -11.3178
-11.3024 -11.2950 -11.2888 -11.2807 -11.2681 -11.2156  -9.0021  -9.0014
 -6.6830  -6.6823  -6.6821  -6.6813  -6.6812  -6.6810  -1.6608  -1.4667
 -1.3694  -1.2208  -1.1404  -1.0713  -1.0213  -0.9911  -0.9599  -0.9088
 -0.8657  -0.8086  -0.7913  -0.7609  -0.7314  -0.7254  -0.6979  -0.6842
 -0.6736  -0.6619  -0.6087  -0.6032  -0.5924  -0.5843  -0.5640  -0.5610
 -0.5308  -0.5213  -0.5115  -0.4880  -0.4750  -0.4727  -0.4682  -0.4365
 -0.3872  -0.3420  -0.3000

          Ground-State Mulliken Net Atomic Charges

     Atom                 Charge (a.u.)
  ----------------------------------------
      1 C                    -0.097506
      2 S                     0.089772
      3 C                    -0.160004
      4 C                     0.046508
      5 C                    -0.102072
      6 S                     0.026017
      7 C                    -0.159179
      8 C                     0.391942
      9 F                    -0.205911
     10 C                     0.448246
     11 O                    -0.464019
     12 O                    -0.301511
     13 C                    -0.058305
     14 H                     0.121201
     15 H                     0.094950
     16 H                     0.094785
     17 C                    -0.350433
     18 H                     0.107631
     19 H                     0.146472
     20 H                     0.117094
     21 H                     0.214321
  ----------------------------------------
  Sum of atomic charges =     0.000000

                    Cartesian Multipole Moments
 -----------------------------------------------------------------
    Charge (ESU x 10^10)
                -0.0000
    Dipole Moment (Debye)
         X       2.6835      Y       0.8155      Z       2.2869
       Tot       3.6189
    Quadrupole Moments (Debye-Ang)
        XX     -90.9864     XY       5.1212     YY     -89.5095
        XZ      -4.4688     YZ      -4.5337     ZZ     -97.1169

 Total job time:  61.17s(wall), 2044.52s(cpu)
        *  Thank you very much for using Q-Chem.  Have a nice day.  *
