 Q-Chem 5.4, Q-Chem, Inc., Pleasanton, CA (2021)
 Q-Chem 5.4.0 for Intel X86 EM64T Linux

User input:
--------------------------------------------------------------
$molecule
0 1
C	-0.355851	-0.928548	0.973565
S	-0.045951	-0.078548	2.481065
C	0.491149	1.399452	1.692465
C	-0.045851	-0.078948	-0.094335
C	0.427449	1.228152	0.287165
S	-0.126451	-0.308748	-1.831935
C	0.467449	1.339152	-2.080935
C	0.707449	2.005552	-0.889035
F	1.160049	3.263252	-0.845535
C	0.622449	1.759552	-3.482535
O	0.366649	1.033352	-4.432935
O	1.077349	3.031152	-3.595635
C	1.251649	3.494552	-4.942635
H	1.621649	4.531652	-4.859535
H	0.291549	3.468052	-5.496635
H	1.983649	2.863252	-5.485735
C	-0.355851	-2.363748	0.973565
H	-0.348451	-2.371748	2.053465
H	-1.196551	-3.041648	0.973865
H	0.584549	-2.894848	0.966865
H	0.805949	2.268452	2.280065
$end

$rem
JOBTYPE		SP
EXCHANGE	HF
CORRELATION	pRIMP2
BASIS		cc-pvtz
METHOD		rimp2
AUX_BASIS	rimp2-cc-pvtz
SOLVENT_METHOD	PCM
PURECART	11111
SYMMETRY	false
MEM_TOTAL	110000
SCF_CONVERGENCE = 6
THRESH=10
GUI = 2
$end

$solvent
dielectric 4.90
$end
--------------------------------------------------------------

             Standard Nuclear Orientation (Angstroms)
    I     Atom           X                Y                Z
 ----------------------------------------------------------------
    1      C      -0.3558510000    -0.9285480000     0.9735650000
    2      S      -0.0459510000    -0.0785480000     2.4810650000
    3      C       0.4911490000     1.3994520000     1.6924650000
    4      C      -0.0458510000    -0.0789480000    -0.0943350000
    5      C       0.4274490000     1.2281520000     0.2871650000
    6      S      -0.1264510000    -0.3087480000    -1.8319350000
    7      C       0.4674490000     1.3391520000    -2.0809350000
    8      C       0.7074490000     2.0055520000    -0.8890350000
    9      F       1.1600490000     3.2632520000    -0.8455350000
   10      C       0.6224490000     1.7595520000    -3.4825350000
   11      O       0.3666490000     1.0333520000    -4.4329350000
   12      O       1.0773490000     3.0311520000    -3.5956350000
   13      C       1.2516490000     3.4945520000    -4.9426350000
   14      H       1.6216490000     4.5316520000    -4.8595350000
   15      H       0.2915490000     3.4680520000    -5.4966350000
   16      H       1.9836490000     2.8632520000    -5.4857350000
   17      C      -0.3558510000    -2.3637480000     0.9735650000
   18      H      -0.3484510000    -2.3717480000     2.0534650000
   19      H      -1.1965510000    -3.0416480000     0.9738650000
   20      H       0.5845490000    -2.8948480000     0.9668650000
   21      H       0.8059490000     2.2684520000     2.2800650000
 ----------------------------------------------------------------

   11   -1389.2627006243      4.74e-07  Convergence criterion met
 Total energy in the final basis set =    -1389.2627006243
        RIMP2         total energy =     -1391.7694660632 a.u.

                    Orbital Energies (a.u.)
 --------------------------------------------------------------

 Alpha MOs
 -- Occupied --
-92.0080 -91.9931 -26.3407 -20.6134 -20.5594 -11.4074 -11.3788 -11.3027
-11.2941 -11.2887 -11.2880 -11.2869 -11.2788 -11.2240  -9.0069  -8.9932
 -6.6876  -6.6870  -6.6865  -6.6742  -6.6735  -6.6724  -1.6579  -1.4658
 -1.3683  -1.2131  -1.1377  -1.0648  -1.0203  -0.9943  -0.9589  -0.9116
 -0.8642  -0.8072  -0.7886  -0.7580  -0.7315  -0.7228  -0.6916  -0.6831
 -0.6726  -0.6606  -0.6067  -0.6034  -0.5919  -0.5765  -0.5657  -0.5575
 -0.5380  -0.5299  -0.5077  -0.4791  -0.4738  -0.4713  -0.4668  -0.4576
 -0.3918  -0.3448  -0.2925

          Ground-State Mulliken Net Atomic Charges

     Atom                 Charge (a.u.)
  ----------------------------------------
      1 C                     0.018230
      2 S                     0.077759
      3 C                    -0.206478
      4 C                    -0.019914
      5 C                    -0.083845
      6 S                     0.000934
      7 C                    -0.157032
      8 C                     0.390543
      9 F                    -0.208445
     10 C                     0.445454
     11 O                    -0.462453
     12 O                    -0.301026
     13 C                    -0.058450
     14 H                     0.120949
     15 H                     0.094776
     16 H                     0.094696
     17 C                    -0.360093
     18 H                     0.109952
     19 H                     0.151113
     20 H                     0.138572
     21 H                     0.214760
  ----------------------------------------
  Sum of atomic charges =     0.000000

                    Cartesian Multipole Moments
 -----------------------------------------------------------------
    Charge (ESU x 10^10)
                -0.0000
    Dipole Moment (Debye)
         X       0.8523      Y       0.7362      Z       3.7848
       Tot       3.9488
    Quadrupole Moments (Debye-Ang)
        XX     -95.0790     XY       3.7085     YY     -82.9850
        XZ      -2.9079     YZ     -10.6301     ZZ     -95.3708

 Total job time:  75.58s(wall), 1967.24s(cpu)
        *  Thank you very much for using Q-Chem.  Have a nice day.  *
