 Q-Chem 5.4, Q-Chem, Inc., Pleasanton, CA (2021)
 Q-Chem 5.4.0 for Intel X86 EM64T Linux

User input:
--------------------------------------------------------------
$molecule
0 1
C	-0.794866	-0.619704	0.976887
S	-0.101466	-0.038504	2.484387
C	1.102634	0.972896	1.695787
C	-0.101566	-0.038904	-0.091013
C	0.961934	0.856396	0.290487
S	-0.286266	-0.197704	-1.828613
C	1.052034	0.932496	-2.077613
C	1.593034	1.389696	-0.885713
F	2.613834	2.252596	-0.842213
C	1.396434	1.219096	-3.479213
O	0.811834	0.718096	-4.429613
O	2.426234	2.092896	-3.592313
C	2.808834	2.407096	-4.939313
H	3.647734	3.120196	-4.856213
H	1.964134	2.864196	-5.493313
H	3.127134	1.494396	-5.482413
C	-0.794866	-2.054904	0.976887
H	-1.733866	-2.062904	0.443387
H	-0.374766	-2.732804	0.248687
H	-1.259266	-2.586004	1.794587
H	1.809834	1.568096	2.283387
$end

$rem
JOBTYPE		SP
EXCHANGE	HF
CORRELATION	pRIMP2
BASIS		cc-pvtz
METHOD		rimp2
AUX_BASIS	rimp2-cc-pvtz
SOLVENT_METHOD	PCM
PURECART	11111
SYMMETRY	false
MEM_TOTAL	110000
SCF_CONVERGENCE = 6
THRESH=10
GUI = 2
$end

$solvent
dielectric 4.90
$end
--------------------------------------------------------------

             Standard Nuclear Orientation (Angstroms)
    I     Atom           X                Y                Z
 ----------------------------------------------------------------
    1      C      -0.7948660000    -0.6197040000     0.9768870000
    2      S      -0.1014660000    -0.0385040000     2.4843870000
    3      C       1.1026340000     0.9728960000     1.6957870000
    4      C      -0.1015660000    -0.0389040000    -0.0910130000
    5      C       0.9619340000     0.8563960000     0.2904870000
    6      S      -0.2862660000    -0.1977040000    -1.8286130000
    7      C       1.0520340000     0.9324960000    -2.0776130000
    8      C       1.5930340000     1.3896960000    -0.8857130000
    9      F       2.6138340000     2.2525960000    -0.8422130000
   10      C       1.3964340000     1.2190960000    -3.4792130000
   11      O       0.8118340000     0.7180960000    -4.4296130000
   12      O       2.4262340000     2.0928960000    -3.5923130000
   13      C       2.8088340000     2.4070960000    -4.9393130000
   14      H       3.6477340000     3.1201960000    -4.8562130000
   15      H       1.9641340000     2.8641960000    -5.4933130000
   16      H       3.1271340000     1.4943960000    -5.4824130000
   17      C      -0.7948660000    -2.0549040000     0.9768870000
   18      H      -1.7338660000    -2.0629040000     0.4433870000
   19      H      -0.3747660000    -2.7328040000     0.2486870000
   20      H      -1.2592660000    -2.5860040000     1.7945870000
   21      H       1.8098340000     1.5680960000     2.2833870000
 ----------------------------------------------------------------

   11   -1389.2183167631      5.11e-07  Convergence criterion met
 Total energy in the final basis set =    -1389.2183167631
        RIMP2         total energy =     -1391.7337084050 a.u.

                    Orbital Energies (a.u.)
 --------------------------------------------------------------

 Alpha MOs
 -- Occupied --
-92.0005 -91.9997 -26.3428 -20.6140 -20.5600 -11.4083 -11.3821 -11.3146
-11.3006 -11.2946 -11.2886 -11.2806 -11.2690 -11.2160  -9.0003  -8.9995
 -6.6813  -6.6806  -6.6802  -6.6796  -6.6792  -6.6790  -1.6599  -1.4664
 -1.3691  -1.2183  -1.1391  -1.0675  -1.0206  -0.9920  -0.9594  -0.9102
 -0.8652  -0.8080  -0.7904  -0.7600  -0.7310  -0.7246  -0.6958  -0.6839
 -0.6733  -0.6611  -0.6123  -0.5969  -0.5924  -0.5738  -0.5625  -0.5578
 -0.5327  -0.5276  -0.5063  -0.4975  -0.4764  -0.4723  -0.4708  -0.4429
 -0.3775  -0.3445  -0.2881

          Ground-State Mulliken Net Atomic Charges

     Atom                 Charge (a.u.)
  ----------------------------------------
      1 C                    -0.076081
      2 S                     0.088749
      3 C                    -0.162908
      4 C                     0.030507
      5 C                    -0.102080
      6 S                     0.025630
      7 C                    -0.157269
      8 C                     0.390699
      9 F                    -0.206544
     10 C                     0.447868
     11 O                    -0.463808
     12 O                    -0.301349
     13 C                    -0.058363
     14 H                     0.121171
     15 H                     0.094883
     16 H                     0.094758
     17 C                    -0.399067
     18 H                     0.130299
     19 H                     0.151847
     20 H                     0.138497
     21 H                     0.212561
  ----------------------------------------
  Sum of atomic charges =     0.000000

                    Cartesian Multipole Moments
 -----------------------------------------------------------------
    Charge (ESU x 10^10)
                -0.0000
    Dipole Moment (Debye)
         X       1.8607      Y       0.6013      Z       2.5817
       Tot       3.2387
    Quadrupole Moments (Debye-Ang)
        XX     -90.3938     XY       6.8944     YY     -89.2408
        XZ      -5.9682     YZ      -5.3802     ZZ     -96.4166

 Total job time:  66.96s(wall), 2195.70s(cpu)
        *  Thank you very much for using Q-Chem.  Have a nice day.  *
