 Q-Chem 5.4, Q-Chem, Inc., Pleasanton, CA (2021)
 Q-Chem 5.4.0 for Intel X86 EM64T Linux

User input:
--------------------------------------------------------------
$molecule
0 1
C	-0.270400	-0.955820	0.973997
S	-0.035800	-0.082020	2.481497
C	0.370500	1.437180	1.692897
C	-0.035600	-0.082420	-0.093903
C	0.322000	1.260980	0.287597
S	-0.095900	-0.318420	-1.831503
C	0.352200	1.374980	-2.080503
C	0.533100	2.059780	-0.888603
F	0.874400	3.352180	-0.845103
C	0.469900	1.807280	-3.482103
O	0.278400	1.061580	-4.432503
O	0.812300	3.113680	-3.595203
C	0.945400	3.590580	-4.942203
H	1.223700	4.655880	-4.859103
H	-0.008700	3.480480	-5.496203
H	1.729700	3.025480	-5.485303
C	-0.270400	-2.391020	0.973997
H	0.276000	-2.399020	1.905497
H	-0.998300	-3.068920	1.394597
H	0.540600	-2.922120	0.498097
H	0.608300	2.330280	2.280497
$end

$rem
JOBTYPE		SP
EXCHANGE	HF
CORRELATION	pRIMP2
BASIS		cc-pvtz
METHOD		rimp2
AUX_BASIS	rimp2-cc-pvtz
SOLVENT_METHOD	PCM
PURECART	11111
SYMMETRY	false
MEM_TOTAL	110000
SCF_CONVERGENCE = 6
THRESH=10
GUI = 2
$end

$solvent
dielectric 4.90
$end
--------------------------------------------------------------

             Standard Nuclear Orientation (Angstroms)
    I     Atom           X                Y                Z
 ----------------------------------------------------------------
    1      C      -0.2704000000    -0.9558200000     0.9739970000
    2      S      -0.0358000000    -0.0820200000     2.4814970000
    3      C       0.3705000000     1.4371800000     1.6928970000
    4      C      -0.0356000000    -0.0824200000    -0.0939030000
    5      C       0.3220000000     1.2609800000     0.2875970000
    6      S      -0.0959000000    -0.3184200000    -1.8315030000
    7      C       0.3522000000     1.3749800000    -2.0805030000
    8      C       0.5331000000     2.0597800000    -0.8886030000
    9      F       0.8744000000     3.3521800000    -0.8451030000
   10      C       0.4699000000     1.8072800000    -3.4821030000
   11      O       0.2784000000     1.0615800000    -4.4325030000
   12      O       0.8123000000     3.1136800000    -3.5952030000
   13      C       0.9454000000     3.5905800000    -4.9422030000
   14      H       1.2237000000     4.6558800000    -4.8591030000
   15      H      -0.0087000000     3.4804800000    -5.4962030000
   16      H       1.7297000000     3.0254800000    -5.4853030000
   17      C      -0.2704000000    -2.3910200000     0.9739970000
   18      H       0.2760000000    -2.3990200000     1.9054970000
   19      H      -0.9983000000    -3.0689200000     1.3945970000
   20      H       0.5406000000    -2.9221200000     0.4980970000
   21      H       0.6083000000     2.3302800000     2.2804970000
 ----------------------------------------------------------------

   11   -1389.2665451038      5.04e-07  Convergence criterion met
 Total energy in the final basis set =    -1389.2665451038
        RIMP2         total energy =     -1391.7718488652 a.u.

                    Orbital Energies (a.u.)
 --------------------------------------------------------------

 Alpha MOs
 -- Occupied --
-92.0060 -91.9917 -26.3404 -20.6133 -20.5594 -11.4073 -11.3785 -11.2999
-11.2941 -11.2936 -11.2880 -11.2855 -11.2785 -11.2256  -9.0052  -8.9919
 -6.6859  -6.6853  -6.6848  -6.6729  -6.6722  -6.6711  -1.6576  -1.4657
 -1.3683  -1.2126  -1.1373  -1.0653  -1.0196  -0.9947  -0.9586  -0.9119
 -0.8637  -0.8065  -0.7883  -0.7580  -0.7314  -0.7225  -0.6915  -0.6831
 -0.6725  -0.6604  -0.6085  -0.6017  -0.5922  -0.5755  -0.5654  -0.5559
 -0.5391  -0.5298  -0.5085  -0.4863  -0.4737  -0.4710  -0.4698  -0.4553
 -0.3896  -0.3454  -0.2884

          Ground-State Mulliken Net Atomic Charges

     Atom                 Charge (a.u.)
  ----------------------------------------
      1 C                     0.039324
      2 S                     0.075161
      3 C                    -0.209322
      4 C                    -0.029897
      5 C                    -0.084724
      6 S                    -0.002768
      7 C                    -0.156750
      8 C                     0.388417
      9 F                    -0.208581
     10 C                     0.445851
     11 O                    -0.462244
     12 O                    -0.300911
     13 C                    -0.058490
     14 H                     0.120992
     15 H                     0.094772
     16 H                     0.094625
     17 C                    -0.377668
     18 H                     0.122280
     19 H                     0.150784
     20 H                     0.145086
     21 H                     0.214062
  ----------------------------------------
  Sum of atomic charges =     0.000000

                    Cartesian Multipole Moments
 -----------------------------------------------------------------
    Charge (ESU x 10^10)
                -0.0000
    Dipole Moment (Debye)
         X       0.9386      Y       0.5337      Z       3.7758
       Tot       3.9271
    Quadrupole Moments (Debye-Ang)
        XX     -95.9333     XY       2.0110     YY     -82.0562
        XZ      -2.2001     YZ     -11.1421     ZZ     -95.5312

 Total job time:  73.81s(wall), 1948.69s(cpu)
        *  Thank you very much for using Q-Chem.  Have a nice day.  *
