 Q-Chem 5.4, Q-Chem, Inc., Pleasanton, CA (2021)
 Q-Chem 5.4.0 for Intel X86 EM64T Linux

User input:
--------------------------------------------------------------
$molecule
0 1
C	0.001368	-0.991205	0.978043
S	0.001868	-0.086405	2.485543
C	0.001068	1.486095	1.696943
C	0.002168	-0.086805	-0.089857
C	-0.000232	1.303395	0.291643
S	0.004968	-0.330305	-1.827457
C	-0.000532	1.421295	-2.076457
C	-0.003032	2.129695	-0.884557
F	-0.007832	3.466295	-0.841057
C	0.001368	1.869395	-3.478057
O	0.009268	1.099495	-4.428457
O	-0.006132	3.219895	-3.591157
C	-0.000932	3.714995	-4.938157
H	-0.007932	4.815995	-4.855057
H	-0.894032	3.361695	-5.492157
H	0.902868	3.372095	-5.481257
C	0.001368	-2.426405	0.978043
H	-0.375032	-2.434405	-0.034257
H	0.791268	-3.104305	0.690243
H	-0.880032	-2.957505	1.305943
H	-0.000332	2.410395	2.284543
$end

$rem
JOBTYPE		SP
EXCHANGE	HF
CORRELATION	pRIMP2
BASIS		cc-pvtz
METHOD		rimp2
AUX_BASIS	rimp2-cc-pvtz
SOLVENT_METHOD	PCM
PURECART	11111
SYMMETRY	false
MEM_TOTAL	110000
SCF_CONVERGENCE = 6
THRESH=10
GUI = 2
$end

$solvent
dielectric 4.90
$end
--------------------------------------------------------------

             Standard Nuclear Orientation (Angstroms)
    I     Atom           X                Y                Z
 ----------------------------------------------------------------
    1      C       0.0013680000    -0.9912050000     0.9780430000
    2      S       0.0018680000    -0.0864050000     2.4855430000
    3      C       0.0010680000     1.4860950000     1.6969430000
    4      C       0.0021680000    -0.0868050000    -0.0898570000
    5      C      -0.0002320000     1.3033950000     0.2916430000
    6      S       0.0049680000    -0.3303050000    -1.8274570000
    7      C      -0.0005320000     1.4212950000    -2.0764570000
    8      C      -0.0030320000     2.1296950000    -0.8845570000
    9      F      -0.0078320000     3.4662950000    -0.8410570000
   10      C       0.0013680000     1.8693950000    -3.4780570000
   11      O       0.0092680000     1.0994950000    -4.4284570000
   12      O      -0.0061320000     3.2198950000    -3.5911570000
   13      C      -0.0009320000     3.7149950000    -4.9381570000
   14      H      -0.0079320000     4.8159950000    -4.8550570000
   15      H      -0.8940320000     3.3616950000    -5.4921570000
   16      H       0.9028680000     3.3720950000    -5.4812570000
   17      C       0.0013680000    -2.4264050000     0.9780430000
   18      H      -0.3750320000    -2.4344050000    -0.0342570000
   19      H       0.7912680000    -3.1043050000     0.6902430000
   20      H      -0.8800320000    -2.9575050000     1.3059430000
   21      H      -0.0003320000     2.4103950000     2.2845430000
 ----------------------------------------------------------------

   11   -1389.2734653539      4.62e-07  Convergence criterion met
 Total energy in the final basis set =    -1389.2734653539
        RIMP2         total energy =     -1391.7791317312 a.u.

                    Orbital Energies (a.u.)
 --------------------------------------------------------------

 Alpha MOs
 -- Occupied --
-92.0034 -91.9936 -26.3412 -20.6137 -20.5598 -11.4077 -11.3796 -11.2992
-11.2953 -11.2946 -11.2888 -11.2882 -11.2788 -11.2269  -9.0025  -8.9938
 -6.6833  -6.6826  -6.6822  -6.6748  -6.6741  -6.6730  -1.6584  -1.4661
 -1.3687  -1.2133  -1.1353  -1.0679  -1.0187  -0.9952  -0.9583  -0.9143
 -0.8634  -0.8052  -0.7890  -0.7592  -0.7301  -0.7232  -0.6945  -0.6835
 -0.6729  -0.6611  -0.6099  -0.6011  -0.5914  -0.5818  -0.5664  -0.5559
 -0.5403  -0.5301  -0.5071  -0.4876  -0.4734  -0.4717  -0.4647  -0.4550
 -0.3914  -0.3448  -0.2912

          Ground-State Mulliken Net Atomic Charges

     Atom                 Charge (a.u.)
  ----------------------------------------
      1 C                     0.046505
      2 S                     0.072234
      3 C                    -0.202920
      4 C                    -0.013392
      5 C                    -0.100541
      6 S                    -0.009607
      7 C                    -0.157824
      8 C                     0.389326
      9 F                    -0.207786
     10 C                     0.444989
     11 O                    -0.462954
     12 O                    -0.300893
     13 C                    -0.058677
     14 H                     0.121183
     15 H                     0.094771
     16 H                     0.094736
     17 C                    -0.371289
     18 H                     0.114092
     19 H                     0.149880
     20 H                     0.145215
     21 H                     0.212951
  ----------------------------------------
  Sum of atomic charges =     0.000000

                    Cartesian Multipole Moments
 -----------------------------------------------------------------
    Charge (ESU x 10^10)
                -0.0000
    Dipole Moment (Debye)
         X      -0.2499      Y       0.5699      Z       2.6212
       Tot       2.6941
    Quadrupole Moments (Debye-Ang)
        XX     -96.2994     XY       0.6033     YY     -81.0038
        XZ      -0.4141     YZ      -8.5530     ZZ     -98.0016

 Total job time:  57.24s(wall), 2027.97s(cpu)
        *  Thank you very much for using Q-Chem.  Have a nice day.  *
