 Q-Chem 5.4, Q-Chem, Inc., Pleasanton, CA (2021)
 Q-Chem 5.4.0 for Intel X86 EM64T Linux

User input:
--------------------------------------------------------------
$molecule
0 1
C	-0.437246	-0.893839	0.975276
S	-0.054446	-0.074039	2.482776
C	0.609454	1.351461	1.694176
C	-0.054346	-0.074439	-0.092624
C	0.531054	1.186461	0.288876
S	-0.154646	-0.296439	-1.830224
C	0.580554	1.293461	-2.079224
C	0.877754	1.936461	-0.887324
F	1.438254	3.149961	-0.843824
C	0.771654	1.698761	-3.480824
O	0.453554	0.997661	-4.431224
O	1.335654	2.925861	-3.593924
C	1.549654	3.372361	-4.940924
H	2.008554	4.373161	-4.857824
H	0.590854	3.429561	-5.494924
H	2.223854	2.679661	-5.484024
C	-0.437246	-2.329039	0.975276
H	-1.499446	-2.337039	1.170176
H	-0.583546	-3.006939	0.147376
H	-0.267446	-2.860139	1.900176
H	0.998754	2.189761	2.281776
$end

$rem
JOBTYPE		SP
EXCHANGE	HF
CORRELATION	pRIMP2
BASIS		cc-pvtz
METHOD		rimp2
AUX_BASIS	rimp2-cc-pvtz
SOLVENT_METHOD	PCM
PURECART	11111
SYMMETRY	false
MEM_TOTAL	110000
SCF_CONVERGENCE = 6
THRESH=10
GUI = 2
$end

$solvent
dielectric 4.90
$end
--------------------------------------------------------------

             Standard Nuclear Orientation (Angstroms)
    I     Atom           X                Y                Z
 ----------------------------------------------------------------
    1      C      -0.4372460000    -0.8938390000     0.9752760000
    2      S      -0.0544460000    -0.0740390000     2.4827760000
    3      C       0.6094540000     1.3514610000     1.6941760000
    4      C      -0.0543460000    -0.0744390000    -0.0926240000
    5      C       0.5310540000     1.1864610000     0.2888760000
    6      S      -0.1546460000    -0.2964390000    -1.8302240000
    7      C       0.5805540000     1.2934610000    -2.0792240000
    8      C       0.8777540000     1.9364610000    -0.8873240000
    9      F       1.4382540000     3.1499610000    -0.8438240000
   10      C       0.7716540000     1.6987610000    -3.4808240000
   11      O       0.4535540000     0.9976610000    -4.4312240000
   12      O       1.3356540000     2.9258610000    -3.5939240000
   13      C       1.5496540000     3.3723610000    -4.9409240000
   14      H       2.0085540000     4.3731610000    -4.8578240000
   15      H       0.5908540000     3.4295610000    -5.4949240000
   16      H       2.2238540000     2.6796610000    -5.4840240000
   17      C      -0.4372460000    -2.3290390000     0.9752760000
   18      H      -1.4994460000    -2.3370390000     1.1701760000
   19      H      -0.5835460000    -3.0069390000     0.1473760000
   20      H      -0.2674460000    -2.8601390000     1.9001760000
   21      H       0.9987540000     2.1897610000     2.2817760000
 ----------------------------------------------------------------

   11   -1389.2558708534      4.92e-07  Convergence criterion met
 Total energy in the final basis set =    -1389.2558708534
        RIMP2         total energy =     -1391.7633767538 a.u.

                    Orbital Energies (a.u.)
 --------------------------------------------------------------

 Alpha MOs
 -- Occupied --
-92.0055 -91.9915 -26.3400 -20.6133 -20.5594 -11.4072 -11.3779 -11.2967
-11.2949 -11.2940 -11.2879 -11.2829 -11.2782 -11.2260  -9.0045  -8.9916
 -6.6854  -6.6847  -6.6842  -6.6727  -6.6720  -6.6708  -1.6572  -1.4657
 -1.3683  -1.2119  -1.1365  -1.0655  -1.0185  -0.9947  -0.9579  -0.9127
 -0.8630  -0.8050  -0.7880  -0.7582  -0.7301  -0.7221  -0.6921  -0.6830
 -0.6725  -0.6597  -0.6123  -0.5944  -0.5873  -0.5819  -0.5618  -0.5591
 -0.5317  -0.5259  -0.5121  -0.4990  -0.4725  -0.4716  -0.4707  -0.4576
 -0.3817  -0.3448  -0.2809

          Ground-State Mulliken Net Atomic Charges

     Atom                 Charge (a.u.)
  ----------------------------------------
      1 C                     0.007191
      2 S                     0.081665
      3 C                    -0.219610
      4 C                    -0.017111
      5 C                    -0.089903
      6 S                    -0.006418
      7 C                    -0.157685
      8 C                     0.392596
      9 F                    -0.208888
     10 C                     0.446739
     11 O                    -0.462297
     12 O                    -0.300899
     13 C                    -0.058537
     14 H                     0.121057
     15 H                     0.094701
     16 H                     0.094671
     17 C                    -0.384097
     18 H                     0.140816
     19 H                     0.165770
     20 H                     0.146929
     21 H                     0.213310
  ----------------------------------------
  Sum of atomic charges =     0.000000

                    Cartesian Multipole Moments
 -----------------------------------------------------------------
    Charge (ESU x 10^10)
                -0.0000
    Dipole Moment (Debye)
         X       0.1818      Y       0.1597      Z       3.3691
       Tot       3.3778
    Quadrupole Moments (Debye-Ang)
        XX     -94.5861     XY       6.2472     YY     -83.0706
        XZ      -4.1729     YZ      -9.6817     ZZ     -96.0333

 Total job time:  58.22s(wall), 1996.91s(cpu)
        *  Thank you very much for using Q-Chem.  Have a nice day.  *
