 Q-Chem 5.4, Q-Chem, Inc., Pleasanton, CA (2021)
 Q-Chem 5.4.0 for Intel X86 EM64T Linux

User input:
--------------------------------------------------------------
$molecule
0 1
C	-0.441672	-0.893839	0.974943
S	-0.058872	-0.074039	2.482443
C	0.605028	1.351461	1.693843
C	-0.058772	-0.074439	-0.092957
C	0.526628	1.186461	0.288543
S	-0.159072	-0.296439	-1.830557
C	0.576128	1.293461	-2.079557
C	0.873328	1.936461	-0.887657
F	1.433828	3.149961	-0.844157
C	0.767228	1.698761	-3.481157
O	0.449128	0.997661	-4.431557
O	1.331228	2.925861	-3.594257
C	1.545228	3.372361	-4.941257
H	2.004128	4.373161	-4.858157
H	0.586428	3.429561	-5.495257
H	2.219428	2.679661	-5.484357
C	-0.441672	-2.329039	0.974943
H	0.497328	-2.337039	1.508443
H	-0.861772	-3.006939	1.703143
H	0.022728	-2.860139	0.157243
H	0.994328	2.189761	2.281443
$end

$rem
JOBTYPE		SP
EXCHANGE	HF
CORRELATION	pRIMP2
BASIS		cc-pvtz
METHOD		rimp2
AUX_BASIS	rimp2-cc-pvtz
SOLVENT_METHOD	PCM
PURECART	11111
SYMMETRY	false
MEM_TOTAL	110000
SCF_CONVERGENCE = 6
THRESH=10
GUI = 2
$end

$solvent
dielectric 4.90
$end
--------------------------------------------------------------

             Standard Nuclear Orientation (Angstroms)
    I     Atom           X                Y                Z
 ----------------------------------------------------------------
    1      C      -0.4416720000    -0.8938390000     0.9749430000
    2      S      -0.0588720000    -0.0740390000     2.4824430000
    3      C       0.6050280000     1.3514610000     1.6938430000
    4      C      -0.0587720000    -0.0744390000    -0.0929570000
    5      C       0.5266280000     1.1864610000     0.2885430000
    6      S      -0.1590720000    -0.2964390000    -1.8305570000
    7      C       0.5761280000     1.2934610000    -2.0795570000
    8      C       0.8733280000     1.9364610000    -0.8876570000
    9      F       1.4338280000     3.1499610000    -0.8441570000
   10      C       0.7672280000     1.6987610000    -3.4811570000
   11      O       0.4491280000     0.9976610000    -4.4315570000
   12      O       1.3312280000     2.9258610000    -3.5942570000
   13      C       1.5452280000     3.3723610000    -4.9412570000
   14      H       2.0041280000     4.3731610000    -4.8581570000
   15      H       0.5864280000     3.4295610000    -5.4952570000
   16      H       2.2194280000     2.6796610000    -5.4843570000
   17      C      -0.4416720000    -2.3290390000     0.9749430000
   18      H       0.4973280000    -2.3370390000     1.5084430000
   19      H      -0.8617720000    -3.0069390000     1.7031430000
   20      H       0.0227280000    -2.8601390000     0.1572430000
   21      H       0.9943280000     2.1897610000     2.2814430000
 ----------------------------------------------------------------

   11   -1389.2615595793      5.48e-07  Convergence criterion met
 Total energy in the final basis set =    -1389.2615595793
        RIMP2         total energy =     -1391.7673498666 a.u.

                    Orbital Energies (a.u.)
 --------------------------------------------------------------

 Alpha MOs
 -- Occupied --
-92.0030 -91.9913 -26.3404 -20.6134 -20.5596 -11.4074 -11.3784 -11.2984
-11.2972 -11.2943 -11.2880 -11.2844 -11.2787 -11.2283  -9.0025  -8.9914
 -6.6833  -6.6827  -6.6822  -6.6725  -6.6718  -6.6706  -1.6576  -1.4658
 -1.3684  -1.2132  -1.1382  -1.0666  -1.0190  -0.9940  -0.9583  -0.9112
 -0.8634  -0.8059  -0.7883  -0.7583  -0.7314  -0.7225  -0.6923  -0.6832
 -0.6726  -0.6601  -0.6116  -0.5995  -0.5930  -0.5744  -0.5639  -0.5551
 -0.5352  -0.5292  -0.5140  -0.4971  -0.4730  -0.4711  -0.4706  -0.4548
 -0.3856  -0.3463  -0.2825

          Ground-State Mulliken Net Atomic Charges

     Atom                 Charge (a.u.)
  ----------------------------------------
      1 C                     0.052630
      2 S                     0.072682
      3 C                    -0.214628
      4 C                    -0.066997
      5 C                    -0.076390
      6 S                    -0.004835
      7 C                    -0.154943
      8 C                     0.388659
      9 F                    -0.208474
     10 C                     0.445864
     11 O                    -0.461957
     12 O                    -0.300968
     13 C                    -0.058522
     14 H                     0.121080
     15 H                     0.094836
     16 H                     0.094624
     17 C                    -0.380989
     18 H                     0.141884
     19 H                     0.156728
     20 H                     0.146963
     21 H                     0.212753
  ----------------------------------------
  Sum of atomic charges =     0.000000

                    Cartesian Multipole Moments
 -----------------------------------------------------------------
    Charge (ESU x 10^10)
                -0.0000
    Dipole Moment (Debye)
         X       1.5217      Y       0.1752      Z       3.5297
       Tot       3.8477
    Quadrupole Moments (Debye-Ang)
        XX     -95.5379     XY       3.0342     YY     -83.0070
        XZ      -3.3624     YZ     -10.3779     ZZ     -95.9022

 Total job time:  57.09s(wall), 2013.23s(cpu)
        *  Thank you very much for using Q-Chem.  Have a nice day.  *
