 Q-Chem 5.4, Q-Chem, Inc., Pleasanton, CA (2021)
 Q-Chem 5.4.0 for Intel X86 EM64T Linux

User input:
--------------------------------------------------------------
$molecule
0 1
C	-0.357567	-0.928548	0.974584
S	-0.047667	-0.078548	2.482084
C	0.489433	1.399452	1.693484
C	-0.047567	-0.078948	-0.093316
C	0.425733	1.228152	0.288184
S	-0.128167	-0.308748	-1.830916
C	0.465733	1.339152	-2.079916
C	0.705733	2.005552	-0.888016
F	1.158333	3.263252	-0.844516
C	0.620733	1.759552	-3.481516
O	0.364933	1.033352	-4.431916
O	1.075633	3.031152	-3.594616
C	1.249933	3.494552	-4.941616
H	1.619933	4.531652	-4.858516
H	0.289833	3.468052	-5.495616
H	1.981933	2.863252	-5.484716
C	-0.357567	-2.363748	0.974584
H	0.474533	-2.371748	1.663084
H	-0.897767	-3.041648	1.618784
H	0.241733	-2.894848	0.249984
H	0.804233	2.268452	2.281084
$end

$rem
JOBTYPE		SP
EXCHANGE	HF
CORRELATION	pRIMP2
BASIS		cc-pvtz
METHOD		rimp2
AUX_BASIS	rimp2-cc-pvtz
SOLVENT_METHOD	PCM
PURECART	11111
SYMMETRY	false
MEM_TOTAL	110000
SCF_CONVERGENCE = 6
THRESH=10
GUI = 2
$end

$solvent
dielectric 4.90
$end
--------------------------------------------------------------

             Standard Nuclear Orientation (Angstroms)
    I     Atom           X                Y                Z
 ----------------------------------------------------------------
    1      C      -0.3575670000    -0.9285480000     0.9745840000
    2      S      -0.0476670000    -0.0785480000     2.4820840000
    3      C       0.4894330000     1.3994520000     1.6934840000
    4      C      -0.0475670000    -0.0789480000    -0.0933160000
    5      C       0.4257330000     1.2281520000     0.2881840000
    6      S      -0.1281670000    -0.3087480000    -1.8309160000
    7      C       0.4657330000     1.3391520000    -2.0799160000
    8      C       0.7057330000     2.0055520000    -0.8880160000
    9      F       1.1583330000     3.2632520000    -0.8445160000
   10      C       0.6207330000     1.7595520000    -3.4815160000
   11      O       0.3649330000     1.0333520000    -4.4319160000
   12      O       1.0756330000     3.0311520000    -3.5946160000
   13      C       1.2499330000     3.4945520000    -4.9416160000
   14      H       1.6199330000     4.5316520000    -4.8585160000
   15      H       0.2898330000     3.4680520000    -5.4956160000
   16      H       1.9819330000     2.8632520000    -5.4847160000
   17      C      -0.3575670000    -2.3637480000     0.9745840000
   18      H       0.4745330000    -2.3717480000     1.6630840000
   19      H      -0.8977670000    -3.0416480000     1.6187840000
   20      H       0.2417330000    -2.8948480000     0.2499840000
   21      H       0.8042330000     2.2684520000     2.2810840000
 ----------------------------------------------------------------

   11   -1389.2648506736      5.35e-07  Convergence criterion met
 Total energy in the final basis set =    -1389.2648506736
        RIMP2         total energy =     -1391.7699843947 a.u.

                    Orbital Energies (a.u.)
 --------------------------------------------------------------

 Alpha MOs
 -- Occupied --
-92.0039 -91.9911 -26.3403 -20.6134 -20.5595 -11.4073 -11.3783 -11.2984
-11.2967 -11.2941 -11.2880 -11.2845 -11.2785 -11.2275  -9.0033  -8.9912
 -6.6841  -6.6835  -6.6830  -6.6723  -6.6716  -6.6705  -1.6576  -1.4657
 -1.3683  -1.2127  -1.1377  -1.0661  -1.0191  -0.9944  -0.9583  -0.9117
 -0.8634  -0.8060  -0.7882  -0.7581  -0.7313  -0.7225  -0.6919  -0.6831
 -0.6725  -0.6601  -0.6107  -0.6001  -0.5926  -0.5750  -0.5644  -0.5551
 -0.5370  -0.5295  -0.5115  -0.4942  -0.4731  -0.4709  -0.4704  -0.4550
 -0.3869  -0.3460  -0.2841

          Ground-State Mulliken Net Atomic Charges

     Atom                 Charge (a.u.)
  ----------------------------------------
      1 C                     0.050304
      2 S                     0.073347
      3 C                    -0.213243
      4 C                    -0.055279
      5 C                    -0.079995
      6 S                    -0.004717
      7 C                    -0.156110
      8 C                     0.389027
      9 F                    -0.208583
     10 C                     0.445750
     11 O                    -0.462064
     12 O                    -0.300924
     13 C                    -0.058461
     14 H                     0.120981
     15 H                     0.094798
     16 H                     0.094636
     17 C                    -0.381938
     18 H                     0.136237
     19 H                     0.155529
     20 H                     0.147554
     21 H                     0.213152
  ----------------------------------------
  Sum of atomic charges =     0.000000

                    Cartesian Multipole Moments
 -----------------------------------------------------------------
    Charge (ESU x 10^10)
                -0.0000
    Dipole Moment (Debye)
         X       1.2841      Y       0.2832      Z       3.6481
       Tot       3.8779
    Quadrupole Moments (Debye-Ang)
        XX     -95.8819     XY       2.4128     YY     -82.3472
        XZ      -2.7879     YZ     -10.8582     ZZ     -95.7579

 Total job time:  57.97s(wall), 2001.00s(cpu)
        *  Thank you very much for using Q-Chem.  Have a nice day.  *
