 Q-Chem 5.4, Q-Chem, Inc., Pleasanton, CA (2021)
 Q-Chem 5.4.0 for Intel X86 EM64T Linux

User input:
--------------------------------------------------------------
$molecule
0 1
C	-0.667008	-0.747937	0.977564
S	-0.085108	-0.055137	2.485064
C	0.925192	1.149963	1.696464
C	-0.085108	-0.055537	-0.090336
C	0.806692	1.010863	0.291164
S	-0.239408	-0.244037	-1.827936
C	0.882292	1.101463	-2.076936
C	1.335692	1.645563	-0.885036
F	2.191192	2.672563	-0.841536
C	1.171692	1.443363	-3.478536
O	0.682992	0.848563	-4.428936
O	2.034092	2.482763	-3.591636
C	2.356292	2.858663	-4.938636
H	3.058692	3.706563	-4.855536
H	1.445092	3.162063	-5.492636
H	2.828292	2.015063	-5.481736
C	-0.667008	-2.183137	0.977564
H	-1.366908	-2.191137	0.155064
H	-0.023108	-2.861037	0.436964
H	-1.383108	-2.714237	1.587164
H	1.518192	1.858863	2.284064
$end

$rem
JOBTYPE		SP
EXCHANGE	HF
CORRELATION	pRIMP2
BASIS		cc-pvtz
METHOD		rimp2
AUX_BASIS	rimp2-cc-pvtz
SOLVENT_METHOD	PCM
PURECART	11111
SYMMETRY	false
MEM_TOTAL	110000
SCF_CONVERGENCE = 6
THRESH=10
GUI = 2
$end

$solvent
dielectric 4.90
$end
--------------------------------------------------------------

             Standard Nuclear Orientation (Angstroms)
    I     Atom           X                Y                Z
 ----------------------------------------------------------------
    1      C      -0.6670080000    -0.7479370000     0.9775640000
    2      S      -0.0851080000    -0.0551370000     2.4850640000
    3      C       0.9251920000     1.1499630000     1.6964640000
    4      C      -0.0851080000    -0.0555370000    -0.0903360000
    5      C       0.8066920000     1.0108630000     0.2911640000
    6      S      -0.2394080000    -0.2440370000    -1.8279360000
    7      C       0.8822920000     1.1014630000    -2.0769360000
    8      C       1.3356920000     1.6455630000    -0.8850360000
    9      F       2.1911920000     2.6725630000    -0.8415360000
   10      C       1.1716920000     1.4433630000    -3.4785360000
   11      O       0.6829920000     0.8485630000    -4.4289360000
   12      O       2.0340920000     2.4827630000    -3.5916360000
   13      C       2.3562920000     2.8586630000    -4.9386360000
   14      H       3.0586920000     3.7065630000    -4.8555360000
   15      H       1.4450920000     3.1620630000    -5.4926360000
   16      H       2.8282920000     2.0150630000    -5.4817360000
   17      C      -0.6670080000    -2.1831370000     0.9775640000
   18      H      -1.3669080000    -2.1911370000     0.1550640000
   19      H      -0.0231080000    -2.8610370000     0.4369640000
   20      H      -1.3831080000    -2.7142370000     1.5871640000
   21      H       1.5181920000     1.8588630000     2.2840640000
 ----------------------------------------------------------------

   11   -1389.2411208079      4.74e-07  Convergence criterion met
 Total energy in the final basis set =    -1389.2411208079
        RIMP2         total energy =     -1391.7531769612 a.u.

                    Orbital Energies (a.u.)
 --------------------------------------------------------------

 Alpha MOs
 -- Occupied --
-92.0004 -91.9982 -26.3423 -20.6140 -20.5600 -11.4082 -11.3813 -11.3098
-11.2971 -11.2947 -11.2885 -11.2802 -11.2780 -11.2202  -9.0000  -8.9982
 -6.6807  -6.6799  -6.6796  -6.6792  -6.6785  -6.6774  -1.6595  -1.4664
 -1.3690  -1.2166  -1.1375  -1.0676  -1.0199  -0.9930  -0.9590  -0.9119
 -0.8646  -0.8069  -0.7900  -0.7598  -0.7304  -0.7242  -0.6954  -0.6838
 -0.6732  -0.6613  -0.6109  -0.5985  -0.5922  -0.5784  -0.5630  -0.5574
 -0.5333  -0.5293  -0.5081  -0.4921  -0.4753  -0.4722  -0.4695  -0.4442
 -0.3848  -0.3449  -0.2911

          Ground-State Mulliken Net Atomic Charges

     Atom                 Charge (a.u.)
  ----------------------------------------
      1 C                    -0.036854
      2 S                     0.083393
      3 C                    -0.178551
      4 C                     0.002367
      5 C                    -0.097875
      6 S                     0.015707
      7 C                    -0.157175
      8 C                     0.390495
      9 F                    -0.206852
     10 C                     0.447129
     11 O                    -0.463213
     12 O                    -0.301292
     13 C                    -0.058420
     14 H                     0.121162
     15 H                     0.094913
     16 H                     0.094696
     17 C                    -0.376539
     18 H                     0.119401
     19 H                     0.155600
     20 H                     0.139212
     21 H                     0.212694
  ----------------------------------------
  Sum of atomic charges =     0.000000

                    Cartesian Multipole Moments
 -----------------------------------------------------------------
    Charge (ESU x 10^10)
                -0.0000
    Dipole Moment (Debye)
         X       1.4063      Y       0.6950      Z       2.5002
       Tot       2.9515
    Quadrupole Moments (Debye-Ang)
        XX     -91.9576     XY       6.6294     YY     -86.8070
        XZ      -5.2341     YZ      -6.1674     ZZ     -97.2438

 Total job time:  58.81s(wall), 1982.79s(cpu)
        *  Thank you very much for using Q-Chem.  Have a nice day.  *
