 Q-Chem 5.4, Q-Chem, Inc., Pleasanton, CA (2021)
 Q-Chem 5.4.0 for Intel X86 EM64T Linux

User input:
--------------------------------------------------------------
$molecule
0 1
C	-0.354978	-0.928548	0.978188
S	-0.045078	-0.078548	2.485688
C	0.492022	1.399452	1.697088
C	-0.044978	-0.078948	-0.089712
C	0.428322	1.228152	0.291788
S	-0.125578	-0.308748	-1.827312
C	0.468322	1.339152	-2.076312
C	0.708322	2.005552	-0.884412
F	1.160922	3.263252	-0.840912
C	0.623322	1.759552	-3.477912
O	0.367522	1.033352	-4.428312
O	1.078222	3.031152	-3.591012
C	1.252522	3.494552	-4.938012
H	1.622522	4.531652	-4.854912
H	0.292422	3.468052	-5.492012
H	1.984522	2.863252	-5.481112
C	-0.354978	-2.363748	0.978188
H	-0.549878	-2.371748	-0.084012
H	0.472922	-3.041648	0.831888
H	-1.279878	-2.894848	1.147988
H	0.806822	2.268452	2.284688
$end

$rem
JOBTYPE		SP
EXCHANGE	HF
CORRELATION	pRIMP2
BASIS		cc-pvtz
METHOD		rimp2
AUX_BASIS	rimp2-cc-pvtz
SOLVENT_METHOD	PCM
PURECART	11111
SYMMETRY	false
MEM_TOTAL	110000
SCF_CONVERGENCE = 6
THRESH=10
GUI = 2
$end

$solvent
dielectric 4.90
$end
--------------------------------------------------------------

             Standard Nuclear Orientation (Angstroms)
    I     Atom           X                Y                Z
 ----------------------------------------------------------------
    1      C      -0.3549780000    -0.9285480000     0.9781880000
    2      S      -0.0450780000    -0.0785480000     2.4856880000
    3      C       0.4920220000     1.3994520000     1.6970880000
    4      C      -0.0449780000    -0.0789480000    -0.0897120000
    5      C       0.4283220000     1.2281520000     0.2917880000
    6      S      -0.1255780000    -0.3087480000    -1.8273120000
    7      C       0.4683220000     1.3391520000    -2.0763120000
    8      C       0.7083220000     2.0055520000    -0.8844120000
    9      F       1.1609220000     3.2632520000    -0.8409120000
   10      C       0.6233220000     1.7595520000    -3.4779120000
   11      O       0.3675220000     1.0333520000    -4.4283120000
   12      O       1.0782220000     3.0311520000    -3.5910120000
   13      C       1.2525220000     3.4945520000    -4.9380120000
   14      H       1.6225220000     4.5316520000    -4.8549120000
   15      H       0.2924220000     3.4680520000    -5.4920120000
   16      H       1.9845220000     2.8632520000    -5.4811120000
   17      C      -0.3549780000    -2.3637480000     0.9781880000
   18      H      -0.5498780000    -2.3717480000    -0.0840120000
   19      H       0.4729220000    -3.0416480000     0.8318880000
   20      H      -1.2798780000    -2.8948480000     1.1479880000
   21      H       0.8068220000     2.2684520000     2.2846880000
 ----------------------------------------------------------------

   11   -1389.2653624327      4.57e-07  Convergence criterion met
 Total energy in the final basis set =    -1389.2653624327
        RIMP2         total energy =     -1391.7728670283 a.u.

                    Orbital Energies (a.u.)
 --------------------------------------------------------------

 Alpha MOs
 -- Occupied --
-92.0021 -91.9950 -26.3416 -20.6138 -20.5598 -11.4079 -11.3803 -11.3033
-11.2947 -11.2927 -11.2896 -11.2883 -11.2792 -11.2248  -9.0014  -8.9952
 -6.6821  -6.6815  -6.6811  -6.6762  -6.6755  -6.6744  -1.6588  -1.4662
 -1.3688  -1.2145  -1.1357  -1.0681  -1.0191  -0.9944  -0.9585  -0.9139
 -0.8638  -0.8058  -0.7894  -0.7595  -0.7301  -0.7236  -0.6950  -0.6836
 -0.6730  -0.6613  -0.6084  -0.6027  -0.5918  -0.5827  -0.5653  -0.5563
 -0.5376  -0.5302  -0.5075  -0.4875  -0.4737  -0.4719  -0.4658  -0.4481
 -0.3929  -0.3449  -0.2932

          Ground-State Mulliken Net Atomic Charges

     Atom                 Charge (a.u.)
  ----------------------------------------
      1 C                     0.015378
      2 S                     0.076876
      3 C                    -0.197491
      4 C                    -0.023130
      5 C                    -0.090421
      6 S                    -0.003762
      7 C                    -0.157565
      8 C                     0.391001
      9 F                    -0.207296
     10 C                     0.445559
     11 O                    -0.462933
     12 O                    -0.301148
     13 C                    -0.058442
     14 H                     0.121099
     15 H                     0.094807
     16 H                     0.094738
     17 C                    -0.350673
     18 H                     0.109863
     19 H                     0.151862
     20 H                     0.138712
     21 H                     0.212967
  ----------------------------------------
  Sum of atomic charges =     0.000000

                    Cartesian Multipole Moments
 -----------------------------------------------------------------
    Charge (ESU x 10^10)
                -0.0000
    Dipole Moment (Debye)
         X       0.7131      Y       0.7112      Z       2.5258
       Tot       2.7192
    Quadrupole Moments (Debye-Ang)
        XX     -94.9593     XY       3.9151     YY     -82.7248
        XZ      -2.7633     YZ      -7.6643     ZZ     -98.0020

 Total job time:  59.45s(wall), 2114.29s(cpu)
        *  Thank you very much for using Q-Chem.  Have a nice day.  *
