 Q-Chem 5.4, Q-Chem, Inc., Pleasanton, CA (2021)
 Q-Chem 5.4.0 for Intel X86 EM64T Linux

User input:
--------------------------------------------------------------
$molecule
0 1
C	-0.517909	-0.851940	0.976887
S	-0.065109	-0.068640	2.484387
C	0.720491	1.293660	1.695787
C	-0.065009	-0.069040	-0.091013
C	0.627991	1.136060	0.290487
S	-0.184309	-0.281440	-1.828613
C	0.686691	1.238360	-2.077613
C	1.038691	1.852960	-0.885713
F	1.702891	3.012960	-0.842213
C	0.912391	1.625360	-3.479213
O	0.534291	0.954660	-4.429613
O	1.581091	2.798760	-3.592313
C	1.833191	3.224860	-4.939313
H	2.377691	4.181860	-4.856213
H	0.883091	3.365460	-5.493313
H	2.444491	2.476060	-5.482413
C	-0.517909	-2.287140	0.976887
H	-1.456909	-2.295140	0.443387
H	-0.097809	-2.965040	0.248687
H	-0.982309	-2.818240	1.794587
H	1.181391	2.094760	2.283387
$end

$rem
JOBTYPE		SP
EXCHANGE	HF
CORRELATION	pRIMP2
BASIS		cc-pvtz
METHOD		rimp2
AUX_BASIS	rimp2-cc-pvtz
SOLVENT_METHOD	PCM
PURECART	11111
SYMMETRY	false
MEM_TOTAL	110000
SCF_CONVERGENCE = 6
THRESH=10
GUI = 2
$end

$solvent
dielectric 4.90
$end
--------------------------------------------------------------

             Standard Nuclear Orientation (Angstroms)
    I     Atom           X                Y                Z
 ----------------------------------------------------------------
    1      C      -0.5179090000    -0.8519400000     0.9768870000
    2      S      -0.0651090000    -0.0686400000     2.4843870000
    3      C       0.7204910000     1.2936600000     1.6957870000
    4      C      -0.0650090000    -0.0690400000    -0.0910130000
    5      C       0.6279910000     1.1360600000     0.2904870000
    6      S      -0.1843090000    -0.2814400000    -1.8286130000
    7      C       0.6866910000     1.2383600000    -2.0776130000
    8      C       1.0386910000     1.8529600000    -0.8857130000
    9      F       1.7028910000     3.0129600000    -0.8422130000
   10      C       0.9123910000     1.6253600000    -3.4792130000
   11      O       0.5342910000     0.9546600000    -4.4296130000
   12      O       1.5810910000     2.7987600000    -3.5923130000
   13      C       1.8331910000     3.2248600000    -4.9393130000
   14      H       2.3776910000     4.1818600000    -4.8562130000
   15      H       0.8830910000     3.3654600000    -5.4933130000
   16      H       2.4444910000     2.4760600000    -5.4824130000
   17      C      -0.5179090000    -2.2871400000     0.9768870000
   18      H      -1.4569090000    -2.2951400000     0.4433870000
   19      H      -0.0978090000    -2.9650400000     0.2486870000
   20      H      -0.9823090000    -2.8182400000     1.7945870000
   21      H       1.1813910000     2.0947600000     2.2833870000
 ----------------------------------------------------------------

   11   -1389.2524529103      4.72e-07  Convergence criterion met
 Total energy in the final basis set =    -1389.2524529103
        RIMP2         total energy =     -1391.7621229204 a.u.

                    Orbital Energies (a.u.)
 --------------------------------------------------------------

 Alpha MOs
 -- Occupied --
-92.0029 -91.9946 -26.3410 -20.6136 -20.5597 -11.4077 -11.3794 -11.3007
-11.2944 -11.2897 -11.2884 -11.2882 -11.2792 -11.2238  -9.0021  -8.9946
 -6.6829  -6.6822  -6.6818  -6.6757  -6.6750  -6.6739  -1.6582  -1.4660
 -1.3686  -1.2136  -1.1364  -1.0664  -1.0189  -0.9943  -0.9583  -0.9128
 -0.8636  -0.8055  -0.7889  -0.7590  -0.7299  -0.7231  -0.6937  -0.6834
 -0.6728  -0.6604  -0.6119  -0.5956  -0.5906  -0.5781  -0.5626  -0.5580
 -0.5353  -0.5290  -0.5073  -0.4966  -0.4742  -0.4716  -0.4702  -0.4528
 -0.3825  -0.3446  -0.2849

          Ground-State Mulliken Net Atomic Charges

     Atom                 Charge (a.u.)
  ----------------------------------------
      1 C                     0.005719
      2 S                     0.083967
      3 C                    -0.203875
      4 C                    -0.030756
      5 C                    -0.084132
      6 S                     0.001036
      7 C                    -0.155517
      8 C                     0.388109
      9 F                    -0.207788
     10 C                     0.446315
     11 O                    -0.462744
     12 O                    -0.301033
     13 C                    -0.058451
     14 H                     0.121141
     15 H                     0.094760
     16 H                     0.094694
     17 C                    -0.385221
     18 H                     0.136009
     19 H                     0.162946
     20 H                     0.143310
     21 H                     0.211509
  ----------------------------------------
  Sum of atomic charges =     0.000000

                    Cartesian Multipole Moments
 -----------------------------------------------------------------
    Charge (ESU x 10^10)
                -0.0000
    Dipole Moment (Debye)
         X       0.5620      Y       0.3902      Z       2.8148
       Tot       2.8967
    Quadrupole Moments (Debye-Ang)
        XX     -93.6787     XY       6.4942     YY     -84.3106
        XZ      -4.8399     YZ      -7.9810     ZZ     -96.9639

 Total job time:  60.20s(wall), 1997.17s(cpu)
        *  Thank you very much for using Q-Chem.  Have a nice day.  *
