 Q-Chem 5.4, Q-Chem, Inc., Pleasanton, CA (2021)
 Q-Chem 5.4.0 for Intel X86 EM64T Linux

User input:
--------------------------------------------------------------
$molecule
0 1
C	-0.269605	-0.955820	0.978203
S	-0.035005	-0.082020	2.485703
C	0.371295	1.437180	1.697103
C	-0.034805	-0.082420	-0.089697
C	0.322795	1.260980	0.291803
S	-0.095105	-0.318420	-1.827297
C	0.352995	1.374980	-2.076297
C	0.533895	2.059780	-0.884397
F	0.875195	3.352180	-0.840897
C	0.470695	1.807280	-3.477897
O	0.279195	1.061580	-4.428297
O	0.813095	3.113680	-3.590997
C	0.946195	3.590580	-4.937997
H	1.224495	4.655880	-4.854897
H	-0.007905	3.480480	-5.491997
H	1.730495	3.025480	-5.481097
C	-0.269605	-2.391020	0.978203
H	0.092795	-2.399020	-0.039197
H	0.520495	-3.068920	1.265503
H	-1.155505	-2.922120	0.662803
H	0.609095	2.330280	2.284703
$end

$rem
JOBTYPE		SP
EXCHANGE	HF
CORRELATION	pRIMP2
BASIS		cc-pvtz
METHOD		rimp2
AUX_BASIS	rimp2-cc-pvtz
SOLVENT_METHOD	PCM
PURECART	11111
SYMMETRY	false
MEM_TOTAL	110000
SCF_CONVERGENCE = 6
THRESH=10
GUI = 2
$end

$solvent
dielectric 4.90
$end
--------------------------------------------------------------

             Standard Nuclear Orientation (Angstroms)
    I     Atom           X                Y                Z
 ----------------------------------------------------------------
    1      C      -0.2696050000    -0.9558200000     0.9782030000
    2      S      -0.0350050000    -0.0820200000     2.4857030000
    3      C       0.3712950000     1.4371800000     1.6971030000
    4      C      -0.0348050000    -0.0824200000    -0.0896970000
    5      C       0.3227950000     1.2609800000     0.2918030000
    6      S      -0.0951050000    -0.3184200000    -1.8272970000
    7      C       0.3529950000     1.3749800000    -2.0762970000
    8      C       0.5338950000     2.0597800000    -0.8843970000
    9      F       0.8751950000     3.3521800000    -0.8408970000
   10      C       0.4706950000     1.8072800000    -3.4778970000
   11      O       0.2791950000     1.0615800000    -4.4282970000
   12      O       0.8130950000     3.1136800000    -3.5909970000
   13      C       0.9461950000     3.5905800000    -4.9379970000
   14      H       1.2244950000     4.6558800000    -4.8548970000
   15      H      -0.0079050000     3.4804800000    -5.4919970000
   16      H       1.7304950000     3.0254800000    -5.4810970000
   17      C      -0.2696050000    -2.3910200000     0.9782030000
   18      H       0.0927950000    -2.3990200000    -0.0391970000
   19      H       0.5204950000    -3.0689200000     1.2655030000
   20      H      -1.1555050000    -2.9221200000     0.6628030000
   21      H       0.6090950000     2.3302800000     2.2847030000
 ----------------------------------------------------------------

   11   -1389.2679521744      4.65e-07  Convergence criterion met
 Total energy in the final basis set =    -1389.2679521744
        RIMP2         total energy =     -1391.7749157684 a.u.

                    Orbital Energies (a.u.)
 --------------------------------------------------------------

 Alpha MOs
 -- Occupied --
-92.0035 -91.9944 -26.3414 -20.6137 -20.5598 -11.4078 -11.3800 -11.3001
-11.2947 -11.2936 -11.2894 -11.2883 -11.2790 -11.2256  -9.0026  -8.9945
 -6.6834  -6.6827  -6.6823  -6.6756  -6.6749  -6.6738  -1.6585  -1.4661
 -1.3687  -1.2139  -1.1357  -1.0681  -1.0189  -0.9946  -0.9584  -0.9137
 -0.8636  -0.8053  -0.7892  -0.7594  -0.7300  -0.7233  -0.6945  -0.6835
 -0.6729  -0.6611  -0.6071  -0.6034  -0.5916  -0.5846  -0.5657  -0.5572
 -0.5364  -0.5302  -0.5074  -0.4875  -0.4734  -0.4718  -0.4644  -0.4546
 -0.3905  -0.3444  -0.2919

          Ground-State Mulliken Net Atomic Charges

     Atom                 Charge (a.u.)
  ----------------------------------------
      1 C                     0.028774
      2 S                     0.075870
      3 C                    -0.203019
      4 C                    -0.016177
      5 C                    -0.095104
      6 S                    -0.005848
      7 C                    -0.157888
      8 C                     0.389377
      9 F                    -0.207549
     10 C                     0.445404
     11 O                    -0.462864
     12 O                    -0.301030
     13 C                    -0.058483
     14 H                     0.121137
     15 H                     0.094799
     16 H                     0.094686
     17 C                    -0.368416
     18 H                     0.117391
     19 H                     0.158803
     20 H                     0.137634
     21 H                     0.212503
  ----------------------------------------
  Sum of atomic charges =     0.000000

                    Cartesian Multipole Moments
 -----------------------------------------------------------------
    Charge (ESU x 10^10)
                -0.0000
    Dipole Moment (Debye)
         X       0.8002      Y       0.5897      Z       2.5913
       Tot       2.7754
    Quadrupole Moments (Debye-Ang)
        XX     -95.7327     XY       2.1633     YY     -82.0037
        XZ      -1.5273     YZ      -8.2548     ZZ     -97.9072

 Total job time:  57.79s(wall), 1946.67s(cpu)
        *  Thank you very much for using Q-Chem.  Have a nice day.  *
