 Q-Chem 5.4, Q-Chem, Inc., Pleasanton, CA (2021)
 Q-Chem 5.4.0 for Intel X86 EM64T Linux

User input:
--------------------------------------------------------------
$molecule
0 1
C	-0.088080	-0.987267	0.975276
S	-0.008780	-0.085967	2.482776
C	0.127520	1.480633	1.694176
C	-0.008480	-0.086367	-0.092624
C	0.110320	1.298733	0.288876
S	-0.026880	-0.329267	-1.830224
C	0.120220	1.416233	-2.079224
C	0.179520	2.122133	-0.887324
F	0.291220	3.454033	-0.843824
C	0.161220	1.862433	-3.480824
O	0.102020	1.094833	-4.431224
O	0.271420	3.208433	-3.593924
C	0.319820	3.701233	-4.940924
H	0.408820	4.798633	-4.857824
H	-0.600680	3.427033	-5.494924
H	1.190320	3.280833	-5.484024
C	-0.088080	-2.422467	0.975276
H	-1.150280	-2.430467	1.170176
H	-0.234380	-3.100367	0.147376
H	0.081720	-2.953567	1.900176
H	0.206720	2.401533	2.281776
$end

$rem
JOBTYPE		SP
EXCHANGE	HF
CORRELATION	pRIMP2
BASIS		cc-pvtz
METHOD		rimp2
AUX_BASIS	rimp2-cc-pvtz
SOLVENT_METHOD	PCM
PURECART	11111
SYMMETRY	false
MEM_TOTAL	110000
SCF_CONVERGENCE = 6
THRESH=10
GUI = 2
$end

$solvent
dielectric 4.90
$end
--------------------------------------------------------------

             Standard Nuclear Orientation (Angstroms)
    I     Atom           X                Y                Z
 ----------------------------------------------------------------
    1      C      -0.0880800000    -0.9872670000     0.9752760000
    2      S      -0.0087800000    -0.0859670000     2.4827760000
    3      C       0.1275200000     1.4806330000     1.6941760000
    4      C      -0.0084800000    -0.0863670000    -0.0926240000
    5      C       0.1103200000     1.2987330000     0.2888760000
    6      S      -0.0268800000    -0.3292670000    -1.8302240000
    7      C       0.1202200000     1.4162330000    -2.0792240000
    8      C       0.1795200000     2.1221330000    -0.8873240000
    9      F       0.2912200000     3.4540330000    -0.8438240000
   10      C       0.1612200000     1.8624330000    -3.4808240000
   11      O       0.1020200000     1.0948330000    -4.4312240000
   12      O       0.2714200000     3.2084330000    -3.5939240000
   13      C       0.3198200000     3.7012330000    -4.9409240000
   14      H       0.4088200000     4.7986330000    -4.8578240000
   15      H      -0.6006800000     3.4270330000    -5.4949240000
   16      H       1.1903200000     3.2808330000    -5.4840240000
   17      C      -0.0880800000    -2.4224670000     0.9752760000
   18      H      -1.1502800000    -2.4304670000     1.1701760000
   19      H      -0.2343800000    -3.1003670000     0.1473760000
   20      H       0.0817200000    -2.9535670000     1.9001760000
   21      H       0.2067200000     2.4015330000     2.2817760000
 ----------------------------------------------------------------

   11   -1389.2717254630      5.28e-07  Convergence criterion met
 Total energy in the final basis set =    -1389.2717254630
        RIMP2         total energy =     -1391.7752446656 a.u.

                    Orbital Energies (a.u.)
 --------------------------------------------------------------

 Alpha MOs
 -- Occupied --
-92.0065 -91.9894 -26.3394 -20.6133 -20.5594 -11.4071 -11.3770 -11.3029
-11.2941 -11.2914 -11.2879 -11.2790 -11.2778 -11.2311  -9.0053  -8.9896
 -6.6861  -6.6856  -6.6850  -6.6707  -6.6700  -6.6689  -1.6567  -1.4656
 -1.3682  -1.2107  -1.1362  -1.0663  -1.0179  -0.9958  -0.9576  -0.9132
 -0.8626  -0.8042  -0.7876  -0.7580  -0.7304  -0.7217  -0.6919  -0.6830
 -0.6723  -0.6598  -0.6129  -0.5943  -0.5891  -0.5816  -0.5617  -0.5579
 -0.5323  -0.5267  -0.5175  -0.4991  -0.4719  -0.4718  -0.4702  -0.4598
 -0.3838  -0.3452  -0.2800

          Ground-State Mulliken Net Atomic Charges

     Atom                 Charge (a.u.)
  ----------------------------------------
      1 C                     0.043978
      2 S                     0.076662
      3 C                    -0.229164
      4 C                    -0.021946
      5 C                    -0.096539
      6 S                    -0.017187
      7 C                    -0.157823
      8 C                     0.391884
      9 F                    -0.209438
     10 C                     0.445518
     11 O                    -0.461970
     12 O                    -0.300600
     13 C                    -0.058734
     14 H                     0.121089
     15 H                     0.094692
     16 H                     0.094679
     17 C                    -0.391067
     18 H                     0.146268
     19 H                     0.170479
     20 H                     0.146027
     21 H                     0.213191
  ----------------------------------------
  Sum of atomic charges =     0.000000

                    Cartesian Multipole Moments
 -----------------------------------------------------------------
    Charge (ESU x 10^10)
                -0.0000
    Dipole Moment (Debye)
         X      -0.5830      Y      -0.0675      Z       3.4603
       Tot       3.5097
    Quadrupole Moments (Debye-Ang)
        XX     -96.7970     XY       2.9470     YY     -80.3848
        XZ      -1.3312     YZ     -11.0512     ZZ     -96.2052

 Total job time:  54.13s(wall), 1935.44s(cpu)
        *  Thank you very much for using Q-Chem.  Have a nice day.  *
