 Q-Chem 5.4, Q-Chem, Inc., Pleasanton, CA (2021)
 Q-Chem 5.4.0 for Intel X86 EM64T Linux

User input:
--------------------------------------------------------------
$molecule
0 1
C	-0.902448	-0.471137	0.977865
S	-0.118648	-0.019137	2.485365
C	1.242852	0.767763	1.696765
C	-0.118748	-0.019537	-0.090035
C	1.083952	0.677463	0.291465
S	-0.328348	-0.143837	-1.827635
C	1.185952	0.736763	-2.076635
C	1.798052	1.093063	-0.884735
F	2.953252	1.765563	-0.841235
C	1.574852	0.959163	-3.478235
O	0.912152	0.567363	-4.428635
O	2.740752	1.640863	-3.591335
C	3.172052	1.883963	-4.938335
H	4.122152	2.440463	-4.855235
H	2.419552	2.480763	-5.492335
H	3.327052	0.929763	-5.481435
C	-0.902448	-1.906337	0.977865
H	-0.213948	-1.914337	0.145765
H	-0.258248	-2.584237	1.518065
H	-1.627048	-2.437437	0.378565
H	2.042552	1.231163	2.284365
$end

$rem
JOBTYPE		SP
EXCHANGE	HF
CORRELATION	pRIMP2
BASIS		cc-pvtz
METHOD		rimp2
AUX_BASIS	rimp2-cc-pvtz
SOLVENT_METHOD	PCM
PURECART	11111
SYMMETRY	false
MEM_TOTAL	110000
SCF_CONVERGENCE = 6
THRESH=10
GUI = 2
$end

$solvent
dielectric 4.90
$end
--------------------------------------------------------------

             Standard Nuclear Orientation (Angstroms)
    I     Atom           X                Y                Z
 ----------------------------------------------------------------
    1      C      -0.9024480000    -0.4711370000     0.9778650000
    2      S      -0.1186480000    -0.0191370000     2.4853650000
    3      C       1.2428520000     0.7677630000     1.6967650000
    4      C      -0.1187480000    -0.0195370000    -0.0900350000
    5      C       1.0839520000     0.6774630000     0.2914650000
    6      S      -0.3283480000    -0.1438370000    -1.8276350000
    7      C       1.1859520000     0.7367630000    -2.0766350000
    8      C       1.7980520000     1.0930630000    -0.8847350000
    9      F       2.9532520000     1.7655630000    -0.8412350000
   10      C       1.5748520000     0.9591630000    -3.4782350000
   11      O       0.9121520000     0.5673630000    -4.4286350000
   12      O       2.7407520000     1.6408630000    -3.5913350000
   13      C       3.1720520000     1.8839630000    -4.9383350000
   14      H       4.1221520000     2.4404630000    -4.8552350000
   15      H       2.4195520000     2.4807630000    -5.4923350000
   16      H       3.3270520000     0.9297630000    -5.4814350000
   17      C      -0.9024480000    -1.9063370000     0.9778650000
   18      H      -0.2139480000    -1.9143370000     0.1457650000
   19      H      -0.2582480000    -2.5842370000     1.5180650000
   20      H      -1.6270480000    -2.4374370000     0.3785650000
   21      H       2.0425520000     1.2311630000     2.2843650000
 ----------------------------------------------------------------

   11   -1389.1863247032      6.85e-07  Convergence criterion met
 Total energy in the final basis set =    -1389.1863247032
        RIMP2         total energy =     -1391.7074427076 a.u.

                    Orbital Energies (a.u.)
 --------------------------------------------------------------

 Alpha MOs
 -- Occupied --
-92.0061 -92.0058 -26.3445 -20.6145 -20.5603 -11.4089 -11.3846 -11.3226
-11.3052 -11.2950 -11.2889 -11.2817 -11.2601 -11.2125  -9.0055  -9.0054
 -6.6864  -6.6860  -6.6857  -6.6851  -6.6850  -6.6847  -1.6616  -1.4669
 -1.3696  -1.2254  -1.1446  -1.0738  -1.0228  -0.9908  -0.9609  -0.9044
 -0.8668  -0.8101  -0.7923  -0.7617  -0.7332  -0.7261  -0.6999  -0.6844
 -0.6738  -0.6625  -0.6113  -0.6021  -0.5947  -0.5804  -0.5671  -0.5622
 -0.5311  -0.5181  -0.5121  -0.4893  -0.4754  -0.4727  -0.4701  -0.4457
 -0.3793  -0.3360  -0.2961

          Ground-State Mulliken Net Atomic Charges

     Atom                 Charge (a.u.)
  ----------------------------------------
      1 C                    -0.140132
      2 S                     0.107314
      3 C                    -0.152501
      4 C                     0.085127
      5 C                    -0.125632
      6 S                     0.044828
      7 C                    -0.159296
      8 C                     0.395359
      9 F                    -0.205694
     10 C                     0.449123
     11 O                    -0.464734
     12 O                    -0.301632
     13 C                    -0.058198
     14 H                     0.121219
     15 H                     0.095041
     16 H                     0.094736
     17 C                    -0.370483
     18 H                     0.110297
     19 H                     0.143966
     20 H                     0.115117
     21 H                     0.216175
  ----------------------------------------
  Sum of atomic charges =     0.000000

                    Cartesian Multipole Moments
 -----------------------------------------------------------------
    Charge (ESU x 10^10)
                -0.0000
    Dipole Moment (Debye)
         X       3.5459      Y       0.5394      Z       2.3978
       Tot       4.3144
    Quadrupole Moments (Debye-Ang)
        XX     -90.5505     XY       4.1452     YY     -91.8445
        XZ      -4.3292     YZ      -3.8124     ZZ     -95.8032

 Total job time:  54.19s(wall), 1921.07s(cpu)
        *  Thank you very much for using Q-Chem.  Have a nice day.  *
