 Q-Chem 5.4, Q-Chem, Inc., Pleasanton, CA (2021)
 Q-Chem 5.4.0 for Intel X86 EM64T Linux

User input:
--------------------------------------------------------------
$molecule
0 1
C	-0.271295	-0.955820	0.976554
S	-0.036695	-0.082020	2.484054
C	0.369605	1.437180	1.695454
C	-0.036495	-0.082420	-0.091346
C	0.321105	1.260980	0.290154
S	-0.096795	-0.318420	-1.828946
C	0.351305	1.374980	-2.077946
C	0.532205	2.059780	-0.886046
F	0.873505	3.352180	-0.842546
C	0.469005	1.807280	-3.479546
O	0.277505	1.061580	-4.429946
O	0.811405	3.113680	-3.592646
C	0.944505	3.590580	-4.939646
H	1.222805	4.655880	-4.856546
H	-0.009595	3.480480	-5.493646
H	1.728805	3.025480	-5.482746
C	-0.271295	-2.391020	0.976554
H	0.790905	-2.399020	0.781654
H	-0.124995	-3.068920	1.804454
H	-0.441095	-2.922120	0.051654
H	0.607405	2.330280	2.283054
$end

$rem
JOBTYPE		SP
EXCHANGE	HF
CORRELATION	pRIMP2
BASIS		cc-pvtz
METHOD		rimp2
AUX_BASIS	rimp2-cc-pvtz
SOLVENT_METHOD	PCM
PURECART	11111
SYMMETRY	false
MEM_TOTAL	110000
SCF_CONVERGENCE = 6
THRESH=10
GUI = 2
$end

$solvent
dielectric 4.90
$end
--------------------------------------------------------------

             Standard Nuclear Orientation (Angstroms)
    I     Atom           X                Y                Z
 ----------------------------------------------------------------
    1      C      -0.2712950000    -0.9558200000     0.9765540000
    2      S      -0.0366950000    -0.0820200000     2.4840540000
    3      C       0.3696050000     1.4371800000     1.6954540000
    4      C      -0.0364950000    -0.0824200000    -0.0913460000
    5      C       0.3211050000     1.2609800000     0.2901540000
    6      S      -0.0967950000    -0.3184200000    -1.8289460000
    7      C       0.3513050000     1.3749800000    -2.0779460000
    8      C       0.5322050000     2.0597800000    -0.8860460000
    9      F       0.8735050000     3.3521800000    -0.8425460000
   10      C       0.4690050000     1.8072800000    -3.4795460000
   11      O       0.2775050000     1.0615800000    -4.4299460000
   12      O       0.8114050000     3.1136800000    -3.5926460000
   13      C       0.9445050000     3.5905800000    -4.9396460000
   14      H       1.2228050000     4.6558800000    -4.8565460000
   15      H      -0.0095950000     3.4804800000    -5.4936460000
   16      H       1.7288050000     3.0254800000    -5.4827460000
   17      C      -0.2712950000    -2.3910200000     0.9765540000
   18      H       0.7909050000    -2.3990200000     0.7816540000
   19      H      -0.1249950000    -3.0689200000     1.8044540000
   20      H      -0.4410950000    -2.9221200000     0.0516540000
   21      H       0.6074050000     2.3302800000     2.2830540000
 ----------------------------------------------------------------

   11   -1389.2703547318      5.25e-07  Convergence criterion met
 Total energy in the final basis set =    -1389.2703547318
        RIMP2         total energy =     -1391.7750790910 a.u.

                    Orbital Energies (a.u.)
 --------------------------------------------------------------

 Alpha MOs
 -- Occupied --
-92.0057 -91.9907 -26.3399 -20.6135 -20.5596 -11.4074 -11.3776 -11.3038
-11.2945 -11.2910 -11.2880 -11.2798 -11.2786 -11.2321  -9.0046  -8.9909
 -6.6854  -6.6848  -6.6843  -6.6719  -6.6712  -6.6701  -1.6571  -1.4658
 -1.3684  -1.2118  -1.1369  -1.0675  -1.0179  -0.9952  -0.9578  -0.9125
 -0.8628  -0.8041  -0.7880  -0.7585  -0.7305  -0.7221  -0.6923  -0.6832
 -0.6726  -0.6599  -0.6120  -0.5952  -0.5921  -0.5835  -0.5611  -0.5603
 -0.5312  -0.5265  -0.5147  -0.5005  -0.4722  -0.4714  -0.4697  -0.4610
 -0.3837  -0.3450  -0.2805

          Ground-State Mulliken Net Atomic Charges

     Atom                 Charge (a.u.)
  ----------------------------------------
      1 C                     0.052030
      2 S                     0.079789
      3 C                    -0.233980
      4 C                    -0.043170
      5 C                    -0.084628
      6 S                    -0.015896
      7 C                    -0.154724
      8 C                     0.387371
      9 F                    -0.208895
     10 C                     0.446470
     11 O                    -0.461830
     12 O                    -0.300729
     13 C                    -0.058502
     14 H                     0.121099
     15 H                     0.094798
     16 H                     0.094597
     17 C                    -0.389606
     18 H                     0.150102
     19 H                     0.166672
     20 H                     0.147150
     21 H                     0.211882
  ----------------------------------------
  Sum of atomic charges =     0.000000

                    Cartesian Multipole Moments
 -----------------------------------------------------------------
    Charge (ESU x 10^10)
                -0.0000
    Dipole Moment (Debye)
         X       1.1684      Y      -0.1227      Z       3.1573
       Tot       3.3688
    Quadrupole Moments (Debye-Ang)
        XX     -96.6961     XY       1.1696     YY     -81.1651
        XZ      -1.4653     YZ     -10.4186     ZZ     -96.6833

 Total job time:  59.93s(wall), 1937.54s(cpu)
        *  Thank you very much for using Q-Chem.  Have a nice day.  *
