 Q-Chem 5.4, Q-Chem, Inc., Pleasanton, CA (2021)
 Q-Chem 5.4.0 for Intel X86 EM64T Linux

User input:
--------------------------------------------------------------
$molecule
0 1
C	-0.353699	-0.928548	0.974537
S	-0.043799	-0.078548	2.482037
C	0.493301	1.399452	1.693437
C	-0.043699	-0.078948	-0.093363
C	0.429601	1.228152	0.288137
S	-0.124299	-0.308748	-1.830963
C	0.469601	1.339152	-2.079963
C	0.709601	2.005552	-0.888063
F	1.162201	3.263252	-0.844563
C	0.624601	1.759552	-3.481563
O	0.368801	1.033352	-4.431963
O	1.079501	3.031152	-3.594663
C	1.253801	3.494552	-4.941663
H	1.623801	4.531652	-4.858563
H	0.293701	3.468052	-5.495663
H	1.985801	2.863252	-5.484763
C	-0.353699	-2.363748	0.974537
H	-1.285199	-2.371748	1.520937
H	-0.774299	-3.041648	0.246637
H	0.122201	-2.894848	1.785537
H	0.808101	2.268452	2.281037
$end

$rem
JOBTYPE		SP
EXCHANGE	HF
CORRELATION	pRIMP2
BASIS		cc-pvtz
METHOD		rimp2
AUX_BASIS	rimp2-cc-pvtz
SOLVENT_METHOD	PCM
PURECART	11111
SYMMETRY	false
MEM_TOTAL	110000
SCF_CONVERGENCE = 6
THRESH=10
GUI = 2
$end

$solvent
dielectric 4.90
$end
--------------------------------------------------------------

             Standard Nuclear Orientation (Angstroms)
    I     Atom           X                Y                Z
 ----------------------------------------------------------------
    1      C      -0.3536990000    -0.9285480000     0.9745370000
    2      S      -0.0437990000    -0.0785480000     2.4820370000
    3      C       0.4933010000     1.3994520000     1.6934370000
    4      C      -0.0436990000    -0.0789480000    -0.0933630000
    5      C       0.4296010000     1.2281520000     0.2881370000
    6      S      -0.1242990000    -0.3087480000    -1.8309630000
    7      C       0.4696010000     1.3391520000    -2.0799630000
    8      C       0.7096010000     2.0055520000    -0.8880630000
    9      F       1.1622010000     3.2632520000    -0.8445630000
   10      C       0.6246010000     1.7595520000    -3.4815630000
   11      O       0.3688010000     1.0333520000    -4.4319630000
   12      O       1.0795010000     3.0311520000    -3.5946630000
   13      C       1.2538010000     3.4945520000    -4.9416630000
   14      H       1.6238010000     4.5316520000    -4.8585630000
   15      H       0.2937010000     3.4680520000    -5.4956630000
   16      H       1.9858010000     2.8632520000    -5.4847630000
   17      C      -0.3536990000    -2.3637480000     0.9745370000
   18      H      -1.2851990000    -2.3717480000     1.5209370000
   19      H      -0.7742990000    -3.0416480000     0.2466370000
   20      H       0.1222010000    -2.8948480000     1.7855370000
   21      H       0.8081010000     2.2684520000     2.2810370000
 ----------------------------------------------------------------

   11   -1389.2618998366      4.92e-07  Convergence criterion met
 Total energy in the final basis set =    -1389.2618998366
        RIMP2         total energy =     -1391.7679277924 a.u.

                    Orbital Energies (a.u.)
 --------------------------------------------------------------

 Alpha MOs
 -- Occupied --
-92.0065 -91.9910 -26.3399 -20.6133 -20.5594 -11.4072 -11.3778 -11.2974
-11.2952 -11.2940 -11.2879 -11.2826 -11.2782 -11.2264  -9.0055  -8.9912
 -6.6863  -6.6857  -6.6852  -6.6722  -6.6715  -6.6704  -1.6572  -1.4656
 -1.3682  -1.2118  -1.1366  -1.0652  -1.0188  -0.9950  -0.9581  -0.9127
 -0.8631  -0.8053  -0.7879  -0.7580  -0.7305  -0.7221  -0.6916  -0.6830
 -0.6724  -0.6598  -0.6117  -0.5954  -0.5889  -0.5815  -0.5632  -0.5578
 -0.5319  -0.5279  -0.5114  -0.4941  -0.4720  -0.4713  -0.4707  -0.4593
 -0.3841  -0.3452  -0.2831

          Ground-State Mulliken Net Atomic Charges

     Atom                 Charge (a.u.)
  ----------------------------------------
      1 C                    -0.004060
      2 S                     0.074344
      3 C                    -0.210068
      4 C                     0.006525
      5 C                    -0.098639
      6 S                    -0.007963
      7 C                    -0.157468
      8 C                     0.390616
      9 F                    -0.209130
     10 C                     0.446245
     11 O                    -0.462149
     12 O                    -0.300821
     13 C                    -0.058500
     14 H                     0.120963
     15 H                     0.094695
     16 H                     0.094699
     17 C                    -0.381136
     18 H                     0.135112
     19 H                     0.166314
     20 H                     0.146416
     21 H                     0.214007
  ----------------------------------------
  Sum of atomic charges =     0.000000

                    Cartesian Multipole Moments
 -----------------------------------------------------------------
    Charge (ESU x 10^10)
                -0.0000
    Dipole Moment (Debye)
         X       0.1165      Y       0.2704      Z       3.5858
       Tot       3.5979
    Quadrupole Moments (Debye-Ang)
        XX     -95.2044     XY       5.3616     YY     -82.3181
        XZ      -3.2423     YZ     -10.4309     ZZ     -95.7471

 Total job time:  55.18s(wall), 1933.05s(cpu)
        *  Thank you very much for using Q-Chem.  Have a nice day.  *
