 Q-Chem 5.4, Q-Chem, Inc., Pleasanton, CA (2021)
 Q-Chem 5.4.0 for Intel X86 EM64T Linux

User input:
--------------------------------------------------------------
$molecule
0 1
C	-0.799292	-0.619704	0.976554
S	-0.105892	-0.038504	2.484054
C	1.098208	0.972896	1.695454
C	-0.105992	-0.038904	-0.091346
C	0.957508	0.856396	0.290154
S	-0.290692	-0.197704	-1.828946
C	1.047608	0.932496	-2.077946
C	1.588608	1.389696	-0.886046
F	2.609408	2.252596	-0.842546
C	1.392008	1.219096	-3.479546
O	0.807408	0.718096	-4.429946
O	2.421808	2.092896	-3.592646
C	2.804408	2.407096	-4.939646
H	3.643308	3.120196	-4.856546
H	1.959708	2.864196	-5.493646
H	3.122708	1.494396	-5.482746
C	-0.799292	-2.054904	0.976554
H	0.262908	-2.062904	0.781654
H	-0.652992	-2.732804	1.804454
H	-0.969092	-2.586004	0.051654
H	1.805408	1.568096	2.283054
$end

$rem
JOBTYPE		SP
EXCHANGE	HF
CORRELATION	pRIMP2
BASIS		cc-pvtz
METHOD		rimp2
AUX_BASIS	rimp2-cc-pvtz
SOLVENT_METHOD	PCM
PURECART	11111
SYMMETRY	false
MEM_TOTAL	110000
SCF_CONVERGENCE = 6
THRESH=10
GUI = 2
$end

$solvent
dielectric 4.90
$end
--------------------------------------------------------------

             Standard Nuclear Orientation (Angstroms)
    I     Atom           X                Y                Z
 ----------------------------------------------------------------
    1      C      -0.7992920000    -0.6197040000     0.9765540000
    2      S      -0.1058920000    -0.0385040000     2.4840540000
    3      C       1.0982080000     0.9728960000     1.6954540000
    4      C      -0.1059920000    -0.0389040000    -0.0913460000
    5      C       0.9575080000     0.8563960000     0.2901540000
    6      S      -0.2906920000    -0.1977040000    -1.8289460000
    7      C       1.0476080000     0.9324960000    -2.0779460000
    8      C       1.5886080000     1.3896960000    -0.8860460000
    9      F       2.6094080000     2.2525960000    -0.8425460000
   10      C       1.3920080000     1.2190960000    -3.4795460000
   11      O       0.8074080000     0.7180960000    -4.4299460000
   12      O       2.4218080000     2.0928960000    -3.5926460000
   13      C       2.8044080000     2.4070960000    -4.9396460000
   14      H       3.6433080000     3.1201960000    -4.8565460000
   15      H       1.9597080000     2.8641960000    -5.4936460000
   16      H       3.1227080000     1.4943960000    -5.4827460000
   17      C      -0.7992920000    -2.0549040000     0.9765540000
   18      H       0.2629080000    -2.0629040000     0.7816540000
   19      H      -0.6529920000    -2.7328040000     1.8044540000
   20      H      -0.9690920000    -2.5860040000     0.0516540000
   21      H       1.8054080000     1.5680960000     2.2830540000
 ----------------------------------------------------------------

   11   -1389.2223893949      5.04e-07  Convergence criterion met
 Total energy in the final basis set =    -1389.2223893949
        RIMP2         total energy =     -1391.7382726062 a.u.

                    Orbital Energies (a.u.)
 --------------------------------------------------------------

 Alpha MOs
 -- Occupied --
-92.0047 -91.9985 -26.3423 -20.6142 -20.5603 -11.4085 -11.3810 -11.3096
-11.2954 -11.2920 -11.2886 -11.2824 -11.2819 -11.2244  -9.0041  -8.9984
 -6.6849  -6.6841  -6.6838  -6.6794  -6.6787  -6.6776  -1.6595  -1.4666
 -1.3693  -1.2199  -1.1430  -1.0700  -1.0209  -0.9916  -0.9598  -0.9070
 -0.8654  -0.8079  -0.7905  -0.7601  -0.7325  -0.7243  -0.6959  -0.6841
 -0.6734  -0.6613  -0.6131  -0.5994  -0.5958  -0.5738  -0.5646  -0.5610
 -0.5311  -0.5223  -0.5097  -0.5025  -0.4744  -0.4727  -0.4717  -0.4546
 -0.3809  -0.3447  -0.2839

          Ground-State Mulliken Net Atomic Charges

     Atom                 Charge (a.u.)
  ----------------------------------------
      1 C                    -0.061077
      2 S                     0.094309
      3 C                    -0.190456
      4 C                     0.025988
      5 C                    -0.100350
      6 S                     0.018312
      7 C                    -0.153208
      8 C                     0.390123
      9 F                    -0.207441
     10 C                     0.448548
     11 O                    -0.462601
     12 O                    -0.301079
     13 C                    -0.058367
     14 H                     0.121195
     15 H                     0.095004
     16 H                     0.094766
     17 C                    -0.378080
     18 H                     0.121875
     19 H                     0.156867
     20 H                     0.131907
     21 H                     0.213766
  ----------------------------------------
  Sum of atomic charges =     0.000000

                    Cartesian Multipole Moments
 -----------------------------------------------------------------
    Charge (ESU x 10^10)
                -0.0000
    Dipole Moment (Debye)
         X       2.6947      Y       0.2536      Z       2.8614
       Tot       3.9387
    Quadrupole Moments (Debye-Ang)
        XX     -92.3274     XY       4.8141     YY     -88.7948
        XZ      -5.0519     YZ      -6.3108     ZZ     -95.7056

 Total job time:  59.25s(wall), 2026.67s(cpu)
        *  Thank you very much for using Q-Chem.  Have a nice day.  *
