 Q-Chem 5.4, Q-Chem, Inc., Pleasanton, CA (2021)
 Q-Chem 5.4.0 for Intel X86 EM64T Linux

User input:
--------------------------------------------------------------
$molecule
0 1
C	-0.440491	-0.893839	0.978067
S	-0.057691	-0.074039	2.485567
C	0.606209	1.351461	1.696967
C	-0.057591	-0.074439	-0.089833
C	0.527809	1.186461	0.291667
S	-0.157891	-0.296439	-1.827433
C	0.577309	1.293461	-2.076433
C	0.874509	1.936461	-0.884533
F	1.435009	3.149961	-0.841033
C	0.768409	1.698761	-3.478033
O	0.450309	0.997661	-4.428433
O	1.332409	2.925861	-3.591133
C	1.546409	3.372361	-4.938133
H	2.005309	4.373161	-4.855033
H	0.587609	3.429561	-5.492133
H	2.220609	2.679661	-5.481233
C	-0.440491	-2.329039	0.978067
H	0.093009	-2.337039	0.039067
H	0.287709	-3.006939	1.398167
H	-1.258191	-2.860139	0.513667
H	0.995509	2.189761	2.284567
$end

$rem
JOBTYPE		SP
EXCHANGE	HF
CORRELATION	pRIMP2
BASIS		cc-pvtz
METHOD		rimp2
AUX_BASIS	rimp2-cc-pvtz
SOLVENT_METHOD	PCM
PURECART	11111
SYMMETRY	false
MEM_TOTAL	110000
SCF_CONVERGENCE = 6
THRESH=10
GUI = 2
$end

$solvent
dielectric 4.90
$end
--------------------------------------------------------------

             Standard Nuclear Orientation (Angstroms)
    I     Atom           X                Y                Z
 ----------------------------------------------------------------
    1      C      -0.4404910000    -0.8938390000     0.9780670000
    2      S      -0.0576910000    -0.0740390000     2.4855670000
    3      C       0.6062090000     1.3514610000     1.6969670000
    4      C      -0.0575910000    -0.0744390000    -0.0898330000
    5      C       0.5278090000     1.1864610000     0.2916670000
    6      S      -0.1578910000    -0.2964390000    -1.8274330000
    7      C       0.5773090000     1.2934610000    -2.0764330000
    8      C       0.8745090000     1.9364610000    -0.8845330000
    9      F       1.4350090000     3.1499610000    -0.8410330000
   10      C       0.7684090000     1.6987610000    -3.4780330000
   11      O       0.4503090000     0.9976610000    -4.4284330000
   12      O       1.3324090000     2.9258610000    -3.5911330000
   13      C       1.5464090000     3.3723610000    -4.9381330000
   14      H       2.0053090000     4.3731610000    -4.8550330000
   15      H       0.5876090000     3.4295610000    -5.4921330000
   16      H       2.2206090000     2.6796610000    -5.4812330000
   17      C      -0.4404910000    -2.3290390000     0.9780670000
   18      H       0.0930090000    -2.3370390000     0.0390670000
   19      H       0.2877090000    -3.0069390000     1.3981670000
   20      H      -1.2581910000    -2.8601390000     0.5136670000
   21      H       0.9955090000     2.1897610000     2.2845670000
 ----------------------------------------------------------------

   11   -1389.2588797961      4.73e-07  Convergence criterion met
 Total energy in the final basis set =    -1389.2588797961
        RIMP2         total energy =     -1391.7678119378 a.u.

                    Orbital Energies (a.u.)
 --------------------------------------------------------------

 Alpha MOs
 -- Occupied --
-92.0045 -91.9954 -26.3416 -20.6138 -20.5598 -11.4079 -11.3802 -11.3009
-11.2947 -11.2915 -11.2889 -11.2883 -11.2792 -11.2241  -9.0034  -8.9955
 -6.6842  -6.6835  -6.6831  -6.6766  -6.6759  -6.6747  -1.6587  -1.4662
 -1.3688  -1.2146  -1.1367  -1.0683  -1.0191  -0.9938  -0.9585  -0.9124
 -0.8638  -0.8056  -0.7894  -0.7594  -0.7300  -0.7235  -0.6946  -0.6836
 -0.6730  -0.6610  -0.6076  -0.6013  -0.5915  -0.5863  -0.5648  -0.5588
 -0.5319  -0.5301  -0.5080  -0.4882  -0.4734  -0.4719  -0.4648  -0.4572
 -0.3872  -0.3438  -0.2912

          Ground-State Mulliken Net Atomic Charges

     Atom                 Charge (a.u.)
  ----------------------------------------
      1 C                     0.009991
      2 S                     0.080461
      3 C                    -0.203720
      4 C                    -0.017314
      5 C                    -0.087346
      6 S                     0.000316
      7 C                    -0.157325
      8 C                     0.387664
      9 F                    -0.207292
     10 C                     0.446731
     11 O                    -0.462864
     12 O                    -0.301125
     13 C                    -0.058471
     14 H                     0.121174
     15 H                     0.094840
     16 H                     0.094687
     17 C                    -0.375279
     18 H                     0.122358
     19 H                     0.163105
     20 H                     0.137204
     21 H                     0.212205
  ----------------------------------------
  Sum of atomic charges =     0.000000

                    Cartesian Multipole Moments
 -----------------------------------------------------------------
    Charge (ESU x 10^10)
                -0.0000
    Dipole Moment (Debye)
         X       1.3147      Y       0.5550      Z       2.6113
       Tot       2.9758
    Quadrupole Moments (Debye-Ang)
        XX     -94.9070     XY       3.4129     YY     -83.5961
        XZ      -2.5971     YZ      -7.8319     ZZ     -97.5505

 Total job time:  57.25s(wall), 2017.74s(cpu)
        *  Thank you very much for using Q-Chem.  Have a nice day.  *
