 Q-Chem 5.4, Q-Chem, Inc., Pleasanton, CA (2021)
 Q-Chem 5.4.0 for Intel X86 EM64T Linux

User input:
--------------------------------------------------------------
$molecule
0 1
C	-0.899427	-0.471137	0.977564
S	-0.115627	-0.019137	2.485064
C	1.245873	0.767763	1.696464
C	-0.115727	-0.019537	-0.090336
C	1.086973	0.677463	0.291164
S	-0.325327	-0.143837	-1.827936
C	1.188973	0.736763	-2.076936
C	1.801073	1.093063	-0.885036
F	2.956273	1.765563	-0.841536
C	1.577873	0.959163	-3.478536
O	0.915173	0.567363	-4.428936
O	2.743773	1.640863	-3.591636
C	3.175073	1.883963	-4.938636
H	4.125173	2.440463	-4.855536
H	2.422573	2.480763	-5.492636
H	3.330073	0.929763	-5.481736
C	-0.899427	-1.906337	0.977564
H	-1.599327	-1.914337	0.155064
H	-0.255527	-2.584237	0.436964
H	-1.615527	-2.437437	1.587164
H	2.045573	1.231163	2.284064
$end

$rem
JOBTYPE		SP
EXCHANGE	HF
CORRELATION	pRIMP2
BASIS		cc-pvtz
METHOD		rimp2
AUX_BASIS	rimp2-cc-pvtz
SOLVENT_METHOD	PCM
PURECART	11111
SYMMETRY	false
MEM_TOTAL	110000
SCF_CONVERGENCE = 6
THRESH=10
GUI = 2
$end

$solvent
dielectric 4.90
$end
--------------------------------------------------------------

             Standard Nuclear Orientation (Angstroms)
    I     Atom           X                Y                Z
 ----------------------------------------------------------------
    1      C      -0.8994270000    -0.4711370000     0.9775640000
    2      S      -0.1156270000    -0.0191370000     2.4850640000
    3      C       1.2458730000     0.7677630000     1.6964640000
    4      C      -0.1157270000    -0.0195370000    -0.0903360000
    5      C       1.0869730000     0.6774630000     0.2911640000
    6      S      -0.3253270000    -0.1438370000    -1.8279360000
    7      C       1.1889730000     0.7367630000    -2.0769360000
    8      C       1.8010730000     1.0930630000    -0.8850360000
    9      F       2.9562730000     1.7655630000    -0.8415360000
   10      C       1.5778730000     0.9591630000    -3.4785360000
   11      O       0.9151730000     0.5673630000    -4.4289360000
   12      O       2.7437730000     1.6408630000    -3.5916360000
   13      C       3.1750730000     1.8839630000    -4.9386360000
   14      H       4.1251730000     2.4404630000    -4.8555360000
   15      H       2.4225730000     2.4807630000    -5.4926360000
   16      H       3.3300730000     0.9297630000    -5.4817360000
   17      C      -0.8994270000    -1.9063370000     0.9775640000
   18      H      -1.5993270000    -1.9143370000     0.1550640000
   19      H      -0.2555270000    -2.5842370000     0.4369640000
   20      H      -1.6155270000    -2.4374370000     1.5871640000
   21      H       2.0455730000     1.2311630000     2.2840640000
 ----------------------------------------------------------------

   11   -1389.2021136127      5.99e-07  Convergence criterion met
 Total energy in the final basis set =    -1389.2021136127
        RIMP2         total energy =     -1391.7183750331 a.u.

                    Orbital Energies (a.u.)
 --------------------------------------------------------------

 Alpha MOs
 -- Occupied --
-92.0053 -91.9982 -26.3443 -20.6146 -20.5605 -11.4091 -11.3843 -11.3257
-11.3103 -11.2954 -11.2889 -11.2823 -11.2548 -11.2144  -9.0050  -8.9985
 -6.6860  -6.6852  -6.6842  -6.6791  -6.6780  -6.6780  -1.6614  -1.4670
 -1.3697  -1.2232  -1.1420  -1.0709  -1.0222  -0.9913  -0.9605  -0.9081
 -0.8667  -0.8099  -0.7920  -0.7613  -0.7327  -0.7261  -0.6987  -0.6845
 -0.6739  -0.6626  -0.6126  -0.6013  -0.5934  -0.5762  -0.5621  -0.5591
 -0.5314  -0.5237  -0.5085  -0.4947  -0.4777  -0.4730  -0.4708  -0.4317
 -0.3784  -0.3448  -0.2968

          Ground-State Mulliken Net Atomic Charges

     Atom                 Charge (a.u.)
  ----------------------------------------
      1 C                    -0.138753
      2 S                     0.093056
      3 C                    -0.133496
      4 C                     0.080826
      5 C                    -0.124745
      6 S                     0.044986
      7 C                    -0.158366
      8 C                     0.395745
      9 F                    -0.205705
     10 C                     0.448158
     11 O                    -0.464166
     12 O                    -0.301534
     13 C                    -0.058244
     14 H                     0.121286
     15 H                     0.095056
     16 H                     0.094793
     17 C                    -0.387091
     18 H                     0.110916
     19 H                     0.140080
     20 H                     0.132324
     21 H                     0.214873
  ----------------------------------------
  Sum of atomic charges =     0.000000

                    Cartesian Multipole Moments
 -----------------------------------------------------------------
    Charge (ESU x 10^10)
                -0.0000
    Dipole Moment (Debye)
         X       2.9050      Y       0.6386      Z       2.2367
       Tot       3.7215
    Quadrupole Moments (Debye-Ang)
        XX     -89.0739     XY       5.9230     YY     -91.5857
        XZ      -5.5882     YZ      -3.5849     ZZ     -96.4138

 Total job time:  82.29s(wall), 2044.12s(cpu)
        *  Thank you very much for using Q-Chem.  Have a nice day.  *
