 Q-Chem 5.4, Q-Chem, Inc., Pleasanton, CA (2021)
 Q-Chem 5.4.0 for Intel X86 EM64T Linux

User input:
--------------------------------------------------------------
$molecule
0 1
C	-0.521751	-0.851940	0.974266
S	-0.068951	-0.068640	2.481766
C	0.716649	1.293660	1.693166
C	-0.068851	-0.069040	-0.093634
C	0.624149	1.136060	0.287866
S	-0.188151	-0.281440	-1.831234
C	0.682849	1.238360	-2.080234
C	1.034849	1.852960	-0.888334
F	1.699049	3.012960	-0.844834
C	0.908549	1.625360	-3.481834
O	0.530449	0.954660	-4.432234
O	1.577249	2.798760	-3.594934
C	1.829349	3.224860	-4.941934
H	2.373849	4.181860	-4.858834
H	0.879249	3.365460	-5.495934
H	2.440649	2.476060	-5.485034
C	-0.521751	-2.287140	0.974266
H	0.178149	-2.295140	1.796766
H	-1.165651	-2.965040	1.514866
H	0.194349	-2.818240	0.364666
H	1.177549	2.094760	2.280766
$end

$rem
JOBTYPE		SP
EXCHANGE	HF
CORRELATION	pRIMP2
BASIS		cc-pvtz
METHOD		rimp2
AUX_BASIS	rimp2-cc-pvtz
SOLVENT_METHOD	PCM
PURECART	11111
SYMMETRY	false
MEM_TOTAL	110000
SCF_CONVERGENCE = 6
THRESH=10
GUI = 2
$end

$solvent
dielectric 4.90
$end
--------------------------------------------------------------

             Standard Nuclear Orientation (Angstroms)
    I     Atom           X                Y                Z
 ----------------------------------------------------------------
    1      C      -0.5217510000    -0.8519400000     0.9742660000
    2      S      -0.0689510000    -0.0686400000     2.4817660000
    3      C       0.7166490000     1.2936600000     1.6931660000
    4      C      -0.0688510000    -0.0690400000    -0.0936340000
    5      C       0.6241490000     1.1360600000     0.2878660000
    6      S      -0.1881510000    -0.2814400000    -1.8312340000
    7      C       0.6828490000     1.2383600000    -2.0802340000
    8      C       1.0348490000     1.8529600000    -0.8883340000
    9      F       1.6990490000     3.0129600000    -0.8448340000
   10      C       0.9085490000     1.6253600000    -3.4818340000
   11      O       0.5304490000     0.9546600000    -4.4322340000
   12      O       1.5772490000     2.7987600000    -3.5949340000
   13      C       1.8293490000     3.2248600000    -4.9419340000
   14      H       2.3738490000     4.1818600000    -4.8588340000
   15      H       0.8792490000     3.3654600000    -5.4959340000
   16      H       2.4406490000     2.4760600000    -5.4850340000
   17      C      -0.5217510000    -2.2871400000     0.9742660000
   18      H       0.1781490000    -2.2951400000     1.7967660000
   19      H      -1.1656510000    -2.9650400000     1.5148660000
   20      H       0.1943490000    -2.8182400000     0.3646660000
   21      H       1.1775490000     2.0947600000     2.2807660000
 ----------------------------------------------------------------

   11   -1389.2528713842      5.28e-07  Convergence criterion met
 Total energy in the final basis set =    -1389.2528713842
        RIMP2         total energy =     -1391.7605043334 a.u.

                    Orbital Energies (a.u.)
 --------------------------------------------------------------

 Alpha MOs
 -- Occupied --
-92.0030 -91.9929 -26.3410 -20.6135 -20.5596 -11.4074 -11.3794 -11.3037
-11.2941 -11.2902 -11.2884 -11.2881 -11.2788 -11.2236  -9.0027  -8.9930
 -6.6835  -6.6828  -6.6823  -6.6741  -6.6734  -6.6723  -1.6582  -1.4658
 -1.3684  -1.2144  -1.1389  -1.0660  -1.0201  -0.9932  -0.9589  -0.9102
 -0.8641  -0.8073  -0.7888  -0.7583  -0.7317  -0.7230  -0.6924  -0.6832
 -0.6727  -0.6604  -0.6097  -0.6017  -0.5929  -0.5730  -0.5646  -0.5555
 -0.5370  -0.5297  -0.5103  -0.4916  -0.4742  -0.4713  -0.4706  -0.4502
 -0.3875  -0.3458  -0.2868

          Ground-State Mulliken Net Atomic Charges

     Atom                 Charge (a.u.)
  ----------------------------------------
      1 C                     0.026458
      2 S                     0.073708
      3 C                    -0.198586
      4 C                    -0.043701
      5 C                    -0.080303
      6 S                     0.003349
      7 C                    -0.156162
      8 C                     0.388612
      9 F                    -0.208106
     10 C                     0.446092
     11 O                    -0.462425
     12 O                    -0.301126
     13 C                    -0.058487
     14 H                     0.121038
     15 H                     0.094820
     16 H                     0.094631
     17 C                    -0.380753
     18 H                     0.131954
     19 H                     0.148434
     20 H                     0.147069
     21 H                     0.213483
  ----------------------------------------
  Sum of atomic charges =     0.000000

                    Cartesian Multipole Moments
 -----------------------------------------------------------------
    Charge (ESU x 10^10)
                -0.0000
    Dipole Moment (Debye)
         X       1.6818      Y       0.4894      Z       3.6506
       Tot       4.0491
    Quadrupole Moments (Debye-Ang)
        XX     -94.5281     XY       3.9155     YY     -84.4919
        XZ      -4.0777     YZ      -9.8763     ZZ     -95.5245

 Total job time:  73.35s(wall), 2096.31s(cpu)
        *  Thank you very much for using Q-Chem.  Have a nice day.  *
