 Q-Chem 5.4, Q-Chem, Inc., Pleasanton, CA (2021)
 Q-Chem 5.4.0 for Intel X86 EM64T Linux

User input:
--------------------------------------------------------------
$molecule
0 1
C	-0.666546	-0.747937	0.976887
S	-0.084646	-0.055137	2.484387
C	0.925654	1.149963	1.695787
C	-0.084646	-0.055537	-0.091013
C	0.807154	1.010863	0.290487
S	-0.238946	-0.244037	-1.828613
C	0.882754	1.101463	-2.077613
C	1.336154	1.645563	-0.885713
F	2.191654	2.672563	-0.842213
C	1.172154	1.443363	-3.479213
O	0.683454	0.848563	-4.429613
O	2.034554	2.482763	-3.592313
C	2.356754	2.858663	-4.939313
H	3.059154	3.706563	-4.856213
H	1.445554	3.162063	-5.493313
H	2.828754	2.015063	-5.482413
C	-0.666546	-2.183137	0.976887
H	-1.605546	-2.191137	0.443387
H	-0.246446	-2.861037	0.248687
H	-1.130946	-2.714237	1.794587
H	1.518654	1.858863	2.283387
$end

$rem
JOBTYPE		SP
EXCHANGE	HF
CORRELATION	pRIMP2
BASIS		cc-pvtz
METHOD		rimp2
AUX_BASIS	rimp2-cc-pvtz
SOLVENT_METHOD	PCM
PURECART	11111
SYMMETRY	false
MEM_TOTAL	110000
SCF_CONVERGENCE = 6
THRESH=10
GUI = 2
$end

$solvent
dielectric 4.90
$end
--------------------------------------------------------------

             Standard Nuclear Orientation (Angstroms)
    I     Atom           X                Y                Z
 ----------------------------------------------------------------
    1      C      -0.6665460000    -0.7479370000     0.9768870000
    2      S      -0.0846460000    -0.0551370000     2.4843870000
    3      C       0.9256540000     1.1499630000     1.6957870000
    4      C      -0.0846460000    -0.0555370000    -0.0910130000
    5      C       0.8071540000     1.0108630000     0.2904870000
    6      S      -0.2389460000    -0.2440370000    -1.8286130000
    7      C       0.8827540000     1.1014630000    -2.0776130000
    8      C       1.3361540000     1.6455630000    -0.8857130000
    9      F       2.1916540000     2.6725630000    -0.8422130000
   10      C       1.1721540000     1.4433630000    -3.4792130000
   11      O       0.6834540000     0.8485630000    -4.4296130000
   12      O       2.0345540000     2.4827630000    -3.5923130000
   13      C       2.3567540000     2.8586630000    -4.9393130000
   14      H       3.0591540000     3.7065630000    -4.8562130000
   15      H       1.4455540000     3.1620630000    -5.4933130000
   16      H       2.8287540000     2.0150630000    -5.4824130000
   17      C      -0.6665460000    -2.1831370000     0.9768870000
   18      H      -1.6055460000    -2.1911370000     0.4433870000
   19      H      -0.2464460000    -2.8610370000     0.2486870000
   20      H      -1.1309460000    -2.7142370000     1.7945870000
   21      H       1.5186540000     1.8588630000     2.2833870000
 ----------------------------------------------------------------

   11   -1389.2373471703      4.69e-07  Convergence criterion met
 Total energy in the final basis set =    -1389.2373471703
        RIMP2         total energy =     -1391.7499625081 a.u.

                    Orbital Energies (a.u.)
 --------------------------------------------------------------

 Alpha MOs
 -- Occupied --
-92.0013 -91.9971 -26.3418 -20.6138 -20.5598 -11.4079 -11.3806 -11.3067
-11.2945 -11.2939 -11.2884 -11.2805 -11.2798 -11.2200  -9.0008  -8.9971
 -6.6816  -6.6807  -6.6804  -6.6781  -6.6774  -6.6763  -1.6590  -1.4662
 -1.3688  -1.2156  -1.1374  -1.0666  -1.0196  -0.9932  -0.9587  -0.9118
 -0.8642  -0.8066  -0.7895  -0.7594  -0.7302  -0.7238  -0.6945  -0.6836
 -0.6730  -0.6607  -0.6119  -0.5961  -0.5915  -0.5758  -0.5626  -0.5579
 -0.5339  -0.5286  -0.5068  -0.4968  -0.4752  -0.4719  -0.4705  -0.4483
 -0.3805  -0.3446  -0.2862

          Ground-State Mulliken Net Atomic Charges

     Atom                 Charge (a.u.)
  ----------------------------------------
      1 C                    -0.029289
      2 S                     0.085497
      3 C                    -0.186275
      4 C                    -0.006175
      5 C                    -0.090119
      6 S                     0.011612
      7 C                    -0.156159
      8 C                     0.389233
      9 F                    -0.207179
     10 C                     0.447069
     11 O                    -0.463183
     12 O                    -0.301222
     13 C                    -0.058435
     14 H                     0.121128
     15 H                     0.094871
     16 H                     0.094671
     17 C                    -0.391618
     18 H                     0.133581
     19 H                     0.158826
     20 H                     0.141373
     21 H                     0.211794
  ----------------------------------------
  Sum of atomic charges =     0.000000

                    Cartesian Multipole Moments
 -----------------------------------------------------------------
    Charge (ESU x 10^10)
                -0.0000
    Dipole Moment (Debye)
         X       1.1456      Y       0.5215      Z       2.7122
       Tot       2.9901
    Quadrupole Moments (Debye-Ang)
        XX     -92.0002     XY       7.0256     YY     -86.7099
        XZ      -5.6073     YZ      -6.7540     ZZ     -96.7503

 Total job time:  84.21s(wall), 2085.62s(cpu)
        *  Thank you very much for using Q-Chem.  Have a nice day.  *
