 Q-Chem 5.4, Q-Chem, Inc., Pleasanton, CA (2021)
 Q-Chem 5.4.0 for Intel X86 EM64T Linux

User input:
--------------------------------------------------------------
$molecule
0 1
C	-0.353489	-0.928548	0.974891
S	-0.043589	-0.078548	2.482391
C	0.493511	1.399452	1.693791
C	-0.043489	-0.078948	-0.093009
C	0.429811	1.228152	0.288491
S	-0.124089	-0.308748	-1.830609
C	0.469811	1.339152	-2.079609
C	0.709811	2.005552	-0.887709
F	1.162411	3.263252	-0.844209
C	0.624811	1.759552	-3.481209
O	0.369011	1.033352	-4.431609
O	1.079711	3.031152	-3.594309
C	1.254011	3.494552	-4.941309
H	1.624011	4.531652	-4.858209
H	0.293911	3.468052	-5.495309
H	1.986011	2.863252	-5.484409
C	-0.353489	-2.363748	0.974891
H	-1.365789	-2.371748	1.351291
H	-0.641289	-3.041648	0.184991
H	-0.025589	-2.894848	1.856291
H	0.808311	2.268452	2.281391
$end

$rem
JOBTYPE		SP
EXCHANGE	HF
CORRELATION	pRIMP2
BASIS		cc-pvtz
METHOD		rimp2
AUX_BASIS	rimp2-cc-pvtz
SOLVENT_METHOD	PCM
PURECART	11111
SYMMETRY	false
MEM_TOTAL	110000
SCF_CONVERGENCE = 6
THRESH=10
GUI = 2
$end

$solvent
dielectric 4.90
$end
--------------------------------------------------------------

             Standard Nuclear Orientation (Angstroms)
    I     Atom           X                Y                Z
 ----------------------------------------------------------------
    1      C      -0.3534890000    -0.9285480000     0.9748910000
    2      S      -0.0435890000    -0.0785480000     2.4823910000
    3      C       0.4935110000     1.3994520000     1.6937910000
    4      C      -0.0434890000    -0.0789480000    -0.0930090000
    5      C       0.4298110000     1.2281520000     0.2884910000
    6      S      -0.1240890000    -0.3087480000    -1.8306090000
    7      C       0.4698110000     1.3391520000    -2.0796090000
    8      C       0.7098110000     2.0055520000    -0.8877090000
    9      F       1.1624110000     3.2632520000    -0.8442090000
   10      C       0.6248110000     1.7595520000    -3.4812090000
   11      O       0.3690110000     1.0333520000    -4.4316090000
   12      O       1.0797110000     3.0311520000    -3.5943090000
   13      C       1.2540110000     3.4945520000    -4.9413090000
   14      H       1.6240110000     4.5316520000    -4.8582090000
   15      H       0.2939110000     3.4680520000    -5.4953090000
   16      H       1.9860110000     2.8632520000    -5.4844090000
   17      C      -0.3534890000    -2.3637480000     0.9748910000
   18      H      -1.3657890000    -2.3717480000     1.3512910000
   19      H      -0.6412890000    -3.0416480000     0.1849910000
   20      H      -0.0255890000    -2.8948480000     1.8562910000
   21      H       0.8083110000     2.2684520000     2.2813910000
 ----------------------------------------------------------------

   11   -1389.2615633168      4.99e-07  Convergence criterion met
 Total energy in the final basis set =    -1389.2615633168
        RIMP2         total energy =     -1391.7676118958 a.u.

                    Orbital Energies (a.u.)
 --------------------------------------------------------------

 Alpha MOs
 -- Occupied --
-92.0062 -91.9907 -26.3398 -20.6133 -20.5594 -11.4072 -11.3776 -11.2967
-11.2959 -11.2940 -11.2879 -11.2818 -11.2781 -11.2271  -9.0051  -8.9909
 -6.6860  -6.6854  -6.6848  -6.6720  -6.6713  -6.6701  -1.6571  -1.4656
 -1.3682  -1.2115  -1.1365  -1.0655  -1.0185  -0.9951  -0.9579  -0.9128
 -0.8629  -0.8050  -0.7878  -0.7580  -0.7303  -0.7220  -0.6918  -0.6830
 -0.6724  -0.6597  -0.6122  -0.5947  -0.5879  -0.5823  -0.5624  -0.5582
 -0.5317  -0.5267  -0.5129  -0.4971  -0.4719  -0.4717  -0.4706  -0.4588
 -0.3831  -0.3450  -0.2815

          Ground-State Mulliken Net Atomic Charges

     Atom                 Charge (a.u.)
  ----------------------------------------
      1 C                     0.007848
      2 S                     0.076480
      3 C                    -0.217168
      4 C                    -0.005875
      5 C                    -0.095946
      6 S                    -0.009317
      7 C                    -0.157477
      8 C                     0.391596
      9 F                    -0.209154
     10 C                     0.446387
     11 O                    -0.462114
     12 O                    -0.300803
     13 C                    -0.058494
     14 H                     0.120969
     15 H                     0.094681
     16 H                     0.094690
     17 C                    -0.383591
     18 H                     0.139467
     19 H                     0.166913
     20 H                     0.147155
     21 H                     0.213753
  ----------------------------------------
  Sum of atomic charges =     0.000000

                    Cartesian Multipole Moments
 -----------------------------------------------------------------
    Charge (ESU x 10^10)
                -0.0000
    Dipole Moment (Debye)
         X       0.0239      Y       0.1622      Z       3.5043
       Tot       3.5082
    Quadrupole Moments (Debye-Ang)
        XX     -95.2664     XY       5.5098     YY     -82.2015
        XZ      -3.3971     YZ     -10.3330     ZZ     -95.9012

 Total job time:  54.95s(wall), 2042.98s(cpu)
        *  Thank you very much for using Q-Chem.  Have a nice day.  *
