 Q-Chem 5.4, Q-Chem, Inc., Pleasanton, CA (2021)
 Q-Chem 5.4.0 for Intel X86 EM64T Linux

User input:
--------------------------------------------------------------
$molecule
0 1
C	-0.899199	-0.471137	0.974537
S	-0.115399	-0.019137	2.482037
C	1.246101	0.767763	1.693437
C	-0.115499	-0.019537	-0.093363
C	1.087201	0.677463	0.288137
S	-0.325099	-0.143837	-1.830963
C	1.189201	0.736763	-2.079963
C	1.801301	1.093063	-0.888063
F	2.956501	1.765563	-0.844563
C	1.578101	0.959163	-3.481563
O	0.915401	0.567363	-4.431963
O	2.744001	1.640863	-3.594663
C	3.175301	1.883963	-4.941663
H	4.125401	2.440463	-4.858563
H	2.422801	2.480763	-5.495663
H	3.330301	0.929763	-5.484763
C	-0.899199	-1.906337	0.974537
H	-1.830699	-1.914337	1.520937
H	-1.319799	-2.584237	0.246637
H	-0.423299	-2.437437	1.785537
H	2.045801	1.231163	2.281037
$end

$rem
JOBTYPE		SP
EXCHANGE	HF
CORRELATION	pRIMP2
BASIS		cc-pvtz
METHOD		rimp2
AUX_BASIS	rimp2-cc-pvtz
SOLVENT_METHOD	PCM
PURECART	11111
SYMMETRY	false
MEM_TOTAL	110000
SCF_CONVERGENCE = 6
THRESH=10
GUI = 2
$end

$solvent
dielectric 4.90
$end
--------------------------------------------------------------

             Standard Nuclear Orientation (Angstroms)
    I     Atom           X                Y                Z
 ----------------------------------------------------------------
    1      C      -0.8991990000    -0.4711370000     0.9745370000
    2      S      -0.1153990000    -0.0191370000     2.4820370000
    3      C       1.2461010000     0.7677630000     1.6934370000
    4      C      -0.1154990000    -0.0195370000    -0.0933630000
    5      C       1.0872010000     0.6774630000     0.2881370000
    6      S      -0.3250990000    -0.1438370000    -1.8309630000
    7      C       1.1892010000     0.7367630000    -2.0799630000
    8      C       1.8013010000     1.0930630000    -0.8880630000
    9      F       2.9565010000     1.7655630000    -0.8445630000
   10      C       1.5781010000     0.9591630000    -3.4815630000
   11      O       0.9154010000     0.5673630000    -4.4319630000
   12      O       2.7440010000     1.6408630000    -3.5946630000
   13      C       3.1753010000     1.8839630000    -4.9416630000
   14      H       4.1254010000     2.4404630000    -4.8585630000
   15      H       2.4228010000     2.4807630000    -5.4956630000
   16      H       3.3303010000     0.9297630000    -5.4847630000
   17      C      -0.8991990000    -1.9063370000     0.9745370000
   18      H      -1.8306990000    -1.9143370000     1.5209370000
   19      H      -1.3197990000    -2.5842370000     0.2466370000
   20      H      -0.4232990000    -2.4374370000     1.7855370000
   21      H       2.0458010000     1.2311630000     2.2810370000
 ----------------------------------------------------------------

   11   -1389.1921794541      6.10e-07  Convergence criterion met
 Total energy in the final basis set =    -1389.1921794541
        RIMP2         total energy =     -1391.7083472510 a.u.

                    Orbital Energies (a.u.)
 --------------------------------------------------------------

 Alpha MOs
 -- Occupied --
-92.0031 -92.0027 -26.3433 -20.6141 -20.5600 -11.4084 -11.3831 -11.3259
-11.3054 -11.2944 -11.2886 -11.2808 -11.2539 -11.2114  -9.0030  -9.0025
 -6.6837  -6.6834  -6.6827  -6.6827  -6.6826  -6.6817  -1.6605  -1.4665
 -1.3692  -1.2215  -1.1429  -1.0676  -1.0231  -0.9907  -0.9609  -0.9067
 -0.8668  -0.8112  -0.7910  -0.7601  -0.7335  -0.7252  -0.6960  -0.6840
 -0.6734  -0.6610  -0.6138  -0.5979  -0.5911  -0.5732  -0.5673  -0.5609
 -0.5312  -0.5233  -0.5082  -0.4857  -0.4744  -0.4717  -0.4704  -0.4486
 -0.3741  -0.3427  -0.2912

          Ground-State Mulliken Net Atomic Charges

     Atom                 Charge (a.u.)
  ----------------------------------------
      1 C                    -0.172233
      2 S                     0.091292
      3 C                    -0.131323
      4 C                     0.121285
      5 C                    -0.126396
      6 S                     0.039455
      7 C                    -0.159856
      8 C                     0.392528
      9 F                    -0.206688
     10 C                     0.448506
     11 O                    -0.464217
     12 O                    -0.301539
     13 C                    -0.058287
     14 H                     0.121135
     15 H                     0.094955
     16 H                     0.094731
     17 C                    -0.397769
     18 H                     0.125973
     19 H                     0.146774
     20 H                     0.124112
     21 H                     0.217563
  ----------------------------------------
  Sum of atomic charges =     0.000000

                    Cartesian Multipole Moments
 -----------------------------------------------------------------
    Charge (ESU x 10^10)
                -0.0000
    Dipole Moment (Debye)
         X       2.8130      Y       0.5807      Z       3.0281
       Tot       4.1737
    Quadrupole Moments (Debye-Ang)
        XX     -89.2325     XY       6.2122     YY     -91.6381
        XZ      -5.4380     YZ      -4.7407     ZZ     -94.7196

 Total job time:  54.02s(wall), 1979.10s(cpu)
        *  Thank you very much for using Q-Chem.  Have a nice day.  *
