 Q-Chem 5.4, Q-Chem, Inc., Pleasanton, CA (2021)
 Q-Chem 5.4.0 for Intel X86 EM64T Linux

User input:
--------------------------------------------------------------
$molecule
0 1
C	-0.518110	-0.851940	0.977246
S	-0.065310	-0.068640	2.484746
C	0.720290	1.293660	1.696146
C	-0.065210	-0.069040	-0.090654
C	0.627790	1.136060	0.290846
S	-0.184510	-0.281440	-1.828254
C	0.686490	1.238360	-2.077254
C	1.038490	1.852960	-0.885354
F	1.702690	3.012960	-0.841854
C	0.912190	1.625360	-3.478854
O	0.534090	0.954660	-4.429254
O	1.580890	2.798760	-3.591954
C	1.832990	3.224860	-4.938954
H	2.377490	4.181860	-4.855854
H	0.882890	3.365460	-5.492954
H	2.444290	2.476060	-5.482054
C	-0.518110	-2.287140	0.977246
H	-1.350210	-2.295140	0.288746
H	0.022090	-2.965040	0.333046
H	-1.117410	-2.818240	1.701846
H	1.181190	2.094760	2.283746
$end

$rem
JOBTYPE		SP
EXCHANGE	HF
CORRELATION	pRIMP2
BASIS		cc-pvtz
METHOD		rimp2
AUX_BASIS	rimp2-cc-pvtz
SOLVENT_METHOD	PCM
PURECART	11111
SYMMETRY	false
MEM_TOTAL	110000
SCF_CONVERGENCE = 6
THRESH=10
GUI = 2
$end

$solvent
dielectric 4.90
$end
--------------------------------------------------------------

             Standard Nuclear Orientation (Angstroms)
    I     Atom           X                Y                Z
 ----------------------------------------------------------------
    1      C      -0.5181100000    -0.8519400000     0.9772460000
    2      S      -0.0653100000    -0.0686400000     2.4847460000
    3      C       0.7202900000     1.2936600000     1.6961460000
    4      C      -0.0652100000    -0.0690400000    -0.0906540000
    5      C       0.6277900000     1.1360600000     0.2908460000
    6      S      -0.1845100000    -0.2814400000    -1.8282540000
    7      C       0.6864900000     1.2383600000    -2.0772540000
    8      C       1.0384900000     1.8529600000    -0.8853540000
    9      F       1.7026900000     3.0129600000    -0.8418540000
   10      C       0.9121900000     1.6253600000    -3.4788540000
   11      O       0.5340900000     0.9546600000    -4.4292540000
   12      O       1.5808900000     2.7987600000    -3.5919540000
   13      C       1.8329900000     3.2248600000    -4.9389540000
   14      H       2.3774900000     4.1818600000    -4.8558540000
   15      H       0.8828900000     3.3654600000    -5.4929540000
   16      H       2.4442900000     2.4760600000    -5.4820540000
   17      C      -0.5181100000    -2.2871400000     0.9772460000
   18      H      -1.3502100000    -2.2951400000     0.2887460000
   19      H       0.0220900000    -2.9650400000     0.3330460000
   20      H      -1.1174100000    -2.8182400000     1.7018460000
   21      H       1.1811900000     2.0947600000     2.2837460000
 ----------------------------------------------------------------

   11   -1389.2538482761      4.67e-07  Convergence criterion met
 Total energy in the final basis set =    -1389.2538482761
        RIMP2         total energy =     -1391.7634779257 a.u.

                    Orbital Energies (a.u.)
 --------------------------------------------------------------

 Alpha MOs
 -- Occupied --
-92.0023 -91.9953 -26.3413 -20.6137 -20.5598 -11.4078 -11.3799 -11.3023
-11.2945 -11.2908 -11.2883 -11.2877 -11.2794 -11.2234  -9.0016  -8.9953
 -6.6824  -6.6816  -6.6812  -6.6763  -6.6756  -6.6745  -1.6585  -1.4661
 -1.3687  -1.2141  -1.1363  -1.0667  -1.0190  -0.9942  -0.9584  -0.9129
 -0.8637  -0.8057  -0.7891  -0.7592  -0.7299  -0.7233  -0.6942  -0.6835
 -0.6729  -0.6607  -0.6115  -0.5967  -0.5912  -0.5786  -0.5632  -0.5573
 -0.5359  -0.5295  -0.5074  -0.4939  -0.4744  -0.4717  -0.4697  -0.4513
 -0.3842  -0.3447  -0.2872

          Ground-State Mulliken Net Atomic Charges

     Atom                 Charge (a.u.)
  ----------------------------------------
      1 C                     0.003214
      2 S                     0.081958
      3 C                    -0.198260
      4 C                    -0.027295
      5 C                    -0.087194
      6 S                     0.003388
      7 C                    -0.155712
      8 C                     0.387510
      9 F                    -0.207573
     10 C                     0.446414
     11 O                    -0.462793
     12 O                    -0.301075
     13 C                    -0.058441
     14 H                     0.121157
     15 H                     0.094780
     16 H                     0.094703
     17 C                    -0.380506
     18 H                     0.129571
     19 H                     0.161028
     20 H                     0.143297
     21 H                     0.211832
  ----------------------------------------
  Sum of atomic charges =     0.000000

                    Cartesian Multipole Moments
 -----------------------------------------------------------------
    Charge (ESU x 10^10)
                -0.0000
    Dipole Moment (Debye)
         X       0.6811      Y       0.4965      Z       2.6976
       Tot       2.8263
    Quadrupole Moments (Debye-Ang)
        XX     -93.6263     XY       6.2949     YY     -84.3935
        XZ      -4.6987     YZ      -7.6401     ZZ     -97.2256

 Total job time:  58.09s(wall), 1983.45s(cpu)
        *  Thank you very much for using Q-Chem.  Have a nice day.  *
