 Q-Chem 5.4, Q-Chem, Inc., Pleasanton, CA (2021)
 Q-Chem 5.4.0 for Intel X86 EM64T Linux

User input:
--------------------------------------------------------------
$molecule
0 1
C	-0.089023	-0.987267	0.973964
S	-0.009723	-0.085967	2.481464
C	0.126577	1.480633	1.692864
C	-0.009423	-0.086367	-0.093936
C	0.109377	1.298733	0.287564
S	-0.027823	-0.329267	-1.831536
C	0.119277	1.416233	-2.080536
C	0.178577	2.122133	-0.888636
F	0.290277	3.454033	-0.845136
C	0.160277	1.862433	-3.482136
O	0.101077	1.094833	-4.432536
O	0.270477	3.208433	-3.595236
C	0.318877	3.701233	-4.942236
H	0.407877	4.798633	-4.859136
H	-0.601623	3.427033	-5.496236
H	1.189377	3.280833	-5.485336
C	-0.089023	-2.422467	0.973964
H	-0.777523	-2.430467	1.806064
H	-0.733223	-3.100367	0.433764
H	0.635577	-2.953567	1.573264
H	0.205777	2.401533	2.280464
$end

$rem
JOBTYPE		SP
EXCHANGE	HF
CORRELATION	pRIMP2
BASIS		cc-pvtz
METHOD		rimp2
AUX_BASIS	rimp2-cc-pvtz
SOLVENT_METHOD	PCM
PURECART	11111
SYMMETRY	false
MEM_TOTAL	110000
SCF_CONVERGENCE = 6
THRESH=10
GUI = 2
$end

$solvent
dielectric 4.90
$end
--------------------------------------------------------------

             Standard Nuclear Orientation (Angstroms)
    I     Atom           X                Y                Z
 ----------------------------------------------------------------
    1      C      -0.0890230000    -0.9872670000     0.9739640000
    2      S      -0.0097230000    -0.0859670000     2.4814640000
    3      C       0.1265770000     1.4806330000     1.6928640000
    4      C      -0.0094230000    -0.0863670000    -0.0939360000
    5      C       0.1093770000     1.2987330000     0.2875640000
    6      S      -0.0278230000    -0.3292670000    -1.8315360000
    7      C       0.1192770000     1.4162330000    -2.0805360000
    8      C       0.1785770000     2.1221330000    -0.8886360000
    9      F       0.2902770000     3.4540330000    -0.8451360000
   10      C       0.1602770000     1.8624330000    -3.4821360000
   11      O       0.1010770000     1.0948330000    -4.4325360000
   12      O       0.2704770000     3.2084330000    -3.5952360000
   13      C       0.3188770000     3.7012330000    -4.9422360000
   14      H       0.4078770000     4.7986330000    -4.8591360000
   15      H      -0.6016230000     3.4270330000    -5.4962360000
   16      H       1.1893770000     3.2808330000    -5.4853360000
   17      C      -0.0890230000    -2.4224670000     0.9739640000
   18      H      -0.7775230000    -2.4304670000     1.8060640000
   19      H      -0.7332230000    -3.1003670000     0.4337640000
   20      H       0.6355770000    -2.9535670000     1.5732640000
   21      H       0.2057770000     2.4015330000     2.2804640000
 ----------------------------------------------------------------

   11   -1389.2705989788      5.02e-07  Convergence criterion met
 Total energy in the final basis set =    -1389.2705989788
        RIMP2         total energy =     -1391.7748705055 a.u.

                    Orbital Energies (a.u.)
 --------------------------------------------------------------

 Alpha MOs
 -- Occupied --
-92.0073 -91.9907 -26.3400 -20.6133 -20.5594 -11.4072 -11.3778 -11.2974
-11.2963 -11.2941 -11.2879 -11.2827 -11.2782 -11.2271  -9.0062  -8.9908
 -6.6870  -6.6864  -6.6859  -6.6719  -6.6712  -6.6701  -1.6573  -1.4656
 -1.3682  -1.2116  -1.1366  -1.0651  -1.0191  -0.9954  -0.9582  -0.9128
 -0.8632  -0.8057  -0.7879  -0.7579  -0.7310  -0.7222  -0.6913  -0.6830
 -0.6724  -0.6603  -0.6106  -0.5980  -0.5913  -0.5783  -0.5648  -0.5561
 -0.5374  -0.5296  -0.5092  -0.4878  -0.4728  -0.4708  -0.4699  -0.4596
 -0.3880  -0.3455  -0.2862

          Ground-State Mulliken Net Atomic Charges

     Atom                 Charge (a.u.)
  ----------------------------------------
      1 C                     0.023553
      2 S                     0.073949
      3 C                    -0.209699
      4 C                     0.000947
      5 C                    -0.099612
      6 S                    -0.009794
      7 C                    -0.158084
      8 C                     0.390729
      9 F                    -0.209115
     10 C                     0.445259
     11 O                    -0.462181
     12 O                    -0.300709
     13 C                    -0.058724
     14 H                     0.121046
     15 H                     0.094737
     16 H                     0.094686
     17 C                    -0.378766
     18 H                     0.123336
     19 H                     0.165123
     20 H                     0.139132
     21 H                     0.214188
  ----------------------------------------
  Sum of atomic charges =     0.000000

                    Cartesian Multipole Moments
 -----------------------------------------------------------------
    Charge (ESU x 10^10)
                -0.0000
    Dipole Moment (Debye)
         X      -0.2615      Y       0.4104      Z       3.7691
       Tot       3.8004
    Quadrupole Moments (Debye-Ang)
        XX     -96.3924     XY       2.2885     YY     -80.9995
        XZ      -0.8082     YZ     -11.3873     ZZ     -95.6194

 Total job time:  57.24s(wall), 1957.88s(cpu)
        *  Thank you very much for using Q-Chem.  Have a nice day.  *
