 Q-Chem 5.4, Q-Chem, Inc., Pleasanton, CA (2021)
 Q-Chem 5.4.0 for Intel X86 EM64T Linux

User input:
--------------------------------------------------------------
$molecule
0 1
C	-0.437870	-0.893839	0.974225
S	-0.055070	-0.074039	2.481725
C	0.608830	1.351461	1.693125
C	-0.054970	-0.074439	-0.093675
C	0.530430	1.186461	0.287825
S	-0.155270	-0.296439	-1.831275
C	0.579930	1.293461	-2.080275
C	0.877130	1.936461	-0.888375
F	1.437630	3.149961	-0.844875
C	0.771030	1.698761	-3.481875
O	0.452930	0.997661	-4.432275
O	1.335030	2.925861	-3.594975
C	1.549030	3.372361	-4.941975
H	2.007930	4.373161	-4.858875
H	0.590230	3.429561	-5.495975
H	2.223230	2.679661	-5.485075
C	-0.437870	-2.329039	0.974225
H	-1.260370	-2.337039	1.674125
H	-0.978470	-3.006939	0.330325
H	0.171730	-2.860139	1.690325
H	0.998130	2.189761	2.280725
$end

$rem
JOBTYPE		SP
EXCHANGE	HF
CORRELATION	pRIMP2
BASIS		cc-pvtz
METHOD		rimp2
AUX_BASIS	rimp2-cc-pvtz
SOLVENT_METHOD	PCM
PURECART	11111
SYMMETRY	false
MEM_TOTAL	110000
SCF_CONVERGENCE = 6
THRESH=10
GUI = 2
$end

$solvent
dielectric 4.90
$end
--------------------------------------------------------------

             Standard Nuclear Orientation (Angstroms)
    I     Atom           X                Y                Z
 ----------------------------------------------------------------
    1      C      -0.4378700000    -0.8938390000     0.9742250000
    2      S      -0.0550700000    -0.0740390000     2.4817250000
    3      C       0.6088300000     1.3514610000     1.6931250000
    4      C      -0.0549700000    -0.0744390000    -0.0936750000
    5      C       0.5304300000     1.1864610000     0.2878250000
    6      S      -0.1552700000    -0.2964390000    -1.8312750000
    7      C       0.5799300000     1.2934610000    -2.0802750000
    8      C       0.8771300000     1.9364610000    -0.8883750000
    9      F       1.4376300000     3.1499610000    -0.8448750000
   10      C       0.7710300000     1.6987610000    -3.4818750000
   11      O       0.4529300000     0.9976610000    -4.4322750000
   12      O       1.3350300000     2.9258610000    -3.5949750000
   13      C       1.5490300000     3.3723610000    -4.9419750000
   14      H       2.0079300000     4.3731610000    -4.8588750000
   15      H       0.5902300000     3.4295610000    -5.4959750000
   16      H       2.2232300000     2.6796610000    -5.4850750000
   17      C      -0.4378700000    -2.3290390000     0.9742250000
   18      H      -1.2603700000    -2.3370390000     1.6741250000
   19      H      -0.9784700000    -3.0069390000     0.3303250000
   20      H       0.1717300000    -2.8601390000     1.6903250000
   21      H       0.9981300000     2.1897610000     2.2807250000
 ----------------------------------------------------------------

   11   -1389.2574931431      4.74e-07  Convergence criterion met
 Total energy in the final basis set =    -1389.2574931431
        RIMP2         total energy =     -1391.7647231365 a.u.

                    Orbital Energies (a.u.)
 --------------------------------------------------------------

 Alpha MOs
 -- Occupied --
-92.0068 -91.9922 -26.3403 -20.6133 -20.5594 -11.4073 -11.3783 -11.3008
-11.2941 -11.2908 -11.2880 -11.2849 -11.2785 -11.2244  -9.0057  -8.9923
 -6.6865  -6.6860  -6.6854  -6.6733  -6.6726  -6.6715  -1.6575  -1.4657
 -1.3683  -1.2126  -1.1371  -1.0649  -1.0194  -0.9945  -0.9584  -0.9123
 -0.8635  -0.8061  -0.7882  -0.7581  -0.7307  -0.7224  -0.6917  -0.6831
 -0.6725  -0.6600  -0.6110  -0.5965  -0.5896  -0.5809  -0.5638  -0.5582
 -0.5318  -0.5285  -0.5097  -0.4896  -0.4722  -0.4712  -0.4703  -0.4596
 -0.3849  -0.3451  -0.2856

          Ground-State Mulliken Net Atomic Charges

     Atom                 Charge (a.u.)
  ----------------------------------------
      1 C                    -0.024900
      2 S                     0.076518
      3 C                    -0.201419
      4 C                     0.017544
      5 C                    -0.098139
      6 S                    -0.002631
      7 C                    -0.158250
      8 C                     0.390931
      9 F                    -0.208886
     10 C                     0.446316
     11 O                    -0.462359
     12 O                    -0.300947
     13 C                    -0.058553
     14 H                     0.121040
     15 H                     0.094742
     16 H                     0.094701
     17 C                    -0.376991
     18 H                     0.128374
     19 H                     0.163622
     20 H                     0.145193
     21 H                     0.214094
  ----------------------------------------
  Sum of atomic charges =     0.000000

                    Cartesian Multipole Moments
 -----------------------------------------------------------------
    Charge (ESU x 10^10)
                -0.0000
    Dipole Moment (Debye)
         X       0.4649      Y       0.4538      Z       3.6072
       Tot       3.6652
    Quadrupole Moments (Debye-Ang)
        XX     -94.4474     XY       5.8194     YY     -83.3716
        XZ      -3.7259     YZ      -9.9763     ZZ     -95.5814

 Total job time:  57.84s(wall), 2016.36s(cpu)
        *  Thank you very much for using Q-Chem.  Have a nice day.  *
