 Q-Chem 5.4, Q-Chem, Inc., Pleasanton, CA (2021)
 Q-Chem 5.4.0 for Intel X86 EM64T Linux

User input:
--------------------------------------------------------------
$molecule
0 1
C	-0.181761	-0.975447	0.973997
S	-0.024161	-0.084547	2.481497
C	0.248139	1.464253	1.692897
C	-0.023961	-0.084847	-0.093903
C	0.215139	1.284553	0.287597
S	-0.063461	-0.325247	-1.831503
C	0.235239	1.400753	-2.080503
C	0.355839	2.098753	-0.888603
F	0.583239	3.415953	-0.845103
C	0.314939	1.841653	-3.482103
O	0.189139	1.082153	-4.432503
O	0.542139	3.172953	-3.595203
C	0.633239	3.659653	-4.942203
H	0.817539	4.745153	-4.859103
H	-0.307661	3.466753	-5.496203
H	1.463739	3.165053	-5.485303
C	-0.181761	-2.410647	0.973997
H	0.364639	-2.418647	1.905497
H	-0.909661	-3.088547	1.394597
H	0.629239	-2.941747	0.498097
H	0.407239	2.374753	2.280497
$end

$rem
JOBTYPE		SP
EXCHANGE	HF
CORRELATION	pRIMP2
BASIS		cc-pvtz
METHOD		rimp2
AUX_BASIS	rimp2-cc-pvtz
SOLVENT_METHOD	PCM
PURECART	11111
SYMMETRY	false
MEM_TOTAL	110000
SCF_CONVERGENCE = 6
THRESH=10
GUI = 2
$end

$solvent
dielectric 4.90
$end
--------------------------------------------------------------

             Standard Nuclear Orientation (Angstroms)
    I     Atom           X                Y                Z
 ----------------------------------------------------------------
    1      C      -0.1817610000    -0.9754470000     0.9739970000
    2      S      -0.0241610000    -0.0845470000     2.4814970000
    3      C       0.2481390000     1.4642530000     1.6928970000
    4      C      -0.0239610000    -0.0848470000    -0.0939030000
    5      C       0.2151390000     1.2845530000     0.2875970000
    6      S      -0.0634610000    -0.3252470000    -1.8315030000
    7      C       0.2352390000     1.4007530000    -2.0805030000
    8      C       0.3558390000     2.0987530000    -0.8886030000
    9      F       0.5832390000     3.4159530000    -0.8451030000
   10      C       0.3149390000     1.8416530000    -3.4821030000
   11      O       0.1891390000     1.0821530000    -4.4325030000
   12      O       0.5421390000     3.1729530000    -3.5952030000
   13      C       0.6332390000     3.6596530000    -4.9422030000
   14      H       0.8175390000     4.7451530000    -4.8591030000
   15      H      -0.3076610000     3.4667530000    -5.4962030000
   16      H       1.4637390000     3.1650530000    -5.4853030000
   17      C      -0.1817610000    -2.4106470000     0.9739970000
   18      H       0.3646390000    -2.4186470000     1.9054970000
   19      H      -0.9096610000    -3.0885470000     1.3945970000
   20      H       0.6292390000    -2.9417470000     0.4980970000
   21      H       0.4072390000     2.3747530000     2.2804970000
 ----------------------------------------------------------------

   11   -1389.2691044796      5.00e-07  Convergence criterion met
 Total energy in the final basis set =    -1389.2691044796
        RIMP2         total energy =     -1391.7739478360 a.u.

                    Orbital Energies (a.u.)
 --------------------------------------------------------------

 Alpha MOs
 -- Occupied --
-92.0065 -91.9914 -26.3403 -20.6133 -20.5594 -11.4072 -11.3783 -11.2991
-11.2945 -11.2941 -11.2880 -11.2848 -11.2784 -11.2261  -9.0055  -8.9916
 -6.6863  -6.6857  -6.6852  -6.6727  -6.6719  -6.6708  -1.6575  -1.4657
 -1.3683  -1.2122  -1.1370  -1.0652  -1.0194  -0.9950  -0.9585  -0.9123
 -0.8636  -0.8063  -0.7882  -0.7579  -0.7313  -0.7224  -0.6914  -0.6831
 -0.6725  -0.6604  -0.6085  -0.6015  -0.5921  -0.5764  -0.5654  -0.5560
 -0.5390  -0.5298  -0.5084  -0.4859  -0.4734  -0.4710  -0.4695  -0.4567
 -0.3897  -0.3454  -0.2883

          Ground-State Mulliken Net Atomic Charges

     Atom                 Charge (a.u.)
  ----------------------------------------
      1 C                     0.040004
      2 S                     0.075336
      3 C                    -0.210722
      4 C                    -0.020099
      5 C                    -0.089172
      6 S                    -0.004644
      7 C                    -0.157292
      8 C                     0.388968
      9 F                    -0.208697
     10 C                     0.445734
     11 O                    -0.462233
     12 O                    -0.300869
     13 C                    -0.058635
     14 H                     0.121012
     15 H                     0.094776
     16 H                     0.094660
     17 C                    -0.378530
     18 H                     0.120705
     19 H                     0.150917
     20 H                     0.144667
     21 H                     0.214114
  ----------------------------------------
  Sum of atomic charges =     0.000000

                    Cartesian Multipole Moments
 -----------------------------------------------------------------
    Charge (ESU x 10^10)
                -0.0000
    Dipole Moment (Debye)
         X       0.7367      Y       0.5230      Z       3.7879
       Tot       3.8941
    Quadrupole Moments (Debye-Ang)
        XX     -96.2414     XY       1.1048     YY     -81.5298
        XZ      -1.4577     YZ     -11.3771     ZZ     -95.5571

 Total job time:  56.87s(wall), 1927.98s(cpu)
        *  Thank you very much for using Q-Chem.  Have a nice day.  *
