 Q-Chem 5.4, Q-Chem, Inc., Pleasanton, CA (2021)
 Q-Chem 5.4.0 for Intel X86 EM64T Linux

User input:
--------------------------------------------------------------
$molecule
0 1
C	0.000109	-0.991205	0.973565
S	0.000609	-0.086405	2.481065
C	-0.000191	1.486095	1.692465
C	0.000909	-0.086805	-0.094335
C	-0.001491	1.303395	0.287165
S	0.003709	-0.330305	-1.831935
C	-0.001791	1.421295	-2.080935
C	-0.004291	2.129695	-0.889035
F	-0.009091	3.466295	-0.845535
C	0.000109	1.869395	-3.482535
O	0.008009	1.099495	-4.432935
O	-0.007391	3.219895	-3.595635
C	-0.002191	3.714995	-4.942635
H	-0.009191	4.815995	-4.859535
H	-0.895291	3.361695	-5.496635
H	0.901609	3.372095	-5.485735
C	0.000109	-2.426405	0.973565
H	0.007509	-2.434405	2.053465
H	-0.840591	-3.104305	0.973865
H	0.940509	-2.957505	0.966865
H	-0.001591	2.410395	2.280065
$end

$rem
JOBTYPE		SP
EXCHANGE	HF
CORRELATION	pRIMP2
BASIS		cc-pvtz
METHOD		rimp2
AUX_BASIS	rimp2-cc-pvtz
SOLVENT_METHOD	PCM
PURECART	11111
SYMMETRY	false
MEM_TOTAL	110000
SCF_CONVERGENCE = 6
THRESH=10
GUI = 2
$end

$solvent
dielectric 4.90
$end
--------------------------------------------------------------

             Standard Nuclear Orientation (Angstroms)
    I     Atom           X                Y                Z
 ----------------------------------------------------------------
    1      C       0.0001090000    -0.9912050000     0.9735650000
    2      S       0.0006090000    -0.0864050000     2.4810650000
    3      C      -0.0001910000     1.4860950000     1.6924650000
    4      C       0.0009090000    -0.0868050000    -0.0943350000
    5      C      -0.0014910000     1.3033950000     0.2871650000
    6      S       0.0037090000    -0.3303050000    -1.8319350000
    7      C      -0.0017910000     1.4212950000    -2.0809350000
    8      C      -0.0042910000     2.1296950000    -0.8890350000
    9      F      -0.0090910000     3.4662950000    -0.8455350000
   10      C       0.0001090000     1.8693950000    -3.4825350000
   11      O       0.0080090000     1.0994950000    -4.4329350000
   12      O      -0.0073910000     3.2198950000    -3.5956350000
   13      C      -0.0021910000     3.7149950000    -4.9426350000
   14      H      -0.0091910000     4.8159950000    -4.8595350000
   15      H      -0.8952910000     3.3616950000    -5.4966350000
   16      H       0.9016090000     3.3720950000    -5.4857350000
   17      C       0.0001090000    -2.4264050000     0.9735650000
   18      H       0.0075090000    -2.4344050000     2.0534650000
   19      H      -0.8405910000    -3.1043050000     0.9738650000
   20      H       0.9405090000    -2.9575050000     0.9668650000
   21      H      -0.0015910000     2.4103950000     2.2800650000
 ----------------------------------------------------------------

   11   -1389.2701661171      4.79e-07  Convergence criterion met
 Total energy in the final basis set =    -1389.2701661171
        RIMP2         total energy =     -1391.7753368489 a.u.

                    Orbital Energies (a.u.)
 --------------------------------------------------------------

 Alpha MOs
 -- Occupied --
-92.0086 -91.9920 -26.3403 -20.6134 -20.5594 -11.4073 -11.3783 -11.3000
-11.2941 -11.2920 -11.2880 -11.2852 -11.2786 -11.2254  -9.0074  -8.9921
 -6.6882  -6.6876  -6.6871  -6.6732  -6.6725  -6.6714  -1.6576  -1.4657
 -1.3683  -1.2122  -1.1368  -1.0646  -1.0198  -0.9951  -0.9587  -0.9125
 -0.8638  -0.8066  -0.7883  -0.7579  -0.7313  -0.7225  -0.6912  -0.6831
 -0.6725  -0.6607  -0.6065  -0.6030  -0.5919  -0.5772  -0.5661  -0.5567
 -0.5400  -0.5299  -0.5074  -0.4791  -0.4733  -0.4711  -0.4649  -0.4613
 -0.3921  -0.3451  -0.2916

          Ground-State Mulliken Net Atomic Charges

     Atom                 Charge (a.u.)
  ----------------------------------------
      1 C                     0.034363
      2 S                     0.076013
      3 C                    -0.210817
      4 C                    -0.001995
      5 C                    -0.094916
      6 S                    -0.004577
      7 C                    -0.158216
      8 C                     0.392342
      9 F                    -0.208838
     10 C                     0.444977
     11 O                    -0.462464
     12 O                    -0.300786
     13 C                    -0.058688
     14 H                     0.121042
     15 H                     0.094762
     16 H                     0.094698
     17 C                    -0.369873
     18 H                     0.111088
     19 H                     0.150063
     20 H                     0.136982
     21 H                     0.214838
  ----------------------------------------
  Sum of atomic charges =     0.000000

                    Cartesian Multipole Moments
 -----------------------------------------------------------------
    Charge (ESU x 10^10)
                -0.0000
    Dipole Moment (Debye)
         X       0.0080      Y       0.6937      Z       3.8402
       Tot       3.9023
    Quadrupole Moments (Debye-Ang)
        XX     -96.2258     XY       0.0952     YY     -81.3469
        XZ       0.0674     YZ     -11.4372     ZZ     -95.4618

 Total job time:  54.30s(wall), 1907.11s(cpu)
        *  Thank you very much for using Q-Chem.  Have a nice day.  *
