 Q-Chem 5.4, Q-Chem, Inc., Pleasanton, CA (2021)
 Q-Chem 5.4.0 for Intel X86 EM64T Linux

User input:
--------------------------------------------------------------
$molecule
0 1
C	0.001993	-0.991205	0.974225
S	0.002493	-0.086405	2.481725
C	0.001693	1.486095	1.693125
C	0.002793	-0.086805	-0.093675
C	0.000393	1.303395	0.287825
S	0.005593	-0.330305	-1.831275
C	0.000093	1.421295	-2.080275
C	-0.002407	2.129695	-0.888375
F	-0.007207	3.466295	-0.844875
C	0.001993	1.869395	-3.481875
O	0.009893	1.099495	-4.432275
O	-0.005507	3.219895	-3.594975
C	-0.000307	3.714995	-4.941975
H	-0.007307	4.815995	-4.858875
H	-0.893407	3.361695	-5.495975
H	0.903493	3.372095	-5.485075
C	0.001993	-2.426405	0.974225
H	-0.820507	-2.434405	1.674125
H	-0.538607	-3.104305	0.330325
H	0.611593	-2.957505	1.690325
H	0.000293	2.410395	2.280725
$end

$rem
JOBTYPE		SP
EXCHANGE	HF
CORRELATION	pRIMP2
BASIS		cc-pvtz
METHOD		rimp2
AUX_BASIS	rimp2-cc-pvtz
SOLVENT_METHOD	PCM
PURECART	11111
SYMMETRY	false
MEM_TOTAL	110000
SCF_CONVERGENCE = 6
THRESH=10
GUI = 2
$end

$solvent
dielectric 4.90
$end
--------------------------------------------------------------

             Standard Nuclear Orientation (Angstroms)
    I     Atom           X                Y                Z
 ----------------------------------------------------------------
    1      C       0.0019930000    -0.9912050000     0.9742250000
    2      S       0.0024930000    -0.0864050000     2.4817250000
    3      C       0.0016930000     1.4860950000     1.6931250000
    4      C       0.0027930000    -0.0868050000    -0.0936750000
    5      C       0.0003930000     1.3033950000     0.2878250000
    6      S       0.0055930000    -0.3303050000    -1.8312750000
    7      C       0.0000930000     1.4212950000    -2.0802750000
    8      C      -0.0024070000     2.1296950000    -0.8883750000
    9      F      -0.0072070000     3.4662950000    -0.8448750000
   10      C       0.0019930000     1.8693950000    -3.4818750000
   11      O       0.0098930000     1.0994950000    -4.4322750000
   12      O      -0.0055070000     3.2198950000    -3.5949750000
   13      C      -0.0003070000     3.7149950000    -4.9419750000
   14      H      -0.0073070000     4.8159950000    -4.8588750000
   15      H      -0.8934070000     3.3616950000    -5.4959750000
   16      H       0.9034930000     3.3720950000    -5.4850750000
   17      C       0.0019930000    -2.4264050000     0.9742250000
   18      H      -0.8205070000    -2.4344050000     1.6741250000
   19      H      -0.5386070000    -3.1043050000     0.3303250000
   20      H       0.6115930000    -2.9575050000     1.6903250000
   21      H       0.0002930000     2.4103950000     2.2807250000
 ----------------------------------------------------------------

   11   -1389.2716486356      5.19e-07  Convergence criterion met
 Total energy in the final basis set =    -1389.2716486356
        RIMP2         total energy =     -1391.7753158610 a.u.

                    Orbital Energies (a.u.)
 --------------------------------------------------------------

 Alpha MOs
 -- Occupied --
-92.0066 -91.9900 -26.3398 -20.6133 -20.5594 -11.4071 -11.3775 -11.2989
-11.2957 -11.2941 -11.2879 -11.2814 -11.2780 -11.2285  -9.0055  -8.9902
 -6.6864  -6.6858  -6.6853  -6.6713  -6.6706  -6.6694  -1.6571  -1.4656
 -1.3682  -1.2113  -1.1366  -1.0655  -1.0187  -0.9955  -0.9580  -0.9128
 -0.8630  -0.8052  -0.7878  -0.7578  -0.7309  -0.7220  -0.6915  -0.6830
 -0.6724  -0.6601  -0.6115  -0.5969  -0.5913  -0.5782  -0.5642  -0.5557
 -0.5366  -0.5295  -0.5110  -0.4922  -0.4727  -0.4706  -0.4706  -0.4591
 -0.3868  -0.3456  -0.2839

          Ground-State Mulliken Net Atomic Charges

     Atom                 Charge (a.u.)
  ----------------------------------------
      1 C                     0.037468
      2 S                     0.073010
      3 C                    -0.215038
      4 C                    -0.013195
      5 C                    -0.096966
      6 S                    -0.011954
      7 C                    -0.157296
      8 C                     0.390196
      9 F                    -0.209229
     10 C                     0.445223
     11 O                    -0.462139
     12 O                    -0.300656
     13 C                    -0.058725
     14 H                     0.121051
     15 H                     0.094693
     16 H                     0.094709
     17 C                    -0.383603
     18 H                     0.130352
     19 H                     0.166077
     20 H                     0.142048
     21 H                     0.213973
  ----------------------------------------
  Sum of atomic charges =     0.000000

                    Cartesian Multipole Moments
 -----------------------------------------------------------------
    Charge (ESU x 10^10)
                -0.0000
    Dipole Moment (Debye)
         X      -0.5496      Y       0.2514      Z       3.7288
       Tot       3.7775
    Quadrupole Moments (Debye-Ang)
        XX     -96.6927     XY       1.5233     YY     -80.6758
        XZ      -0.1219     YZ     -11.4565     ZZ     -95.7390

 Total job time:  58.35s(wall), 1998.59s(cpu)
        *  Thank you very much for using Q-Chem.  Have a nice day.  *
