 Q-Chem 5.4, Q-Chem, Inc., Pleasanton, CA (2021)
 Q-Chem 5.4.0 for Intel X86 EM64T Linux

User input:
--------------------------------------------------------------
$molecule
0 1
C	0.000927	-0.991205	0.973626
S	0.001427	-0.086405	2.481126
C	0.000627	1.486095	1.692526
C	0.001727	-0.086805	-0.094274
C	-0.000673	1.303395	0.287226
S	0.004527	-0.330305	-1.831874
C	-0.000973	1.421295	-2.080874
C	-0.003473	2.129695	-0.888974
F	-0.008273	3.466295	-0.845474
C	0.000927	1.869395	-3.482474
O	0.008827	1.099495	-4.432874
O	-0.006573	3.219895	-3.595574
C	-0.001373	3.714995	-4.942574
H	-0.008373	4.815995	-4.859474
H	-0.894473	3.361695	-5.496574
H	0.902427	3.372095	-5.485674
C	0.000927	-2.426405	0.973626
H	-0.361473	-2.434405	1.991026
H	-0.789173	-3.104305	0.686326
H	0.886827	-2.957505	1.289026
H	-0.000773	2.410395	2.280126
$end

$rem
JOBTYPE		SP
EXCHANGE	HF
CORRELATION	pRIMP2
BASIS		cc-pvtz
METHOD		rimp2
AUX_BASIS	rimp2-cc-pvtz
SOLVENT_METHOD	PCM
PURECART	11111
SYMMETRY	false
MEM_TOTAL	110000
SCF_CONVERGENCE = 6
THRESH=10
GUI = 2
$end

$solvent
dielectric 4.90
$end
--------------------------------------------------------------

             Standard Nuclear Orientation (Angstroms)
    I     Atom           X                Y                Z
 ----------------------------------------------------------------
    1      C       0.0009270000    -0.9912050000     0.9736260000
    2      S       0.0014270000    -0.0864050000     2.4811260000
    3      C       0.0006270000     1.4860950000     1.6925260000
    4      C       0.0017270000    -0.0868050000    -0.0942740000
    5      C      -0.0006730000     1.3033950000     0.2872260000
    6      S       0.0045270000    -0.3303050000    -1.8318740000
    7      C      -0.0009730000     1.4212950000    -2.0808740000
    8      C      -0.0034730000     2.1296950000    -0.8889740000
    9      F      -0.0082730000     3.4662950000    -0.8454740000
   10      C       0.0009270000     1.8693950000    -3.4824740000
   11      O       0.0088270000     1.0994950000    -4.4328740000
   12      O      -0.0065730000     3.2198950000    -3.5955740000
   13      C      -0.0013730000     3.7149950000    -4.9425740000
   14      H      -0.0083730000     4.8159950000    -4.8594740000
   15      H      -0.8944730000     3.3616950000    -5.4965740000
   16      H       0.9024270000     3.3720950000    -5.4856740000
   17      C       0.0009270000    -2.4264050000     0.9736260000
   18      H      -0.3614730000    -2.4344050000     1.9910260000
   19      H      -0.7891730000    -3.1043050000     0.6863260000
   20      H       0.8868270000    -2.9575050000     1.2890260000
   21      H      -0.0007730000     2.4103950000     2.2801260000
 ----------------------------------------------------------------

   11   -1389.2703579498      4.88e-07  Convergence criterion met
 Total energy in the final basis set =    -1389.2703579498
        RIMP2         total energy =     -1391.7751872865 a.u.

                    Orbital Energies (a.u.)
 --------------------------------------------------------------

 Alpha MOs
 -- Occupied --
-92.0082 -91.9915 -26.3402 -20.6133 -20.5594 -11.4073 -11.3782 -11.2994
-11.2941 -11.2934 -11.2880 -11.2844 -11.2785 -11.2258  -9.0070  -8.9917
 -6.6878  -6.6872  -6.6867  -6.6727  -6.6720  -6.6709  -1.6575  -1.4657
 -1.3683  -1.2120  -1.1368  -1.0648  -1.0196  -0.9952  -0.9585  -0.9126
 -0.8636  -0.8064  -0.7882  -0.7579  -0.7313  -0.7224  -0.6913  -0.6831
 -0.6725  -0.6606  -0.6085  -0.6008  -0.5918  -0.5772  -0.5658  -0.5563
 -0.5398  -0.5298  -0.5078  -0.4813  -0.4734  -0.4710  -0.4679  -0.4597
 -0.3908  -0.3453  -0.2899

          Ground-State Mulliken Net Atomic Charges

     Atom                 Charge (a.u.)
  ----------------------------------------
      1 C                     0.031515
      2 S                     0.075712
      3 C                    -0.209946
      4 C                    -0.003063
      5 C                    -0.094798
      6 S                    -0.006164
      7 C                    -0.157841
      8 C                     0.391059
      9 F                    -0.208901
     10 C                     0.445143
     11 O                    -0.462376
     12 O                    -0.300754
     13 C                    -0.058694
     14 H                     0.121042
     15 H                     0.094739
     16 H                     0.094710
     17 C                    -0.373111
     18 H                     0.114590
     19 H                     0.157825
     20 H                     0.134699
     21 H                     0.214616
  ----------------------------------------
  Sum of atomic charges =     0.000000

                    Cartesian Multipole Moments
 -----------------------------------------------------------------
    Charge (ESU x 10^10)
                -0.0000
    Dipole Moment (Debye)
         X      -0.2254      Y       0.6147      Z       3.8299
       Tot       3.8854
    Quadrupole Moments (Debye-Ang)
        XX     -96.3171     XY       0.7323     YY     -81.2133
        XZ       0.0687     YZ     -11.4346     ZZ     -95.4965

 Total job time:  56.10s(wall), 2011.73s(cpu)
        *  Thank you very much for using Q-Chem.  Have a nice day.  *
