 Q-Chem 5.4, Q-Chem, Inc., Pleasanton, CA (2021)
 Q-Chem 5.4.0 for Intel X86 EM64T Linux

User input:
--------------------------------------------------------------
$molecule
0 1
C	-0.795687	-0.619704	0.973964
S	-0.102287	-0.038504	2.481464
C	1.101813	0.972896	1.692864
C	-0.102387	-0.038904	-0.093936
C	0.961113	0.856396	0.287564
S	-0.287087	-0.197704	-1.831536
C	1.051213	0.932496	-2.080536
C	1.592213	1.389696	-0.888636
F	2.613013	2.252596	-0.845136
C	1.395613	1.219096	-3.482136
O	0.811013	0.718096	-4.432536
O	2.425413	2.092896	-3.595236
C	2.808013	2.407096	-4.942236
H	3.646913	3.120196	-4.859136
H	1.963313	2.864196	-5.496236
H	3.126313	1.494396	-5.485336
C	-0.795687	-2.054904	0.973964
H	-1.484187	-2.062904	1.806064
H	-1.439887	-2.732804	0.433764
H	-0.071087	-2.586004	1.573264
H	1.809013	1.568096	2.280464
$end

$rem
JOBTYPE		SP
EXCHANGE	HF
CORRELATION	pRIMP2
BASIS		cc-pvtz
METHOD		rimp2
AUX_BASIS	rimp2-cc-pvtz
SOLVENT_METHOD	PCM
PURECART	11111
SYMMETRY	false
MEM_TOTAL	110000
SCF_CONVERGENCE = 6
THRESH=10
GUI = 2
$end

$solvent
dielectric 4.90
$end
--------------------------------------------------------------

             Standard Nuclear Orientation (Angstroms)
    I     Atom           X                Y                Z
 ----------------------------------------------------------------
    1      C      -0.7956870000    -0.6197040000     0.9739640000
    2      S      -0.1022870000    -0.0385040000     2.4814640000
    3      C       1.1018130000     0.9728960000     1.6928640000
    4      C      -0.1023870000    -0.0389040000    -0.0939360000
    5      C       0.9611130000     0.8563960000     0.2875640000
    6      S      -0.2870870000    -0.1977040000    -1.8315360000
    7      C       1.0512130000     0.9324960000    -2.0805360000
    8      C       1.5922130000     1.3896960000    -0.8886360000
    9      F       2.6130130000     2.2525960000    -0.8451360000
   10      C       1.3956130000     1.2190960000    -3.4821360000
   11      O       0.8110130000     0.7180960000    -4.4325360000
   12      O       2.4254130000     2.0928960000    -3.5952360000
   13      C       2.8080130000     2.4070960000    -4.9422360000
   14      H       3.6469130000     3.1201960000    -4.8591360000
   15      H       1.9633130000     2.8641960000    -5.4962360000
   16      H       3.1263130000     1.4943960000    -5.4853360000
   17      C      -0.7956870000    -2.0549040000     0.9739640000
   18      H      -1.4841870000    -2.0629040000     1.8060640000
   19      H      -1.4398870000    -2.7328040000     0.4337640000
   20      H      -0.0710870000    -2.5860040000     1.5732640000
   21      H       1.8090130000     1.5680960000     2.2804640000
 ----------------------------------------------------------------

   11   -1389.2205322017      5.07e-07  Convergence criterion met
 Total energy in the final basis set =    -1389.2205322017
        RIMP2         total energy =     -1391.7339829581 a.u.

                    Orbital Energies (a.u.)
 --------------------------------------------------------------

 Alpha MOs
 -- Occupied --
-92.0052 -91.9993 -26.3423 -20.6138 -20.5598 -11.4080 -11.3815 -11.3180
-11.2980 -11.2943 -11.2884 -11.2802 -11.2667 -11.2165  -9.0047  -8.9991
 -6.6854  -6.6846  -6.6843  -6.6801  -6.6794  -6.6784  -1.6596  -1.4662
 -1.3689  -1.2183  -1.1410  -1.0661  -1.0221  -0.9916  -0.9602  -0.9085
 -0.8658  -0.8098  -0.7901  -0.7593  -0.7326  -0.7243  -0.6940  -0.6837
 -0.6731  -0.6607  -0.6112  -0.5995  -0.5907  -0.5778  -0.5653  -0.5608
 -0.5307  -0.5231  -0.5095  -0.4825  -0.4732  -0.4718  -0.4651  -0.4570
 -0.3822  -0.3438  -0.2934

          Ground-State Mulliken Net Atomic Charges

     Atom                 Charge (a.u.)
  ----------------------------------------
      1 C                    -0.111829
      2 S                     0.087929
      3 C                    -0.157892
      4 C                     0.072805
      5 C                    -0.109837
      6 S                     0.026658
      7 C                    -0.159242
      8 C                     0.391844
      9 F                    -0.207285
     10 C                     0.447587
     11 O                    -0.463589
     12 O                    -0.301367
     13 C                    -0.058394
     14 H                     0.121073
     15 H                     0.094873
     16 H                     0.094775
     17 C                    -0.375404
     18 H                     0.112911
     19 H                     0.147250
     20 H                     0.131038
     21 H                     0.216096
  ----------------------------------------
  Sum of atomic charges =     0.000000

                    Cartesian Multipole Moments
 -----------------------------------------------------------------
    Charge (ESU x 10^10)
                -0.0000
    Dipole Moment (Debye)
         X       2.1707      Y       0.7579      Z       3.3159
       Tot       4.0350
    Quadrupole Moments (Debye-Ang)
        XX     -90.5151     XY       6.6473     YY     -89.3227
        XZ      -5.3874     YZ      -6.4647     ZZ     -95.0113

 Total job time:  62.22s(wall), 2207.57s(cpu)
        *  Thank you very much for using Q-Chem.  Have a nice day.  *
