 Q-Chem 5.4, Q-Chem, Inc., Pleasanton, CA (2021)
 Q-Chem 5.4.0 for Intel X86 EM64T Linux

User input:
--------------------------------------------------------------
$molecule
0 1
C	-0.357890	-0.928548	0.976554
S	-0.047990	-0.078548	2.484054
C	0.489110	1.399452	1.695454
C	-0.047890	-0.078948	-0.091346
C	0.425410	1.228152	0.290154
S	-0.128490	-0.308748	-1.828946
C	0.465410	1.339152	-2.077946
C	0.705410	2.005552	-0.886046
F	1.158010	3.263252	-0.842546
C	0.620410	1.759552	-3.479546
O	0.364610	1.033352	-4.429946
O	1.075310	3.031152	-3.592646
C	1.249610	3.494552	-4.939646
H	1.619610	4.531652	-4.856546
H	0.289510	3.468052	-5.493646
H	1.981610	2.863252	-5.482746
C	-0.357890	-2.363748	0.976554
H	0.704310	-2.371748	0.781654
H	-0.211590	-3.041648	1.804454
H	-0.527690	-2.894848	0.051654
H	0.803910	2.268452	2.283054
$end

$rem
JOBTYPE		SP
EXCHANGE	HF
CORRELATION	pRIMP2
BASIS		cc-pvtz
METHOD		rimp2
AUX_BASIS	rimp2-cc-pvtz
SOLVENT_METHOD	PCM
PURECART	11111
SYMMETRY	false
MEM_TOTAL	110000
SCF_CONVERGENCE = 6
THRESH=10
GUI = 2
$end

$solvent
dielectric 4.90
$end
--------------------------------------------------------------

             Standard Nuclear Orientation (Angstroms)
    I     Atom           X                Y                Z
 ----------------------------------------------------------------
    1      C      -0.3578900000    -0.9285480000     0.9765540000
    2      S      -0.0479900000    -0.0785480000     2.4840540000
    3      C       0.4891100000     1.3994520000     1.6954540000
    4      C      -0.0478900000    -0.0789480000    -0.0913460000
    5      C       0.4254100000     1.2281520000     0.2901540000
    6      S      -0.1284900000    -0.3087480000    -1.8289460000
    7      C       0.4654100000     1.3391520000    -2.0779460000
    8      C       0.7054100000     2.0055520000    -0.8860460000
    9      F       1.1580100000     3.2632520000    -0.8425460000
   10      C       0.6204100000     1.7595520000    -3.4795460000
   11      O       0.3646100000     1.0333520000    -4.4299460000
   12      O       1.0753100000     3.0311520000    -3.5926460000
   13      C       1.2496100000     3.4945520000    -4.9396460000
   14      H       1.6196100000     4.5316520000    -4.8565460000
   15      H       0.2895100000     3.4680520000    -5.4936460000
   16      H       1.9816100000     2.8632520000    -5.4827460000
   17      C      -0.3578900000    -2.3637480000     0.9765540000
   18      H       0.7043100000    -2.3717480000     0.7816540000
   19      H      -0.2115900000    -3.0416480000     1.8044540000
   20      H      -0.5276900000    -2.8948480000     0.0516540000
   21      H       0.8039100000     2.2684520000     2.2830540000
 ----------------------------------------------------------------

   11   -1389.2670959830      5.25e-07  Convergence criterion met
 Total energy in the final basis set =    -1389.2670959830
        RIMP2         total energy =     -1391.7726756671 a.u.

                    Orbital Energies (a.u.)
 --------------------------------------------------------------

 Alpha MOs
 -- Occupied --
-92.0057 -91.9912 -26.3400 -20.6135 -20.5596 -11.4075 -11.3778 -11.3026
-11.2946 -11.2921 -11.2881 -11.2804 -11.2788 -11.2316  -9.0045  -8.9913
 -6.6854  -6.6848  -6.6843  -6.6724  -6.6717  -6.6706  -1.6573  -1.4659
 -1.3685  -1.2123  -1.1373  -1.0676  -1.0181  -0.9948  -0.9579  -0.9121
 -0.8630  -0.8043  -0.7882  -0.7586  -0.7306  -0.7222  -0.6925  -0.6832
 -0.6726  -0.6600  -0.6119  -0.5953  -0.5930  -0.5824  -0.5614  -0.5604
 -0.5310  -0.5259  -0.5147  -0.5007  -0.4722  -0.4715  -0.4700  -0.4608
 -0.3835  -0.3450  -0.2806

          Ground-State Mulliken Net Atomic Charges

     Atom                 Charge (a.u.)
  ----------------------------------------
      1 C                     0.047434
      2 S                     0.080965
      3 C                    -0.232809
      4 C                    -0.046931
      5 C                    -0.081610
      6 S                    -0.013432
      7 C                    -0.154290
      8 C                     0.387776
      9 F                    -0.208723
     10 C                     0.446771
     11 O                    -0.461809
     12 O                    -0.300785
     13 C                    -0.058456
     14 H                     0.121063
     15 H                     0.094819
     16 H                     0.094633
     17 C                    -0.387956
     18 H                     0.149927
     19 H                     0.165948
     20 H                     0.145597
     21 H                     0.211868
  ----------------------------------------
  Sum of atomic charges =     0.000000

                    Cartesian Multipole Moments
 -----------------------------------------------------------------
    Charge (ESU x 10^10)
                -0.0000
    Dipole Moment (Debye)
         X       1.3281      Y      -0.0924      Z       3.1346
       Tot       3.4056
    Quadrupole Moments (Debye-Ang)
        XX     -96.3038     XY       2.0687     YY     -81.8911
        XZ      -2.1996     YZ     -10.0817     ZZ     -96.6283

 Total job time:  73.05s(wall), 2425.59s(cpu)
        *  Thank you very much for using Q-Chem.  Have a nice day.  *
