 Q-Chem 5.4, Q-Chem, Inc., Pleasanton, CA (2021)
 Q-Chem 5.4.0 for Intel X86 EM64T Linux

User input:
--------------------------------------------------------------
$molecule
0 1
C	-0.267332	-0.955820	0.977564
S	-0.032732	-0.082020	2.485064
C	0.373568	1.437180	1.696464
C	-0.032532	-0.082420	-0.090336
C	0.325068	1.260980	0.291164
S	-0.092832	-0.318420	-1.827936
C	0.355268	1.374980	-2.076936
C	0.536168	2.059780	-0.885036
F	0.877468	3.352180	-0.841536
C	0.472968	1.807280	-3.478536
O	0.281468	1.061580	-4.428936
O	0.815368	3.113680	-3.591636
C	0.948468	3.590580	-4.938636
H	1.226768	4.655880	-4.855536
H	-0.005632	3.480480	-5.492636
H	1.732768	3.025480	-5.481736
C	-0.267332	-2.391020	0.977564
H	-0.967232	-2.399020	0.155064
H	0.376568	-3.068920	0.436964
H	-0.983432	-2.922120	1.587164
H	0.611368	2.330280	2.284064
$end

$rem
JOBTYPE		SP
EXCHANGE	HF
CORRELATION	pRIMP2
BASIS		cc-pvtz
METHOD		rimp2
AUX_BASIS	rimp2-cc-pvtz
SOLVENT_METHOD	PCM
PURECART	11111
SYMMETRY	false
MEM_TOTAL	110000
SCF_CONVERGENCE = 6
THRESH=10
GUI = 2
$end

$solvent
dielectric 4.90
$end
--------------------------------------------------------------

             Standard Nuclear Orientation (Angstroms)
    I     Atom           X                Y                Z
 ----------------------------------------------------------------
    1      C      -0.2673320000    -0.9558200000     0.9775640000
    2      S      -0.0327320000    -0.0820200000     2.4850640000
    3      C       0.3735680000     1.4371800000     1.6964640000
    4      C      -0.0325320000    -0.0824200000    -0.0903360000
    5      C       0.3250680000     1.2609800000     0.2911640000
    6      S      -0.0928320000    -0.3184200000    -1.8279360000
    7      C       0.3552680000     1.3749800000    -2.0769360000
    8      C       0.5361680000     2.0597800000    -0.8850360000
    9      F       0.8774680000     3.3521800000    -0.8415360000
   10      C       0.4729680000     1.8072800000    -3.4785360000
   11      O       0.2814680000     1.0615800000    -4.4289360000
   12      O       0.8153680000     3.1136800000    -3.5916360000
   13      C       0.9484680000     3.5905800000    -4.9386360000
   14      H       1.2267680000     4.6558800000    -4.8555360000
   15      H      -0.0056320000     3.4804800000    -5.4926360000
   16      H       1.7327680000     3.0254800000    -5.4817360000
   17      C      -0.2673320000    -2.3910200000     0.9775640000
   18      H      -0.9672320000    -2.3990200000     0.1550640000
   19      H       0.3765680000    -3.0689200000     0.4369640000
   20      H      -0.9834320000    -2.9221200000     1.5871640000
   21      H       0.6113680000     2.3302800000     2.2840640000
 ----------------------------------------------------------------

   11   -1389.2686910136      4.71e-07  Convergence criterion met
 Total energy in the final basis set =    -1389.2686910136
        RIMP2         total energy =     -1391.7752292553 a.u.

                    Orbital Energies (a.u.)
 --------------------------------------------------------------

 Alpha MOs
 -- Occupied --
-92.0036 -91.9936 -26.3410 -20.6136 -20.5597 -11.4077 -11.3793 -11.2983
-11.2947 -11.2945 -11.2882 -11.2876 -11.2790 -11.2266  -9.0027  -8.9937
 -6.6835  -6.6828  -6.6824  -6.6747  -6.6740  -6.6729  -1.6581  -1.4660
 -1.3686  -1.2130  -1.1355  -1.0672  -1.0186  -0.9952  -0.9582  -0.9139
 -0.8633  -0.8050  -0.7888  -0.7590  -0.7299  -0.7230  -0.6940  -0.6834
 -0.6728  -0.6609  -0.6113  -0.5976  -0.5909  -0.5811  -0.5646  -0.5567
 -0.5387  -0.5298  -0.5072  -0.4910  -0.4737  -0.4715  -0.4679  -0.4554
 -0.3874  -0.3447  -0.2882

          Ground-State Mulliken Net Atomic Charges

     Atom                 Charge (a.u.)
  ----------------------------------------
      1 C                     0.038838
      2 S                     0.076980
      3 C                    -0.208286
      4 C                    -0.033706
      5 C                    -0.089347
      6 S                    -0.005643
      7 C                    -0.156351
      8 C                     0.386346
      9 F                    -0.207938
     10 C                     0.445688
     11 O                    -0.462622
     12 O                    -0.300890
     13 C                    -0.058470
     14 H                     0.121120
     15 H                     0.094741
     16 H                     0.094690
     17 C                    -0.373003
     18 H                     0.122373
     19 H                     0.155680
     20 H                     0.147462
     21 H                     0.212338
  ----------------------------------------
  Sum of atomic charges =     0.000000

                    Cartesian Multipole Moments
 -----------------------------------------------------------------
    Charge (ESU x 10^10)
                -0.0000
    Dipole Moment (Debye)
         X       0.1095      Y       0.4462      Z       2.7041
       Tot       2.7428
    Quadrupole Moments (Debye-Ang)
        XX     -95.6094     XY       4.0532     YY     -81.8237
        XZ      -2.8291     YZ      -8.5927     ZZ     -97.6040

 Total job time:  67.35s(wall), 1955.59s(cpu)
        *  Thank you very much for using Q-Chem.  Have a nice day.  *
