 Q-Chem 5.4, Q-Chem, Inc., Pleasanton, CA (2021)
 Q-Chem 5.4.0 for Intel X86 EM64T Linux

User input:
--------------------------------------------------------------
$molecule
0 1
C	-0.269994	-0.955820	0.978067
S	-0.035394	-0.082020	2.485567
C	0.370906	1.437180	1.696967
C	-0.035194	-0.082420	-0.089833
C	0.322406	1.260980	0.291667
S	-0.095494	-0.318420	-1.827433
C	0.352606	1.374980	-2.076433
C	0.533506	2.059780	-0.884533
F	0.874806	3.352180	-0.841033
C	0.470306	1.807280	-3.478033
O	0.278806	1.061580	-4.428433
O	0.812706	3.113680	-3.591133
C	0.945806	3.590580	-4.938133
H	1.224106	4.655880	-4.855033
H	-0.008294	3.480480	-5.492133
H	1.730106	3.025480	-5.481233
C	-0.269994	-2.391020	0.978067
H	0.263506	-2.399020	0.039067
H	0.458206	-3.068920	1.398167
H	-1.087694	-2.922120	0.513667
H	0.608706	2.330280	2.284567
$end

$rem
JOBTYPE		SP
EXCHANGE	HF
CORRELATION	pRIMP2
BASIS		cc-pvtz
METHOD		rimp2
AUX_BASIS	rimp2-cc-pvtz
SOLVENT_METHOD	PCM
PURECART	11111
SYMMETRY	false
MEM_TOTAL	110000
SCF_CONVERGENCE = 6
THRESH=10
GUI = 2
$end

$solvent
dielectric 4.90
$end
--------------------------------------------------------------

             Standard Nuclear Orientation (Angstroms)
    I     Atom           X                Y                Z
 ----------------------------------------------------------------
    1      C      -0.2699940000    -0.9558200000     0.9780670000
    2      S      -0.0353940000    -0.0820200000     2.4855670000
    3      C       0.3709060000     1.4371800000     1.6969670000
    4      C      -0.0351940000    -0.0824200000    -0.0898330000
    5      C       0.3224060000     1.2609800000     0.2916670000
    6      S      -0.0954940000    -0.3184200000    -1.8274330000
    7      C       0.3526060000     1.3749800000    -2.0764330000
    8      C       0.5335060000     2.0597800000    -0.8845330000
    9      F       0.8748060000     3.3521800000    -0.8410330000
   10      C       0.4703060000     1.8072800000    -3.4780330000
   11      O       0.2788060000     1.0615800000    -4.4284330000
   12      O       0.8127060000     3.1136800000    -3.5911330000
   13      C       0.9458060000     3.5905800000    -4.9381330000
   14      H       1.2241060000     4.6558800000    -4.8550330000
   15      H      -0.0082940000     3.4804800000    -5.4921330000
   16      H       1.7301060000     3.0254800000    -5.4812330000
   17      C      -0.2699940000    -2.3910200000     0.9780670000
   18      H       0.2635060000    -2.3990200000     0.0390670000
   19      H       0.4582060000    -3.0689200000     1.3981670000
   20      H      -1.0876940000    -2.9221200000     0.5136670000
   21      H       0.6087060000     2.3302800000     2.2845670000
 ----------------------------------------------------------------

   11   -1389.2678786087      4.73e-07  Convergence criterion met
 Total energy in the final basis set =    -1389.2678786087
        RIMP2         total energy =     -1391.7747911497 a.u.

                    Orbital Energies (a.u.)
 --------------------------------------------------------------

 Alpha MOs
 -- Occupied --
-92.0043 -91.9941 -26.3412 -20.6137 -20.5598 -11.4078 -11.3797 -11.2984
-11.2953 -11.2946 -11.2883 -11.2876 -11.2790 -11.2262  -9.0033  -8.9942
 -6.6840  -6.6834  -6.6830  -6.6753  -6.6746  -6.6735  -1.6583  -1.4661
 -1.3687  -1.2135  -1.1359  -1.0680  -1.0187  -0.9947  -0.9583  -0.9134
 -0.8635  -0.8051  -0.7890  -0.7592  -0.7300  -0.7232  -0.6941  -0.6835
 -0.6729  -0.6609  -0.6082  -0.6014  -0.5914  -0.5855  -0.5654  -0.5578
 -0.5353  -0.5301  -0.5074  -0.4885  -0.4733  -0.4717  -0.4641  -0.4587
 -0.3884  -0.3442  -0.2902

          Ground-State Mulliken Net Atomic Charges

     Atom                 Charge (a.u.)
  ----------------------------------------
      1 C                     0.032239
      2 S                     0.076393
      3 C                    -0.207800
      4 C                    -0.016310
      5 C                    -0.094045
      6 S                    -0.006213
      7 C                    -0.157545
      8 C                     0.388303
      9 F                    -0.207688
     10 C                     0.445954
     11 O                    -0.462736
     12 O                    -0.300958
     13 C                    -0.058474
     14 H                     0.121134
     15 H                     0.094797
     16 H                     0.094666
     17 C                    -0.377412
     18 H                     0.121145
     19 H                     0.161860
     20 H                     0.140422
     21 H                     0.212266
  ----------------------------------------
  Sum of atomic charges =     0.000000

                    Cartesian Multipole Moments
 -----------------------------------------------------------------
    Charge (ESU x 10^10)
                -0.0000
    Dipole Moment (Debye)
         X       0.8855      Y       0.4863      Z       2.6487
       Tot       2.8349
    Quadrupole Moments (Debye-Ang)
        XX     -95.9017     XY       1.8941     YY     -81.9327
        XZ      -1.3830     YZ      -8.5386     ZZ     -97.7313

 Total job time:  55.79s(wall), 1915.37s(cpu)
        *  Thank you very much for using Q-Chem.  Have a nice day.  *
