 Q-Chem 5.4, Q-Chem, Inc., Pleasanton, CA (2021)
 Q-Chem 5.4.0 for Intel X86 EM64T Linux

User input:
--------------------------------------------------------------
$molecule
0 1
C	-0.520645	-0.851940	0.978203
S	-0.067845	-0.068640	2.485703
C	0.717755	1.293660	1.697103
C	-0.067745	-0.069040	-0.089697
C	0.625255	1.136060	0.291803
S	-0.187045	-0.281440	-1.827297
C	0.683955	1.238360	-2.076297
C	1.035955	1.852960	-0.884397
F	1.700155	3.012960	-0.840897
C	0.909655	1.625360	-3.477897
O	0.531555	0.954660	-4.428297
O	1.578355	2.798760	-3.590997
C	1.830455	3.224860	-4.937997
H	2.374955	4.181860	-4.854897
H	0.880355	3.365460	-5.491997
H	2.441755	2.476060	-5.481097
C	-0.520645	-2.287140	0.978203
H	-0.158245	-2.295140	-0.039197
H	0.269455	-2.965040	1.265503
H	-1.406545	-2.818240	0.662803
H	1.178655	2.094760	2.284703
$end

$rem
JOBTYPE		SP
EXCHANGE	HF
CORRELATION	pRIMP2
BASIS		cc-pvtz
METHOD		rimp2
AUX_BASIS	rimp2-cc-pvtz
SOLVENT_METHOD	PCM
PURECART	11111
SYMMETRY	false
MEM_TOTAL	110000
SCF_CONVERGENCE = 6
THRESH=10
GUI = 2
$end

$solvent
dielectric 4.90
$end
--------------------------------------------------------------

             Standard Nuclear Orientation (Angstroms)
    I     Atom           X                Y                Z
 ----------------------------------------------------------------
    1      C      -0.5206450000    -0.8519400000     0.9782030000
    2      S      -0.0678450000    -0.0686400000     2.4857030000
    3      C       0.7177550000     1.2936600000     1.6971030000
    4      C      -0.0677450000    -0.0690400000    -0.0896970000
    5      C       0.6252550000     1.1360600000     0.2918030000
    6      S      -0.1870450000    -0.2814400000    -1.8272970000
    7      C       0.6839550000     1.2383600000    -2.0762970000
    8      C       1.0359550000     1.8529600000    -0.8843970000
    9      F       1.7001550000     3.0129600000    -0.8408970000
   10      C       0.9096550000     1.6253600000    -3.4778970000
   11      O       0.5315550000     0.9546600000    -4.4282970000
   12      O       1.5783550000     2.7987600000    -3.5909970000
   13      C       1.8304550000     3.2248600000    -4.9379970000
   14      H       2.3749550000     4.1818600000    -4.8548970000
   15      H       0.8803550000     3.3654600000    -5.4919970000
   16      H       2.4417550000     2.4760600000    -5.4810970000
   17      C      -0.5206450000    -2.2871400000     0.9782030000
   18      H      -0.1582450000    -2.2951400000    -0.0391970000
   19      H       0.2694550000    -2.9650400000     1.2655030000
   20      H      -1.4065450000    -2.8182400000     0.6628030000
   21      H       1.1786550000     2.0947600000     2.2847030000
 ----------------------------------------------------------------

   11   -1389.2531077797      4.69e-07  Convergence criterion met
 Total energy in the final basis set =    -1389.2531077797
        RIMP2         total energy =     -1391.7632635746 a.u.

                    Orbital Energies (a.u.)
 --------------------------------------------------------------

 Alpha MOs
 -- Occupied --
-92.0034 -91.9966 -26.3420 -20.6139 -20.5599 -11.4081 -11.3809 -11.3047
-11.2947 -11.2924 -11.2884 -11.2866 -11.2794 -11.2222  -9.0026  -8.9967
 -6.6833  -6.6826  -6.6823  -6.6777  -6.6770  -6.6759  -1.6591  -1.4663
 -1.3689  -1.2156  -1.1370  -1.0686  -1.0195  -0.9932  -0.9588  -0.9121
 -0.8641  -0.8062  -0.7897  -0.7597  -0.7301  -0.7239  -0.6953  -0.6837
 -0.6731  -0.6612  -0.6065  -0.6032  -0.5917  -0.5858  -0.5648  -0.5588
 -0.5308  -0.5302  -0.5084  -0.4874  -0.4737  -0.4721  -0.4657  -0.4510
 -0.3887  -0.3437  -0.2937

          Ground-State Mulliken Net Atomic Charges

     Atom                 Charge (a.u.)
  ----------------------------------------
      1 C                    -0.010156
      2 S                     0.081454
      3 C                    -0.194363
      4 C                    -0.012237
      5 C                    -0.086158
      6 S                     0.004628
      7 C                    -0.157540
      8 C                     0.388416
      9 F                    -0.206941
     10 C                     0.446611
     11 O                    -0.463072
     12 O                    -0.301247
     13 C                    -0.058426
     14 H                     0.121178
     15 H                     0.094843
     16 H                     0.094705
     17 C                    -0.363416
     18 H                     0.117272
     19 H                     0.160566
     20 H                     0.131317
     21 H                     0.212566
  ----------------------------------------
  Sum of atomic charges =     0.000000

                    Cartesian Multipole Moments
 -----------------------------------------------------------------
    Charge (ESU x 10^10)
                -0.0000
    Dipole Moment (Debye)
         X       1.5013      Y       0.6974      Z       2.5225
       Tot       3.0172
    Quadrupole Moments (Debye-Ang)
        XX     -94.0588     XY       4.2105     YY     -84.6971
        XZ      -3.2019     YZ      -7.0812     ZZ     -97.6270

 Total job time:  60.16s(wall), 2015.84s(cpu)
        *  Thank you very much for using Q-Chem.  Have a nice day.  *
