 Q-Chem 5.4, Q-Chem, Inc., Pleasanton, CA (2021)
 Q-Chem 5.4.0 for Intel X86 EM64T Linux

User input:
--------------------------------------------------------------
$molecule
0 1
C	-0.270671	-0.955820	0.977605
S	-0.036071	-0.082020	2.485105
C	0.370229	1.437180	1.696505
C	-0.035871	-0.082420	-0.090295
C	0.321729	1.260980	0.291205
S	-0.096171	-0.318420	-1.827895
C	0.351929	1.374980	-2.076895
C	0.532829	2.059780	-0.884995
F	0.874129	3.352180	-0.841495
C	0.469629	1.807280	-3.478495
O	0.278129	1.061580	-4.428895
O	0.812029	3.113680	-3.591595
C	0.945129	3.590580	-4.938595
H	1.223429	4.655880	-4.855495
H	-0.008971	3.480480	-5.492595
H	1.729429	3.025480	-5.481695
C	-0.270671	-2.391020	0.977605
H	0.551829	-2.399020	0.277705
H	0.269929	-3.068920	1.621505
H	-0.880271	-2.922120	0.261505
H	0.608029	2.330280	2.284105
$end

$rem
JOBTYPE		SP
EXCHANGE	HF
CORRELATION	pRIMP2
BASIS		cc-pvtz
METHOD		rimp2
AUX_BASIS	rimp2-cc-pvtz
SOLVENT_METHOD	PCM
PURECART	11111
SYMMETRY	false
MEM_TOTAL	110000
SCF_CONVERGENCE = 6
THRESH=10
GUI = 2
$end

$solvent
dielectric 4.90
$end
--------------------------------------------------------------

             Standard Nuclear Orientation (Angstroms)
    I     Atom           X                Y                Z
 ----------------------------------------------------------------
    1      C      -0.2706710000    -0.9558200000     0.9776050000
    2      S      -0.0360710000    -0.0820200000     2.4851050000
    3      C       0.3702290000     1.4371800000     1.6965050000
    4      C      -0.0358710000    -0.0824200000    -0.0902950000
    5      C       0.3217290000     1.2609800000     0.2912050000
    6      S      -0.0961710000    -0.3184200000    -1.8278950000
    7      C       0.3519290000     1.3749800000    -2.0768950000
    8      C       0.5328290000     2.0597800000    -0.8849950000
    9      F       0.8741290000     3.3521800000    -0.8414950000
   10      C       0.4696290000     1.8072800000    -3.4784950000
   11      O       0.2781290000     1.0615800000    -4.4288950000
   12      O       0.8120290000     3.1136800000    -3.5915950000
   13      C       0.9451290000     3.5905800000    -4.9385950000
   14      H       1.2234290000     4.6558800000    -4.8554950000
   15      H      -0.0089710000     3.4804800000    -5.4925950000
   16      H       1.7294290000     3.0254800000    -5.4816950000
   17      C      -0.2706710000    -2.3910200000     0.9776050000
   18      H       0.5518290000    -2.3990200000     0.2777050000
   19      H       0.2699290000    -3.0689200000     1.6215050000
   20      H      -0.8802710000    -2.9221200000     0.2615050000
   21      H       0.6080290000     2.3302800000     2.2841050000
 ----------------------------------------------------------------

   11   -1389.2684479403      4.94e-07  Convergence criterion met
 Total energy in the final basis set =    -1389.2684479403
        RIMP2         total energy =     -1391.7748068995 a.u.

                    Orbital Energies (a.u.)
 --------------------------------------------------------------

 Alpha MOs
 -- Occupied --
-92.0057 -91.9929 -26.3406 -20.6136 -20.5597 -11.4076 -11.3788 -11.2994
-11.2946 -11.2943 -11.2882 -11.2834 -11.2789 -11.2285  -9.0045  -8.9930
 -6.6853  -6.6847  -6.6842  -6.6741  -6.6734  -6.6723  -1.6578  -1.4660
 -1.3686  -1.2127  -1.1363  -1.0678  -1.0183  -0.9950  -0.9580  -0.9129
 -0.8632  -0.8045  -0.7886  -0.7589  -0.7301  -0.7227  -0.6933  -0.6834
 -0.6728  -0.6605  -0.6101  -0.5974  -0.5906  -0.5870  -0.5640  -0.5591
 -0.5331  -0.5297  -0.5077  -0.4933  -0.4729  -0.4714  -0.4661  -0.4630
 -0.3851  -0.3442  -0.2857

          Ground-State Mulliken Net Atomic Charges

     Atom                 Charge (a.u.)
  ----------------------------------------
      1 C                     0.041266
      2 S                     0.078521
      3 C                    -0.220950
      4 C                    -0.023174
      5 C                    -0.090059
      6 S                    -0.010589
      7 C                    -0.155437
      8 C                     0.387001
      9 F                    -0.208207
     10 C                     0.446661
     11 O                    -0.462413
     12 O                    -0.300827
     13 C                    -0.058476
     14 H                     0.121120
     15 H                     0.094794
     16 H                     0.094625
     17 C                    -0.389812
     18 H                     0.132590
     19 H                     0.165813
     20 H                     0.145719
     21 H                     0.211835
  ----------------------------------------
  Sum of atomic charges =     0.000000

                    Cartesian Multipole Moments
 -----------------------------------------------------------------
    Charge (ESU x 10^10)
                -0.0000
    Dipole Moment (Debye)
         X       1.0286      Y       0.2027      Z       2.8177
       Tot       3.0064
    Quadrupole Moments (Debye-Ang)
        XX     -96.2901     XY       1.4717     YY     -81.6588
        XZ      -1.2654     YZ      -9.2779     ZZ     -97.3145

 Total job time:  71.36s(wall), 1933.23s(cpu)
        *  Thank you very much for using Q-Chem.  Have a nice day.  *
