 Q-Chem 5.4, Q-Chem, Inc., Pleasanton, CA (2021)
 Q-Chem 5.4.0 for Intel X86 EM64T Linux

User input:
--------------------------------------------------------------
$molecule
0 1
C	-0.799306	-0.619704	0.975331
S	-0.105906	-0.038504	2.482831
C	1.098194	0.972896	1.694231
C	-0.106006	-0.038904	-0.092569
C	0.957494	0.856396	0.288931
S	-0.290706	-0.197704	-1.830169
C	1.047594	0.932496	-2.079169
C	1.588594	1.389696	-0.887269
F	2.609394	2.252596	-0.843769
C	1.391994	1.219096	-3.480769
O	0.807394	0.718096	-4.431169
O	2.421794	2.092896	-3.593869
C	2.804394	2.407096	-4.940869
H	3.643294	3.120196	-4.857769
H	1.959694	2.864196	-5.494869
H	3.122694	1.494396	-5.483969
C	-0.799306	-2.054904	0.975331
H	0.218094	-2.062904	1.337731
H	-1.086606	-2.732804	1.765431
H	-0.483906	-2.586004	0.089431
H	1.805394	1.568096	2.281831
$end

$rem
JOBTYPE		SP
EXCHANGE	HF
CORRELATION	pRIMP2
BASIS		cc-pvtz
METHOD		rimp2
AUX_BASIS	rimp2-cc-pvtz
SOLVENT_METHOD	PCM
PURECART	11111
SYMMETRY	false
MEM_TOTAL	110000
SCF_CONVERGENCE = 6
THRESH=10
GUI = 2
$end

$solvent
dielectric 4.90
$end
--------------------------------------------------------------

             Standard Nuclear Orientation (Angstroms)
    I     Atom           X                Y                Z
 ----------------------------------------------------------------
    1      C      -0.7993060000    -0.6197040000     0.9753310000
    2      S      -0.1059060000    -0.0385040000     2.4828310000
    3      C       1.0981940000     0.9728960000     1.6942310000
    4      C      -0.1060060000    -0.0389040000    -0.0925690000
    5      C       0.9574940000     0.8563960000     0.2889310000
    6      S      -0.2907060000    -0.1977040000    -1.8301690000
    7      C       1.0475940000     0.9324960000    -2.0791690000
    8      C       1.5885940000     1.3896960000    -0.8872690000
    9      F       2.6093940000     2.2525960000    -0.8437690000
   10      C       1.3919940000     1.2190960000    -3.4807690000
   11      O       0.8073940000     0.7180960000    -4.4311690000
   12      O       2.4217940000     2.0928960000    -3.5938690000
   13      C       2.8043940000     2.4070960000    -4.9408690000
   14      H       3.6432940000     3.1201960000    -4.8577690000
   15      H       1.9596940000     2.8641960000    -5.4948690000
   16      H       3.1226940000     1.4943960000    -5.4839690000
   17      C      -0.7993060000    -2.0549040000     0.9753310000
   18      H       0.2180940000    -2.0629040000     1.3377310000
   19      H      -1.0866060000    -2.7328040000     1.7654310000
   20      H      -0.4839060000    -2.5860040000     0.0894310000
   21      H       1.8053940000     1.5680960000     2.2818310000
 ----------------------------------------------------------------

   11   -1389.2227460205      5.53e-07  Convergence criterion met
 Total energy in the final basis set =    -1389.2227460205
        RIMP2         total energy =     -1391.7364785020 a.u.

                    Orbital Energies (a.u.)
 --------------------------------------------------------------

 Alpha MOs
 -- Occupied --
-91.9999 -91.9973 -26.3424 -20.6141 -20.5603 -11.4084 -11.3814 -11.3131
-11.2953 -11.2948 -11.2886 -11.2815 -11.2814 -11.2233  -9.0002  -8.9973
 -6.6809  -6.6801  -6.6798  -6.6783  -6.6775  -6.6765  -1.6596  -1.4666
 -1.3692  -1.2201  -1.1435  -1.0693  -1.0215  -0.9913  -0.9600  -0.9067
 -0.8656  -0.8091  -0.7904  -0.7599  -0.7335  -0.7244  -0.6956  -0.6840
 -0.6733  -0.6613  -0.6137  -0.6020  -0.5950  -0.5701  -0.5639  -0.5542
 -0.5333  -0.5279  -0.5156  -0.5009  -0.4752  -0.4725  -0.4715  -0.4464
 -0.3819  -0.3475  -0.2841

          Ground-State Mulliken Net Atomic Charges

     Atom                 Charge (a.u.)
  ----------------------------------------
      1 C                    -0.030055
      2 S                     0.077378
      3 C                    -0.176225
      4 C                    -0.003107
      5 C                    -0.095595
      6 S                     0.017646
      7 C                    -0.153641
      8 C                     0.389219
      9 F                    -0.207199
     10 C                     0.447358
     11 O                    -0.462406
     12 O                    -0.301157
     13 C                    -0.058375
     14 H                     0.121156
     15 H                     0.095000
     16 H                     0.094753
     17 C                    -0.376620
     18 H                     0.122073
     19 H                     0.148053
     20 H                     0.137407
     21 H                     0.214337
  ----------------------------------------
  Sum of atomic charges =     0.000000

                    Cartesian Multipole Moments
 -----------------------------------------------------------------
    Charge (ESU x 10^10)
                -0.0000
    Dipole Moment (Debye)
         X       2.8054      Y       0.2995      Z       3.0868
       Tot       4.1819
    Quadrupole Moments (Debye-Ang)
        XX     -92.1695     XY       4.8453     YY     -88.7926
        XZ      -5.3736     YZ      -6.8680     ZZ     -95.5733

 Total job time:  89.67s(wall), 2045.56s(cpu)
        *  Thank you very much for using Q-Chem.  Have a nice day.  *
