 Q-Chem 5.4, Q-Chem, Inc., Pleasanton, CA (2021)
 Q-Chem 5.4.0 for Intel X86 EM64T Linux

User input:
--------------------------------------------------------------
$molecule
0 1
C	-0.437367	-0.893839	0.976887
S	-0.054567	-0.074039	2.484387
C	0.609333	1.351461	1.695787
C	-0.054467	-0.074439	-0.091013
C	0.530933	1.186461	0.290487
S	-0.154767	-0.296439	-1.828613
C	0.580433	1.293461	-2.077613
C	0.877633	1.936461	-0.885713
F	1.438133	3.149961	-0.842213
C	0.771533	1.698761	-3.479213
O	0.453433	0.997661	-4.429613
O	1.335533	2.925861	-3.592313
C	1.549533	3.372361	-4.939313
H	2.008433	4.373161	-4.856213
H	0.590733	3.429561	-5.493313
H	2.223733	2.679661	-5.482413
C	-0.437367	-2.329039	0.976887
H	-1.376367	-2.337039	0.443387
H	-0.017267	-3.006939	0.248687
H	-0.901767	-2.860139	1.794587
H	0.998633	2.189761	2.283387
$end

$rem
JOBTYPE		SP
EXCHANGE	HF
CORRELATION	pRIMP2
BASIS		cc-pvtz
METHOD		rimp2
AUX_BASIS	rimp2-cc-pvtz
SOLVENT_METHOD	PCM
PURECART	11111
SYMMETRY	false
MEM_TOTAL	110000
SCF_CONVERGENCE = 6
THRESH=10
GUI = 2
$end

$solvent
dielectric 4.90
$end
--------------------------------------------------------------

             Standard Nuclear Orientation (Angstroms)
    I     Atom           X                Y                Z
 ----------------------------------------------------------------
    1      C      -0.4373670000    -0.8938390000     0.9768870000
    2      S      -0.0545670000    -0.0740390000     2.4843870000
    3      C       0.6093330000     1.3514610000     1.6957870000
    4      C      -0.0544670000    -0.0744390000    -0.0910130000
    5      C       0.5309330000     1.1864610000     0.2904870000
    6      S      -0.1547670000    -0.2964390000    -1.8286130000
    7      C       0.5804330000     1.2934610000    -2.0776130000
    8      C       0.8776330000     1.9364610000    -0.8857130000
    9      F       1.4381330000     3.1499610000    -0.8422130000
   10      C       0.7715330000     1.6987610000    -3.4792130000
   11      O       0.4534330000     0.9976610000    -4.4296130000
   12      O       1.3355330000     2.9258610000    -3.5923130000
   13      C       1.5495330000     3.3723610000    -4.9393130000
   14      H       2.0084330000     4.3731610000    -4.8562130000
   15      H       0.5907330000     3.4295610000    -5.4933130000
   16      H       2.2237330000     2.6796610000    -5.4824130000
   17      C      -0.4373670000    -2.3290390000     0.9768870000
   18      H      -1.3763670000    -2.3370390000     0.4433870000
   19      H      -0.0172670000    -3.0069390000     0.2486870000
   20      H      -0.9017670000    -2.8601390000     1.7945870000
   21      H       0.9986330000     2.1897610000     2.2833870000
 ----------------------------------------------------------------

   11   -1389.2585167098      4.78e-07  Convergence criterion met
 Total energy in the final basis set =    -1389.2585167098
        RIMP2         total energy =     -1391.7668294108 a.u.

                    Orbital Energies (a.u.)
 --------------------------------------------------------------

 Alpha MOs
 -- Occupied --
-92.0037 -91.9936 -26.3408 -20.6136 -20.5596 -11.4076 -11.3790 -11.2983
-11.2944 -11.2928 -11.2881 -11.2867 -11.2790 -11.2254  -9.0028  -8.9937
 -6.6835  -6.6829  -6.6824  -6.6748  -6.6741  -6.6729  -1.6580  -1.4659
 -1.3685  -1.2129  -1.1360  -1.0665  -1.0186  -0.9948  -0.9581  -0.9132
 -0.8633  -0.8051  -0.7886  -0.7588  -0.7298  -0.7228  -0.6935  -0.6833
 -0.6727  -0.6604  -0.6120  -0.5955  -0.5902  -0.5792  -0.5627  -0.5580
 -0.5359  -0.5292  -0.5075  -0.4966  -0.4739  -0.4714  -0.4701  -0.4547
 -0.3832  -0.3446  -0.2845

          Ground-State Mulliken Net Atomic Charges

     Atom                 Charge (a.u.)
  ----------------------------------------
      1 C                     0.019623
      2 S                     0.083397
      3 C                    -0.210316
      4 C                    -0.037995
      5 C                    -0.083258
      6 S                    -0.003183
      7 C                    -0.155378
      8 C                     0.387363
      9 F                    -0.208021
     10 C                     0.446126
     11 O                    -0.462602
     12 O                    -0.300966
     13 C                    -0.058489
     14 H                     0.121136
     15 H                     0.094752
     16 H                     0.094699
     17 C                    -0.383015
     18 H                     0.136685
     19 H                     0.163844
     20 H                     0.144139
     21 H                     0.211457
  ----------------------------------------
  Sum of atomic charges =     0.000000

                    Cartesian Multipole Moments
 -----------------------------------------------------------------
    Charge (ESU x 10^10)
                -0.0000
    Dipole Moment (Debye)
         X       0.3140      Y       0.3204      Z       2.8539
       Tot       2.8889
    Quadrupole Moments (Debye-Ang)
        XX     -94.4683     XY       5.9796     YY     -83.2538
        XZ      -4.3203     YZ      -8.5045     ZZ     -97.0273

 Total job time:  70.20s(wall), 2304.96s(cpu)
        *  Thank you very much for using Q-Chem.  Have a nice day.  *
