 Q-Chem 5.4, Q-Chem, Inc., Pleasanton, CA (2021)
 Q-Chem 5.4.0 for Intel X86 EM64T Linux

User input:
--------------------------------------------------------------
$molecule
0 1
C	-0.000987	-0.991205	0.977865
S	-0.000487	-0.086405	2.485365
C	-0.001287	1.486095	1.696765
C	-0.000187	-0.086805	-0.090035
C	-0.002587	1.303395	0.291465
S	0.002613	-0.330305	-1.827635
C	-0.002887	1.421295	-2.076635
C	-0.005387	2.129695	-0.884735
F	-0.010187	3.466295	-0.841235
C	-0.000987	1.869395	-3.478235
O	0.006913	1.099495	-4.428635
O	-0.008487	3.219895	-3.591335
C	-0.003287	3.714995	-4.938335
H	-0.010287	4.815995	-4.855235
H	-0.896387	3.361695	-5.492335
H	0.900513	3.372095	-5.481435
C	-0.000987	-2.426405	0.977865
H	0.687513	-2.434405	0.145765
H	0.643213	-3.104305	1.518065
H	-0.725587	-2.957505	0.378565
H	-0.002687	2.410395	2.284365
$end

$rem
JOBTYPE		SP
EXCHANGE	HF
CORRELATION	pRIMP2
BASIS		cc-pvtz
METHOD		rimp2
AUX_BASIS	rimp2-cc-pvtz
SOLVENT_METHOD	PCM
PURECART	11111
SYMMETRY	false
MEM_TOTAL	110000
SCF_CONVERGENCE = 6
THRESH=10
GUI = 2
$end

$solvent
dielectric 4.90
$end
--------------------------------------------------------------

             Standard Nuclear Orientation (Angstroms)
    I     Atom           X                Y                Z
 ----------------------------------------------------------------
    1      C      -0.0009870000    -0.9912050000     0.9778650000
    2      S      -0.0004870000    -0.0864050000     2.4853650000
    3      C      -0.0012870000     1.4860950000     1.6967650000
    4      C      -0.0001870000    -0.0868050000    -0.0900350000
    5      C      -0.0025870000     1.3033950000     0.2914650000
    6      S       0.0026130000    -0.3303050000    -1.8276350000
    7      C      -0.0028870000     1.4212950000    -2.0766350000
    8      C      -0.0053870000     2.1296950000    -0.8847350000
    9      F      -0.0101870000     3.4662950000    -0.8412350000
   10      C      -0.0009870000     1.8693950000    -3.4782350000
   11      O       0.0069130000     1.0994950000    -4.4286350000
   12      O      -0.0084870000     3.2198950000    -3.5913350000
   13      C      -0.0032870000     3.7149950000    -4.9383350000
   14      H      -0.0102870000     4.8159950000    -4.8552350000
   15      H      -0.8963870000     3.3616950000    -5.4923350000
   16      H       0.9005130000     3.3720950000    -5.4814350000
   17      C      -0.0009870000    -2.4264050000     0.9778650000
   18      H       0.6875130000    -2.4344050000     0.1457650000
   19      H       0.6432130000    -3.1043050000     1.5180650000
   20      H      -0.7255870000    -2.9575050000     0.3785650000
   21      H      -0.0026870000     2.4103950000     2.2843650000
 ----------------------------------------------------------------

   11   -1389.2732510228      4.79e-07  Convergence criterion met
 Total energy in the final basis set =    -1389.2732510228
        RIMP2         total energy =     -1391.7787716053 a.u.

                    Orbital Energies (a.u.)
 --------------------------------------------------------------

 Alpha MOs
 -- Occupied --
-92.0044 -91.9929 -26.3408 -20.6136 -20.5597 -11.4076 -11.3790 -11.2989
-11.2954 -11.2946 -11.2882 -11.2854 -11.2788 -11.2283  -9.0033  -8.9930
 -6.6841  -6.6834  -6.6830  -6.6741  -6.6734  -6.6722  -1.6580  -1.4660
 -1.3686  -1.2125  -1.1354  -1.0677  -1.0183  -0.9955  -0.9580  -0.9139
 -0.8631  -0.8045  -0.7886  -0.7590  -0.7300  -0.7228  -0.6934  -0.6834
 -0.6728  -0.6607  -0.6098  -0.5996  -0.5911  -0.5842  -0.5653  -0.5575
 -0.5375  -0.5299  -0.5071  -0.4909  -0.4732  -0.4715  -0.4659  -0.4594
 -0.3873  -0.3445  -0.2876

          Ground-State Mulliken Net Atomic Charges

     Atom                 Charge (a.u.)
  ----------------------------------------
      1 C                     0.054160
      2 S                     0.073446
      3 C                    -0.213751
      4 C                    -0.018537
      5 C                    -0.096031
      6 S                    -0.011882
      7 C                    -0.156407
      8 C                     0.386300
      9 F                    -0.208095
     10 C                     0.445556
     11 O                    -0.462729
     12 O                    -0.300764
     13 C                    -0.058671
     14 H                     0.121176
     15 H                     0.094784
     16 H                     0.094679
     17 C                    -0.385277
     18 H                     0.123250
     19 H                     0.164830
     20 H                     0.141834
     21 H                     0.212131
  ----------------------------------------
  Sum of atomic charges =     0.000000

                    Cartesian Multipole Moments
 -----------------------------------------------------------------
    Charge (ESU x 10^10)
                -0.0000
    Dipole Moment (Debye)
         X       0.4250      Y       0.3177      Z       2.7359
       Tot       2.7869
    Quadrupole Moments (Debye-Ang)
        XX     -96.5470     XY      -1.2647     YY     -80.7670
        XZ       0.8413     YZ      -9.2687     ZZ     -97.6869

 Total job time:  56.14s(wall), 1970.87s(cpu)
        *  Thank you very much for using Q-Chem.  Have a nice day.  *
