 Q-Chem 5.4, Q-Chem, Inc., Pleasanton, CA (2021)
 Q-Chem 5.4.0 for Intel X86 EM64T Linux

User input:
--------------------------------------------------------------
$molecule
0 1
C	-0.001784	-0.991205	0.976939
S	-0.001284	-0.086405	2.484439
C	-0.002084	1.486095	1.695839
C	-0.000984	-0.086805	-0.090961
C	-0.003384	1.303395	0.290539
S	0.001816	-0.330305	-1.828561
C	-0.003684	1.421295	-2.077561
C	-0.006184	2.129695	-0.885661
F	-0.010984	3.466295	-0.842161
C	-0.001784	1.869395	-3.479161
O	0.006116	1.099495	-4.429561
O	-0.009284	3.219895	-3.592261
C	-0.004084	3.714995	-4.939261
H	-0.011084	4.815995	-4.856161
H	-0.897184	3.361695	-5.493261
H	0.899716	3.372095	-5.482361
C	-0.001784	-2.426405	0.976939
H	1.010516	-2.434405	0.600539
H	0.286016	-3.104305	1.766839
H	-0.329684	-2.957505	0.095539
H	-0.003484	2.410395	2.283439
$end

$rem
JOBTYPE		SP
EXCHANGE	HF
CORRELATION	pRIMP2
BASIS		cc-pvtz
METHOD		rimp2
AUX_BASIS	rimp2-cc-pvtz
SOLVENT_METHOD	PCM
PURECART	11111
SYMMETRY	false
MEM_TOTAL	110000
SCF_CONVERGENCE = 6
THRESH=10
GUI = 2
$end

$solvent
dielectric 4.90
$end
--------------------------------------------------------------

             Standard Nuclear Orientation (Angstroms)
    I     Atom           X                Y                Z
 ----------------------------------------------------------------
    1      C      -0.0017840000    -0.9912050000     0.9769390000
    2      S      -0.0012840000    -0.0864050000     2.4844390000
    3      C      -0.0020840000     1.4860950000     1.6958390000
    4      C      -0.0009840000    -0.0868050000    -0.0909610000
    5      C      -0.0033840000     1.3033950000     0.2905390000
    6      S       0.0018160000    -0.3303050000    -1.8285610000
    7      C      -0.0036840000     1.4212950000    -2.0775610000
    8      C      -0.0061840000     2.1296950000    -0.8856610000
    9      F      -0.0109840000     3.4662950000    -0.8421610000
   10      C      -0.0017840000     1.8693950000    -3.4791610000
   11      O       0.0061160000     1.0994950000    -4.4295610000
   12      O      -0.0092840000     3.2198950000    -3.5922610000
   13      C      -0.0040840000     3.7149950000    -4.9392610000
   14      H      -0.0110840000     4.8159950000    -4.8561610000
   15      H      -0.8971840000     3.3616950000    -5.4932610000
   16      H       0.8997160000     3.3720950000    -5.4823610000
   17      C      -0.0017840000    -2.4264050000     0.9769390000
   18      H       1.0105160000    -2.4344050000     0.6005390000
   19      H       0.2860160000    -3.1043050000     1.7668390000
   20      H      -0.3296840000    -2.9575050000     0.0955390000
   21      H      -0.0034840000     2.4103950000     2.2834390000
 ----------------------------------------------------------------

   11   -1389.2733371156      5.13e-07  Convergence criterion met
 Total energy in the final basis set =    -1389.2733371156
        RIMP2         total energy =     -1391.7776742440 a.u.

                    Orbital Energies (a.u.)
 --------------------------------------------------------------

 Alpha MOs
 -- Occupied --
-92.0056 -91.9908 -26.3399 -20.6135 -20.5595 -11.4074 -11.3777 -11.3037
-11.2944 -11.2906 -11.2880 -11.2804 -11.2784 -11.2314  -9.0044  -8.9910
 -6.6852  -6.6846  -6.6841  -6.6721  -6.6714  -6.6702  -1.6572  -1.4658
 -1.3684  -1.2113  -1.1358  -1.0674  -1.0177  -0.9958  -0.9576  -0.9135
 -0.8626  -0.8039  -0.7880  -0.7585  -0.7302  -0.7221  -0.6923  -0.6831
 -0.6725  -0.6600  -0.6117  -0.5954  -0.5886  -0.5872  -0.5619  -0.5596
 -0.5332  -0.5288  -0.5103  -0.4992  -0.4725  -0.4712  -0.4692  -0.4607
 -0.3840  -0.3446  -0.2816

          Ground-State Mulliken Net Atomic Charges

     Atom                 Charge (a.u.)
  ----------------------------------------
      1 C                     0.058071
      2 S                     0.076523
      3 C                    -0.228683
      4 C                    -0.029771
      5 C                    -0.090804
      6 S                    -0.018414
      7 C                    -0.155345
      8 C                     0.385632
      9 F                    -0.208913
     10 C                     0.445606
     11 O                    -0.462283
     12 O                    -0.300623
     13 C                    -0.058702
     14 H                     0.121159
     15 H                     0.094785
     16 H                     0.094635
     17 C                    -0.394010
     18 H                     0.143348
     19 H                     0.167781
     20 H                     0.148305
     21 H                     0.211703
  ----------------------------------------
  Sum of atomic charges =     0.000000

                    Cartesian Multipole Moments
 -----------------------------------------------------------------
    Charge (ESU x 10^10)
                -0.0000
    Dipole Moment (Debye)
         X       0.6763      Y      -0.0636      Z       3.0602
       Tot       3.1347
    Quadrupole Moments (Debye-Ang)
        XX     -96.9390     XY      -1.8042     YY     -80.3243
        XZ       0.9630     YZ     -10.4593     ZZ     -96.9859

 Total job time:  54.03s(wall), 1954.04s(cpu)
        *  Thank you very much for using Q-Chem.  Have a nice day.  *
