 Q-Chem 5.4, Q-Chem, Inc., Pleasanton, CA (2021)
 Q-Chem 5.4.0 for Intel X86 EM64T Linux

User input:
--------------------------------------------------------------
$molecule
0 1
C	-0.089330	-0.987267	0.978043
S	-0.010030	-0.085967	2.485543
C	0.126270	1.480633	1.696943
C	-0.009730	-0.086367	-0.089857
C	0.109070	1.298733	0.291643
S	-0.028130	-0.329267	-1.827457
C	0.118970	1.416233	-2.076457
C	0.178270	2.122133	-0.884557
F	0.289970	3.454033	-0.841057
C	0.159970	1.862433	-3.478057
O	0.100770	1.094833	-4.428457
O	0.270170	3.208433	-3.591157
C	0.318570	3.701233	-4.938157
H	0.407570	4.798633	-4.855057
H	-0.601930	3.427033	-5.492157
H	1.189070	3.280833	-5.481257
C	-0.089330	-2.422467	0.978043
H	-0.465730	-2.430467	-0.034257
H	0.700570	-3.100367	0.690243
H	-0.970730	-2.953567	1.305943
H	0.205470	2.401533	2.284543
$end

$rem
JOBTYPE		SP
EXCHANGE	HF
CORRELATION	pRIMP2
BASIS		cc-pvtz
METHOD		rimp2
AUX_BASIS	rimp2-cc-pvtz
SOLVENT_METHOD	PCM
PURECART	11111
SYMMETRY	false
MEM_TOTAL	110000
SCF_CONVERGENCE = 6
THRESH=10
GUI = 2
$end

$solvent
dielectric 4.90
$end
--------------------------------------------------------------

             Standard Nuclear Orientation (Angstroms)
    I     Atom           X                Y                Z
 ----------------------------------------------------------------
    1      C      -0.0893300000    -0.9872670000     0.9780430000
    2      S      -0.0100300000    -0.0859670000     2.4855430000
    3      C       0.1262700000     1.4806330000     1.6969430000
    4      C      -0.0097300000    -0.0863670000    -0.0898570000
    5      C       0.1090700000     1.2987330000     0.2916430000
    6      S      -0.0281300000    -0.3292670000    -1.8274570000
    7      C       0.1189700000     1.4162330000    -2.0764570000
    8      C       0.1782700000     2.1221330000    -0.8845570000
    9      F       0.2899700000     3.4540330000    -0.8410570000
   10      C       0.1599700000     1.8624330000    -3.4780570000
   11      O       0.1007700000     1.0948330000    -4.4284570000
   12      O       0.2701700000     3.2084330000    -3.5911570000
   13      C       0.3185700000     3.7012330000    -4.9381570000
   14      H       0.4075700000     4.7986330000    -4.8550570000
   15      H      -0.6019300000     3.4270330000    -5.4921570000
   16      H       1.1890700000     3.2808330000    -5.4812570000
   17      C      -0.0893300000    -2.4224670000     0.9780430000
   18      H      -0.4657300000    -2.4304670000    -0.0342570000
   19      H       0.7005700000    -3.1003670000     0.6902430000
   20      H      -0.9707300000    -2.9535670000     1.3059430000
   21      H       0.2054700000     2.4015330000     2.2845430000
 ----------------------------------------------------------------

   11   -1389.2729643392      4.61e-07  Convergence criterion met
 Total energy in the final basis set =    -1389.2729643392
        RIMP2         total energy =     -1391.7787560536 a.u.

                    Orbital Energies (a.u.)
 --------------------------------------------------------------

 Alpha MOs
 -- Occupied --
-92.0032 -91.9936 -26.3412 -20.6137 -20.5597 -11.4077 -11.3797 -11.2995
-11.2948 -11.2946 -11.2892 -11.2882 -11.2789 -11.2268  -9.0023  -8.9938
 -6.6831  -6.6824  -6.6820  -6.6749  -6.6742  -6.6731  -1.6584  -1.4661
 -1.3687  -1.2133  -1.1352  -1.0678  -1.0187  -0.9952  -0.9583  -0.9143
 -0.8634  -0.8052  -0.7890  -0.7592  -0.7301  -0.7232  -0.6945  -0.6835
 -0.6729  -0.6612  -0.6099  -0.6011  -0.5915  -0.5818  -0.5662  -0.5558
 -0.5403  -0.5301  -0.5071  -0.4877  -0.4735  -0.4717  -0.4651  -0.4540
 -0.3915  -0.3448  -0.2913

          Ground-State Mulliken Net Atomic Charges

     Atom                 Charge (a.u.)
  ----------------------------------------
      1 C                     0.044826
      2 S                     0.072940
      3 C                    -0.203102
      4 C                    -0.016136
      5 C                    -0.098799
      6 S                    -0.009117
      7 C                    -0.157948
      8 C                     0.389456
      9 F                    -0.207716
     10 C                     0.445030
     11 O                    -0.462892
     12 O                    -0.300920
     13 C                    -0.058679
     14 H                     0.121183
     15 H                     0.094798
     16 H                     0.094707
     17 C                    -0.368524
     18 H                     0.113339
     19 H                     0.148778
     20 H                     0.145821
     21 H                     0.212957
  ----------------------------------------
  Sum of atomic charges =     0.000000

                    Cartesian Multipole Moments
 -----------------------------------------------------------------
    Charge (ESU x 10^10)
                -0.0000
    Dipole Moment (Debye)
         X      -0.0540      Y       0.5831      Z       2.6136
       Tot       2.6784
    Quadrupole Moments (Debye-Ang)
        XX     -96.1740     XY       1.5990     YY     -81.1098
        XZ      -1.0991     YZ      -8.4934     ZZ     -98.0047

 Total job time:  54.25s(wall), 1949.03s(cpu)
        *  Thank you very much for using Q-Chem.  Have a nice day.  *
