 Q-Chem 5.4, Q-Chem, Inc., Pleasanton, CA (2021)
 Q-Chem 5.4.0 for Intel X86 EM64T Linux

User input:
--------------------------------------------------------------
$molecule
0 1
C	-0.266894	-0.955820	0.974891
S	-0.032294	-0.082020	2.482391
C	0.374006	1.437180	1.693791
C	-0.032094	-0.082420	-0.093009
C	0.325506	1.260980	0.288491
S	-0.092394	-0.318420	-1.830609
C	0.355706	1.374980	-2.079609
C	0.536606	2.059780	-0.887709
F	0.877906	3.352180	-0.844209
C	0.473406	1.807280	-3.481209
O	0.281906	1.061580	-4.431609
O	0.815806	3.113680	-3.594309
C	0.948906	3.590580	-4.941309
H	1.227206	4.655880	-4.858209
H	-0.005194	3.480480	-5.495309
H	1.733206	3.025480	-5.484409
C	-0.266894	-2.391020	0.974891
H	-1.279194	-2.399020	1.351291
H	-0.554694	-3.068920	0.184991
H	0.061006	-2.922120	1.856291
H	0.611806	2.330280	2.281391
$end

$rem
JOBTYPE		SP
EXCHANGE	HF
CORRELATION	pRIMP2
BASIS		cc-pvtz
METHOD		rimp2
AUX_BASIS	rimp2-cc-pvtz
SOLVENT_METHOD	PCM
PURECART	11111
SYMMETRY	false
MEM_TOTAL	110000
SCF_CONVERGENCE = 6
THRESH=10
GUI = 2
$end

$solvent
dielectric 4.90
$end
--------------------------------------------------------------

             Standard Nuclear Orientation (Angstroms)
    I     Atom           X                Y                Z
 ----------------------------------------------------------------
    1      C      -0.2668940000    -0.9558200000     0.9748910000
    2      S      -0.0322940000    -0.0820200000     2.4823910000
    3      C       0.3740060000     1.4371800000     1.6937910000
    4      C      -0.0320940000    -0.0824200000    -0.0930090000
    5      C       0.3255060000     1.2609800000     0.2884910000
    6      S      -0.0923940000    -0.3184200000    -1.8306090000
    7      C       0.3557060000     1.3749800000    -2.0796090000
    8      C       0.5366060000     2.0597800000    -0.8877090000
    9      F       0.8779060000     3.3521800000    -0.8442090000
   10      C       0.4734060000     1.8072800000    -3.4812090000
   11      O       0.2819060000     1.0615800000    -4.4316090000
   12      O       0.8158060000     3.1136800000    -3.5943090000
   13      C       0.9489060000     3.5905800000    -4.9413090000
   14      H       1.2272060000     4.6558800000    -4.8582090000
   15      H      -0.0051940000     3.4804800000    -5.4953090000
   16      H       1.7332060000     3.0254800000    -5.4844090000
   17      C      -0.2668940000    -2.3910200000     0.9748910000
   18      H      -1.2791940000    -2.3990200000     1.3512910000
   19      H      -0.5546940000    -3.0689200000     0.1849910000
   20      H       0.0610060000    -2.9221200000     1.8562910000
   21      H       0.6118060000     2.3302800000     2.2813910000
 ----------------------------------------------------------------

   11   -1389.2659354676      5.09e-07  Convergence criterion met
 Total energy in the final basis set =    -1389.2659354676
        RIMP2         total energy =     -1391.7708997256 a.u.

                    Orbital Energies (a.u.)
 --------------------------------------------------------------

 Alpha MOs
 -- Occupied --
-92.0064 -91.9902 -26.3396 -20.6133 -20.5594 -11.4071 -11.3774 -11.2990
-11.2944 -11.2940 -11.2879 -11.2807 -11.2780 -11.2285  -9.0053  -8.9903
 -6.6861  -6.6855  -6.6850  -6.6714  -6.6707  -6.6696  -1.6569  -1.4656
 -1.3682  -1.2112  -1.1363  -1.0657  -1.0183  -0.9954  -0.9578  -0.9130
 -0.8628  -0.8047  -0.7877  -0.7580  -0.7304  -0.7218  -0.6917  -0.6830
 -0.6724  -0.6598  -0.6123  -0.5947  -0.5884  -0.5820  -0.5624  -0.5578
 -0.5320  -0.5272  -0.5140  -0.4973  -0.4719  -0.4716  -0.4705  -0.4593
 -0.3837  -0.3451  -0.2812

          Ground-State Mulliken Net Atomic Charges

     Atom                 Charge (a.u.)
  ----------------------------------------
      1 C                     0.019286
      2 S                     0.074783
      3 C                    -0.219693
      4 C                    -0.007344
      5 C                    -0.098500
      6 S                    -0.012344
      7 C                    -0.157444
      8 C                     0.391619
      9 F                    -0.209353
     10 C                     0.446101
     11 O                    -0.462012
     12 O                    -0.300716
     13 C                    -0.058544
     14 H                     0.121007
     15 H                     0.094667
     16 H                     0.094662
     17 C                    -0.385017
     18 H                     0.140310
     19 H                     0.168238
     20 H                     0.146578
     21 H                     0.213719
  ----------------------------------------
  Sum of atomic charges =     0.000000

                    Cartesian Multipole Moments
 -----------------------------------------------------------------
    Charge (ESU x 10^10)
                -0.0000
    Dipole Moment (Debye)
         X      -0.1789      Y       0.1008      Z       3.5334
       Tot       3.5394
    Quadrupole Moments (Debye-Ang)
        XX     -95.8820     XY       4.7262     YY     -81.4323
        XZ      -2.7057     YZ     -10.7364     ZZ     -95.9501

 Total job time:  55.25s(wall), 1874.36s(cpu)
        *  Thank you very much for using Q-Chem.  Have a nice day.  *
