 Q-Chem 5.4, Q-Chem, Inc., Pleasanton, CA (2021)
 Q-Chem 5.4.0 for Intel X86 EM64T Linux

User input:
--------------------------------------------------------------
$molecule
0 1
C	-0.178693	-0.975447	0.977564
S	-0.021093	-0.084547	2.485064
C	0.251207	1.464253	1.696464
C	-0.020893	-0.084847	-0.090336
C	0.218207	1.284553	0.291164
S	-0.060393	-0.325247	-1.827936
C	0.238307	1.400753	-2.076936
C	0.358907	2.098753	-0.885036
F	0.586307	3.415953	-0.841536
C	0.318007	1.841653	-3.478536
O	0.192207	1.082153	-4.428936
O	0.545207	3.172953	-3.591636
C	0.636307	3.659653	-4.938636
H	0.820607	4.745153	-4.855536
H	-0.304593	3.466753	-5.492636
H	1.466807	3.165053	-5.481736
C	-0.178693	-2.410647	0.977564
H	-0.878593	-2.418647	0.155064
H	0.465207	-3.088547	0.436964
H	-0.894793	-2.941747	1.587164
H	0.410307	2.374753	2.284064
$end

$rem
JOBTYPE		SP
EXCHANGE	HF
CORRELATION	pRIMP2
BASIS		cc-pvtz
METHOD		rimp2
AUX_BASIS	rimp2-cc-pvtz
SOLVENT_METHOD	PCM
PURECART	11111
SYMMETRY	false
MEM_TOTAL	110000
SCF_CONVERGENCE = 6
THRESH=10
GUI = 2
$end

$solvent
dielectric 4.90
$end
--------------------------------------------------------------

             Standard Nuclear Orientation (Angstroms)
    I     Atom           X                Y                Z
 ----------------------------------------------------------------
    1      C      -0.1786930000    -0.9754470000     0.9775640000
    2      S      -0.0210930000    -0.0845470000     2.4850640000
    3      C       0.2512070000     1.4642530000     1.6964640000
    4      C      -0.0208930000    -0.0848470000    -0.0903360000
    5      C       0.2182070000     1.2845530000     0.2911640000
    6      S      -0.0603930000    -0.3252470000    -1.8279360000
    7      C       0.2383070000     1.4007530000    -2.0769360000
    8      C       0.3589070000     2.0987530000    -0.8850360000
    9      F       0.5863070000     3.4159530000    -0.8415360000
   10      C       0.3180070000     1.8416530000    -3.4785360000
   11      O       0.1922070000     1.0821530000    -4.4289360000
   12      O       0.5452070000     3.1729530000    -3.5916360000
   13      C       0.6363070000     3.6596530000    -4.9386360000
   14      H       0.8206070000     4.7451530000    -4.8555360000
   15      H      -0.3045930000     3.4667530000    -5.4926360000
   16      H       1.4668070000     3.1650530000    -5.4817360000
   17      C      -0.1786930000    -2.4106470000     0.9775640000
   18      H      -0.8785930000    -2.4186470000     0.1550640000
   19      H       0.4652070000    -3.0885470000     0.4369640000
   20      H      -0.8947930000    -2.9417470000     1.5871640000
   21      H       0.4103070000     2.3747530000     2.2840640000
 ----------------------------------------------------------------

   11   -1389.2712924192      4.74e-07  Convergence criterion met
 Total energy in the final basis set =    -1389.2712924192
        RIMP2         total energy =     -1391.7772086772 a.u.

                    Orbital Energies (a.u.)
 --------------------------------------------------------------

 Alpha MOs
 -- Occupied --
-92.0041 -91.9932 -26.3408 -20.6136 -20.5597 -11.4076 -11.3791 -11.2972
-11.2963 -11.2945 -11.2882 -11.2865 -11.2788 -11.2273  -9.0031  -8.9933
 -6.6839  -6.6832  -6.6828  -6.6743  -6.6736  -6.6725  -1.6580  -1.4660
 -1.3686  -1.2127  -1.1354  -1.0672  -1.0185  -0.9954  -0.9581  -0.9139
 -0.8633  -0.8048  -0.7887  -0.7590  -0.7299  -0.7229  -0.6939  -0.6834
 -0.6728  -0.6608  -0.6114  -0.5975  -0.5907  -0.5815  -0.5649  -0.5568
 -0.5390  -0.5299  -0.5072  -0.4909  -0.4735  -0.4715  -0.4676  -0.4571
 -0.3875  -0.3447  -0.2879

          Ground-State Mulliken Net Atomic Charges

     Atom                 Charge (a.u.)
  ----------------------------------------
      1 C                     0.047350
      2 S                     0.075504
      3 C                    -0.210531
      4 C                    -0.029847
      5 C                    -0.091330
      6 S                    -0.008202
      7 C                    -0.156568
      8 C                     0.385964
      9 F                    -0.208046
     10 C                     0.445571
     11 O                    -0.462627
     12 O                    -0.300858
     13 C                    -0.058616
     14 H                     0.121136
     15 H                     0.094739
     16 H                     0.094725
     17 C                    -0.375790
     18 H                     0.122131
     19 H                     0.154428
     20 H                     0.148452
     21 H                     0.212413
  ----------------------------------------
  Sum of atomic charges =     0.000000

                    Cartesian Multipole Moments
 -----------------------------------------------------------------
    Charge (ESU x 10^10)
                -0.0000
    Dipole Moment (Debye)
         X      -0.0911      Y       0.4070      Z       2.7278
       Tot       2.7595
    Quadrupole Moments (Debye-Ang)
        XX     -96.0667     XY       3.1577     YY     -81.2886
        XZ      -2.1626     YZ      -8.8471     ZZ     -97.6230

 Total job time:  59.78s(wall), 2077.30s(cpu)
        *  Thank you very much for using Q-Chem.  Have a nice day.  *
