 Q-Chem 5.4, Q-Chem, Inc., Pleasanton, CA (2021)
 Q-Chem 5.4.0 for Intel X86 EM64T Linux

User input:
--------------------------------------------------------------
$molecule
0 1
C	-0.903068	-0.471137	0.974584
S	-0.119268	-0.019137	2.482084
C	1.242232	0.767763	1.693484
C	-0.119368	-0.019537	-0.093316
C	1.083332	0.677463	0.288184
S	-0.328968	-0.143837	-1.830916
C	1.185332	0.736763	-2.079916
C	1.797432	1.093063	-0.888016
F	2.952632	1.765563	-0.844516
C	1.574232	0.959163	-3.481516
O	0.911532	0.567363	-4.431916
O	2.740132	1.640863	-3.594616
C	3.171432	1.883963	-4.941616
H	4.121532	2.440463	-4.858516
H	2.418932	2.480763	-5.495616
H	3.326432	0.929763	-5.484716
C	-0.903068	-1.906337	0.974584
H	-0.070968	-1.914337	1.663084
H	-1.443268	-2.584237	1.618784
H	-0.303768	-2.437437	0.249984
H	2.041932	1.231163	2.281084
$end

$rem
JOBTYPE		SP
EXCHANGE	HF
CORRELATION	pRIMP2
BASIS		cc-pvtz
METHOD		rimp2
AUX_BASIS	rimp2-cc-pvtz
SOLVENT_METHOD	PCM
PURECART	11111
SYMMETRY	false
MEM_TOTAL	110000
SCF_CONVERGENCE = 6
THRESH=10
GUI = 2
$end

$solvent
dielectric 4.90
$end
--------------------------------------------------------------

             Standard Nuclear Orientation (Angstroms)
    I     Atom           X                Y                Z
 ----------------------------------------------------------------
    1      C      -0.9030680000    -0.4711370000     0.9745840000
    2      S      -0.1192680000    -0.0191370000     2.4820840000
    3      C       1.2422320000     0.7677630000     1.6934840000
    4      C      -0.1193680000    -0.0195370000    -0.0933160000
    5      C       1.0833320000     0.6774630000     0.2881840000
    6      S      -0.3289680000    -0.1438370000    -1.8309160000
    7      C       1.1853320000     0.7367630000    -2.0799160000
    8      C       1.7974320000     1.0930630000    -0.8880160000
    9      F       2.9526320000     1.7655630000    -0.8445160000
   10      C       1.5742320000     0.9591630000    -3.4815160000
   11      O       0.9115320000     0.5673630000    -4.4319160000
   12      O       2.7401320000     1.6408630000    -3.5946160000
   13      C       3.1714320000     1.8839630000    -4.9416160000
   14      H       4.1215320000     2.4404630000    -4.8585160000
   15      H       2.4189320000     2.4807630000    -5.4956160000
   16      H       3.3264320000     0.9297630000    -5.4847160000
   17      C      -0.9030680000    -1.9063370000     0.9745840000
   18      H      -0.0709680000    -1.9143370000     1.6630840000
   19      H      -1.4432680000    -2.5842370000     1.6187840000
   20      H      -0.3037680000    -2.4374370000     0.2499840000
   21      H       2.0419320000     1.2311630000     2.2810840000
 ----------------------------------------------------------------

   11   -1389.1898680867      6.13e-07  Convergence criterion met
 Total energy in the final basis set =    -1389.1898680867
        RIMP2         total energy =     -1391.7068496313 a.u.

                    Orbital Energies (a.u.)
 --------------------------------------------------------------

 Alpha MOs
 -- Occupied --
-92.0014 -91.9978 -26.3441 -20.6143 -20.5604 -11.4086 -11.3840 -11.3262
-11.3062 -11.2950 -11.2887 -11.2822 -11.2653 -11.2145  -9.0013  -8.9989
 -6.6823  -6.6815  -6.6805  -6.6795  -6.6785  -6.6784  -1.6612  -1.4667
 -1.3694  -1.2251  -1.1475  -1.0709  -1.0243  -0.9901  -0.9618  -0.9029
 -0.8677  -0.8128  -0.7918  -0.7606  -0.7359  -0.7258  -0.6977  -0.6842
 -0.6736  -0.6623  -0.6136  -0.6054  -0.5951  -0.5703  -0.5634  -0.5539
 -0.5324  -0.5271  -0.5158  -0.4998  -0.4777  -0.4730  -0.4717  -0.4342
 -0.3801  -0.3459  -0.2886

          Ground-State Mulliken Net Atomic Charges

     Atom                 Charge (a.u.)
  ----------------------------------------
      1 C                    -0.097776
      2 S                     0.080319
      3 C                    -0.138340
      4 C                     0.052517
      5 C                    -0.116332
      6 S                     0.037657
      7 C                    -0.154913
      8 C                     0.391039
      9 F                    -0.206033
     10 C                     0.447613
     11 O                    -0.463453
     12 O                    -0.301538
     13 C                    -0.058293
     14 H                     0.121147
     15 H                     0.095072
     16 H                     0.094723
     17 C                    -0.379072
     18 H                     0.114059
     19 H                     0.133741
     20 H                     0.130981
     21 H                     0.216882
  ----------------------------------------
  Sum of atomic charges =     0.000000

                    Cartesian Multipole Moments
 -----------------------------------------------------------------
    Charge (ESU x 10^10)
                -0.0000
    Dipole Moment (Debye)
         X       3.6399      Y       0.4117      Z       3.1226
       Tot       4.8134
    Quadrupole Moments (Debye-Ang)
        XX     -90.5701     XY       4.3775     YY     -91.6525
        XZ      -5.4657     YZ      -5.5934     ZZ     -94.8625

 Total job time:  54.72s(wall), 1974.37s(cpu)
        *  Thank you very much for using Q-Chem.  Have a nice day.  *
