 Q-Chem 5.4, Q-Chem, Inc., Pleasanton, CA (2021)
 Q-Chem 5.4.0 for Intel X86 EM64T Linux

User input:
--------------------------------------------------------------
$molecule
0 1
C	-0.898762	-0.471137	0.976092
S	-0.114962	-0.019137	2.483592
C	1.246538	0.767763	1.694992
C	-0.115062	-0.019537	-0.091808
C	1.087638	0.677463	0.289692
S	-0.324662	-0.143837	-1.829408
C	1.189638	0.736763	-2.078408
C	1.801738	1.093063	-0.886508
F	2.956938	1.765563	-0.843008
C	1.578538	0.959163	-3.480008
O	0.915838	0.567363	-4.430408
O	2.744438	1.640863	-3.593108
C	3.175738	1.883963	-4.940108
H	4.125838	2.440463	-4.857008
H	2.423238	2.480763	-5.494108
H	3.330738	0.929763	-5.483208
C	-0.898762	-1.906337	0.976092
H	-1.963562	-1.914337	0.795892
H	-0.753062	-2.584237	0.148092
H	-1.055462	-2.437437	1.903292
H	2.046238	1.231163	2.282592
$end

$rem
JOBTYPE		SP
EXCHANGE	HF
CORRELATION	pRIMP2
BASIS		cc-pvtz
METHOD		rimp2
AUX_BASIS	rimp2-cc-pvtz
SOLVENT_METHOD	PCM
PURECART	11111
SYMMETRY	false
MEM_TOTAL	110000
SCF_CONVERGENCE = 6
THRESH=10
GUI = 2
$end

$solvent
dielectric 4.90
$end
--------------------------------------------------------------

             Standard Nuclear Orientation (Angstroms)
    I     Atom           X                Y                Z
 ----------------------------------------------------------------
    1      C      -0.8987620000    -0.4711370000     0.9760920000
    2      S      -0.1149620000    -0.0191370000     2.4835920000
    3      C       1.2465380000     0.7677630000     1.6949920000
    4      C      -0.1150620000    -0.0195370000    -0.0918080000
    5      C       1.0876380000     0.6774630000     0.2896920000
    6      S      -0.3246620000    -0.1438370000    -1.8294080000
    7      C       1.1896380000     0.7367630000    -2.0784080000
    8      C       1.8017380000     1.0930630000    -0.8865080000
    9      F       2.9569380000     1.7655630000    -0.8430080000
   10      C       1.5785380000     0.9591630000    -3.4800080000
   11      O       0.9158380000     0.5673630000    -4.4304080000
   12      O       2.7444380000     1.6408630000    -3.5931080000
   13      C       3.1757380000     1.8839630000    -4.9401080000
   14      H       4.1258380000     2.4404630000    -4.8570080000
   15      H       2.4232380000     2.4807630000    -5.4941080000
   16      H       3.3307380000     0.9297630000    -5.4832080000
   17      C      -0.8987620000    -1.9063370000     0.9760920000
   18      H      -1.9635620000    -1.9143370000     0.7958920000
   19      H      -0.7530620000    -2.5842370000     0.1480920000
   20      H      -1.0554620000    -2.4374370000     1.9032920000
   21      H       2.0462380000     1.2311630000     2.2825920000
 ----------------------------------------------------------------

   11   -1389.1891066894      6.24e-07  Convergence criterion met
 Total energy in the final basis set =    -1389.1891066894
        RIMP2         total energy =     -1391.7070984524 a.u.

                    Orbital Energies (a.u.)
 --------------------------------------------------------------

 Alpha MOs
 -- Occupied --
-92.0035 -91.9996 -26.3436 -20.6141 -20.5600 -11.4084 -11.3834 -11.3230
-11.3068 -11.2943 -11.2886 -11.2808 -11.2552 -11.2107  -9.0032  -8.9997
 -6.6842  -6.6834  -6.6824  -6.6803  -6.6792  -6.6792  -1.6607  -1.4665
 -1.3692  -1.2213  -1.1416  -1.0683  -1.0220  -0.9908  -0.9603  -0.9076
 -0.8663  -0.8101  -0.7911  -0.7604  -0.7324  -0.7253  -0.6968  -0.6840
 -0.6735  -0.6613  -0.6139  -0.5963  -0.5927  -0.5703  -0.5630  -0.5588
 -0.5327  -0.5269  -0.5031  -0.4995  -0.4772  -0.4726  -0.4714  -0.4407
 -0.3707  -0.3431  -0.2867

          Ground-State Mulliken Net Atomic Charges

     Atom                 Charge (a.u.)
  ----------------------------------------
      1 C                    -0.135982
      2 S                     0.095461
      3 C                    -0.140606
      4 C                     0.076922
      5 C                    -0.118388
      6 S                     0.040427
      7 C                    -0.160358
      8 C                     0.393921
      9 F                    -0.206155
     10 C                     0.448628
     11 O                    -0.464570
     12 O                    -0.301571
     13 C                    -0.058271
     14 H                     0.121170
     15 H                     0.094946
     16 H                     0.094699
     17 C                    -0.408222
     18 H                     0.134224
     19 H                     0.147102
     20 H                     0.132096
     21 H                     0.214526
  ----------------------------------------
  Sum of atomic charges =     0.000000

                    Cartesian Multipole Moments
 -----------------------------------------------------------------
    Charge (ESU x 10^10)
                -0.0000
    Dipole Moment (Debye)
         X       2.5872      Y       0.4724      Z       2.6808
       Tot       3.7555
    Quadrupole Moments (Debye-Ang)
        XX     -89.1968     XY       6.2795     YY     -91.6053
        XZ      -5.9412     YZ      -4.3842     ZZ     -95.3921

 Total job time:  57.33s(wall), 1996.75s(cpu)
        *  Thank you very much for using Q-Chem.  Have a nice day.  *
