 Q-Chem 5.4, Q-Chem, Inc., Pleasanton, CA (2021)
 Q-Chem 5.4.0 for Intel X86 EM64T Linux

User input:
--------------------------------------------------------------
$molecule
0 1
C	-0.270712	-0.955820	0.974266
S	-0.036112	-0.082020	2.481766
C	0.370188	1.437180	1.693166
C	-0.035912	-0.082420	-0.093634
C	0.321688	1.260980	0.287866
S	-0.096212	-0.318420	-1.831234
C	0.351888	1.374980	-2.080234
C	0.532788	2.059780	-0.888334
F	0.874088	3.352180	-0.844834
C	0.469588	1.807280	-3.481834
O	0.278088	1.061580	-4.432234
O	0.811988	3.113680	-3.594934
C	0.945088	3.590580	-4.941934
H	1.223388	4.655880	-4.858834
H	-0.009012	3.480480	-5.495934
H	1.729388	3.025480	-5.485034
C	-0.270712	-2.391020	0.974266
H	0.429188	-2.399020	1.796766
H	-0.914612	-3.068920	1.514866
H	0.445388	-2.922120	0.364666
H	0.607988	2.330280	2.280766
$end

$rem
JOBTYPE		SP
EXCHANGE	HF
CORRELATION	pRIMP2
BASIS		cc-pvtz
METHOD		rimp2
AUX_BASIS	rimp2-cc-pvtz
SOLVENT_METHOD	PCM
PURECART	11111
SYMMETRY	false
MEM_TOTAL	110000
SCF_CONVERGENCE = 6
THRESH=10
GUI = 2
$end

$solvent
dielectric 4.90
$end
--------------------------------------------------------------

             Standard Nuclear Orientation (Angstroms)
    I     Atom           X                Y                Z
 ----------------------------------------------------------------
    1      C      -0.2707120000    -0.9558200000     0.9742660000
    2      S      -0.0361120000    -0.0820200000     2.4817660000
    3      C       0.3701880000     1.4371800000     1.6931660000
    4      C      -0.0359120000    -0.0824200000    -0.0936340000
    5      C       0.3216880000     1.2609800000     0.2878660000
    6      S      -0.0962120000    -0.3184200000    -1.8312340000
    7      C       0.3518880000     1.3749800000    -2.0802340000
    8      C       0.5327880000     2.0597800000    -0.8883340000
    9      F       0.8740880000     3.3521800000    -0.8448340000
   10      C       0.4695880000     1.8072800000    -3.4818340000
   11      O       0.2780880000     1.0615800000    -4.4322340000
   12      O       0.8119880000     3.1136800000    -3.5949340000
   13      C       0.9450880000     3.5905800000    -4.9419340000
   14      H       1.2233880000     4.6558800000    -4.8588340000
   15      H      -0.0090120000     3.4804800000    -5.4959340000
   16      H       1.7293880000     3.0254800000    -5.4850340000
   17      C      -0.2707120000    -2.3910200000     0.9742660000
   18      H       0.4291880000    -2.3990200000     1.7967660000
   19      H      -0.9146120000    -3.0689200000     1.5148660000
   20      H       0.4453880000    -2.9221200000     0.3646660000
   21      H       0.6079880000     2.3302800000     2.2807660000
 ----------------------------------------------------------------

   11   -1389.2673414772      5.18e-07  Convergence criterion met
 Total energy in the final basis set =    -1389.2673414772
        RIMP2         total energy =     -1391.7722022245 a.u.

                    Orbital Energies (a.u.)
 --------------------------------------------------------------

 Alpha MOs
 -- Occupied --
-92.0051 -91.9912 -26.3403 -20.6133 -20.5594 -11.4072 -11.3783 -11.2987
-11.2957 -11.2941 -11.2880 -11.2847 -11.2784 -11.2267  -9.0044  -8.9914
 -6.6852  -6.6846  -6.6840  -6.6724  -6.6717  -6.6706  -1.6575  -1.4657
 -1.3683  -1.2124  -1.1373  -1.0656  -1.0193  -0.9947  -0.9584  -0.9120
 -0.8634  -0.8061  -0.7882  -0.7580  -0.7313  -0.7224  -0.6916  -0.6831
 -0.6725  -0.6603  -0.6096  -0.6007  -0.5923  -0.5757  -0.5649  -0.5555
 -0.5382  -0.5297  -0.5096  -0.4902  -0.4733  -0.4709  -0.4701  -0.4556
 -0.3883  -0.3457  -0.2862

          Ground-State Mulliken Net Atomic Charges

     Atom                 Charge (a.u.)
  ----------------------------------------
      1 C                     0.045551
      2 S                     0.074335
      3 C                    -0.211795
      4 C                    -0.038209
      5 C                    -0.084388
      6 S                    -0.004565
      7 C                    -0.156695
      8 C                     0.388773
      9 F                    -0.208675
     10 C                     0.445766
     11 O                    -0.462151
     12 O                    -0.300880
     13 C                    -0.058497
     14 H                     0.121002
     15 H                     0.094775
     16 H                     0.094613
     17 C                    -0.381100
     18 H                     0.128492
     19 H                     0.153475
     20 H                     0.146509
     21 H                     0.213664
  ----------------------------------------
  Sum of atomic charges =     0.000000

                    Cartesian Multipole Moments
 -----------------------------------------------------------------
    Charge (ESU x 10^10)
                -0.0000
    Dipole Moment (Debye)
         X       1.0213      Y       0.4062      Z       3.7338
       Tot       3.8922
    Quadrupole Moments (Debye-Ang)
        XX     -96.1127     XY       1.7658     YY     -81.8603
        XZ      -2.1514     YZ     -11.1859     ZZ     -95.6409

 Total job time:  66.99s(wall), 1940.60s(cpu)
        *  Thank you very much for using Q-Chem.  Have a nice day.  *
