 Q-Chem 5.4, Q-Chem, Inc., Pleasanton, CA (2021)
 Q-Chem 5.4.0 for Intel X86 EM64T Linux

User input:
--------------------------------------------------------------
$molecule
0 1
C	0.002632	-0.991205	0.976498
S	0.003132	-0.086405	2.483998
C	0.002332	1.486095	1.695398
C	0.003432	-0.086805	-0.091402
C	0.001032	1.303395	0.290098
S	0.006232	-0.330305	-1.829002
C	0.000732	1.421295	-2.078002
C	-0.001768	2.129695	-0.886102
F	-0.006568	3.466295	-0.842602
C	0.002632	1.869395	-3.479602
O	0.010532	1.099495	-4.430002
O	-0.004868	3.219895	-3.592702
C	0.000332	3.714995	-4.939702
H	-0.006668	4.815995	-4.856602
H	-0.892768	3.361695	-5.493702
H	0.904132	3.372095	-5.482802
C	0.002632	-2.426405	0.976498
H	-1.014768	-2.434405	0.614098
H	0.289932	-3.104305	0.186398
H	-0.312768	-2.957505	1.862398
H	0.000932	2.410395	2.282998
$end

$rem
JOBTYPE		SP
EXCHANGE	HF
CORRELATION	pRIMP2
BASIS		cc-pvtz
METHOD		rimp2
AUX_BASIS	rimp2-cc-pvtz
SOLVENT_METHOD	PCM
PURECART	11111
SYMMETRY	false
MEM_TOTAL	110000
SCF_CONVERGENCE = 6
THRESH=10
GUI = 2
$end

$solvent
dielectric 4.90
$end
--------------------------------------------------------------

             Standard Nuclear Orientation (Angstroms)
    I     Atom           X                Y                Z
 ----------------------------------------------------------------
    1      C       0.0026320000    -0.9912050000     0.9764980000
    2      S       0.0031320000    -0.0864050000     2.4839980000
    3      C       0.0023320000     1.4860950000     1.6953980000
    4      C       0.0034320000    -0.0868050000    -0.0914020000
    5      C       0.0010320000     1.3033950000     0.2900980000
    6      S       0.0062320000    -0.3303050000    -1.8290020000
    7      C       0.0007320000     1.4212950000    -2.0780020000
    8      C      -0.0017680000     2.1296950000    -0.8861020000
    9      F      -0.0065680000     3.4662950000    -0.8426020000
   10      C       0.0026320000     1.8693950000    -3.4796020000
   11      O       0.0105320000     1.0994950000    -4.4300020000
   12      O      -0.0048680000     3.2198950000    -3.5927020000
   13      C       0.0003320000     3.7149950000    -4.9397020000
   14      H      -0.0066680000     4.8159950000    -4.8566020000
   15      H      -0.8927680000     3.3616950000    -5.4937020000
   16      H       0.9041320000     3.3720950000    -5.4828020000
   17      C       0.0026320000    -2.4264050000     0.9764980000
   18      H      -1.0147680000    -2.4344050000     0.6140980000
   19      H       0.2899320000    -3.1043050000     0.1863980000
   20      H      -0.3127680000    -2.9575050000     1.8623980000
   21      H       0.0009320000     2.4103950000     2.2829980000
 ----------------------------------------------------------------

   11   -1389.2733710626      5.16e-07  Convergence criterion met
 Total energy in the final basis set =    -1389.2733710626
        RIMP2         total energy =     -1391.7775217984 a.u.

                    Orbital Energies (a.u.)
 --------------------------------------------------------------

 Alpha MOs
 -- Occupied --
-92.0066 -91.9907 -26.3398 -20.6134 -20.5595 -11.4073 -11.3775 -11.3030
-11.2944 -11.2909 -11.2880 -11.2797 -11.2782 -11.2311  -9.0053  -8.9908
 -6.6861  -6.6855  -6.6850  -6.6719  -6.6712  -6.6701  -1.6571  -1.4658
 -1.3684  -1.2111  -1.1360  -1.0670  -1.0179  -0.9958  -0.9577  -0.9133
 -0.8627  -0.8040  -0.7879  -0.7584  -0.7301  -0.7220  -0.6928  -0.6831
 -0.6725  -0.6601  -0.6129  -0.5945  -0.5884  -0.5830  -0.5618  -0.5594
 -0.5345  -0.5289  -0.5110  -0.4989  -0.4726  -0.4712  -0.4701  -0.4609
 -0.3839  -0.3447  -0.2816

          Ground-State Mulliken Net Atomic Charges

     Atom                 Charge (a.u.)
  ----------------------------------------
      1 C                     0.054255
      2 S                     0.080433
      3 C                    -0.229815
      4 C                    -0.032300
      5 C                    -0.088811
      6 S                    -0.017457
      7 C                    -0.155982
      8 C                     0.386176
      9 F                    -0.209002
     10 C                     0.445432
     11 O                    -0.462262
     12 O                    -0.300611
     13 C                    -0.058694
     14 H                     0.121147
     15 H                     0.094687
     16 H                     0.094724
     17 C                    -0.389853
     18 H                     0.143237
     19 H                     0.166404
     20 H                     0.146194
     21 H                     0.212096
  ----------------------------------------
  Sum of atomic charges =     0.000000

                    Cartesian Multipole Moments
 -----------------------------------------------------------------
    Charge (ESU x 10^10)
                -0.0000
    Dipole Moment (Debye)
         X      -0.6991      Y      -0.0297      Z       3.0856
       Tot       3.1639
    Quadrupole Moments (Debye-Ang)
        XX     -96.9447     XY       1.7892     YY     -80.4030
        XZ      -0.8456     YZ     -10.2124     ZZ     -96.8929

 Total job time:  56.33s(wall), 1973.83s(cpu)
        *  Thank you very much for using Q-Chem.  Have a nice day.  *
