 Q-Chem 5.4, Q-Chem, Inc., Pleasanton, CA (2021)
 Q-Chem 5.4.0 for Intel X86 EM64T Linux

User input:
--------------------------------------------------------------
$molecule
0 1
C	-0.795068	-0.619704	0.977246
S	-0.101668	-0.038504	2.484746
C	1.102432	0.972896	1.696146
C	-0.101768	-0.038904	-0.090654
C	0.961732	0.856396	0.290846
S	-0.286468	-0.197704	-1.828254
C	1.051832	0.932496	-2.077254
C	1.592832	1.389696	-0.885354
F	2.613632	2.252596	-0.841854
C	1.396232	1.219096	-3.478854
O	0.811632	0.718096	-4.429254
O	2.426032	2.092896	-3.591954
C	2.808632	2.407096	-4.938954
H	3.647532	3.120196	-4.855854
H	1.963932	2.864196	-5.492954
H	3.126932	1.494396	-5.482054
C	-0.795068	-2.054904	0.977246
H	-1.627168	-2.062904	0.288746
H	-0.254868	-2.732804	0.333046
H	-1.394368	-2.586004	1.701846
H	1.809632	1.568096	2.283746
$end

$rem
JOBTYPE		SP
EXCHANGE	HF
CORRELATION	pRIMP2
BASIS		cc-pvtz
METHOD		rimp2
AUX_BASIS	rimp2-cc-pvtz
SOLVENT_METHOD	PCM
PURECART	11111
SYMMETRY	false
MEM_TOTAL	110000
SCF_CONVERGENCE = 6
THRESH=10
GUI = 2
$end

$solvent
dielectric 4.90
$end
--------------------------------------------------------------

             Standard Nuclear Orientation (Angstroms)
    I     Atom           X                Y                Z
 ----------------------------------------------------------------
    1      C      -0.7950680000    -0.6197040000     0.9772460000
    2      S      -0.1016680000    -0.0385040000     2.4847460000
    3      C       1.1024320000     0.9728960000     1.6961460000
    4      C      -0.1017680000    -0.0389040000    -0.0906540000
    5      C       0.9617320000     0.8563960000     0.2908460000
    6      S      -0.2864680000    -0.1977040000    -1.8282540000
    7      C       1.0518320000     0.9324960000    -2.0772540000
    8      C       1.5928320000     1.3896960000    -0.8853540000
    9      F       2.6136320000     2.2525960000    -0.8418540000
   10      C       1.3962320000     1.2190960000    -3.4788540000
   11      O       0.8116320000     0.7180960000    -4.4292540000
   12      O       2.4260320000     2.0928960000    -3.5919540000
   13      C       2.8086320000     2.4070960000    -4.9389540000
   14      H       3.6475320000     3.1201960000    -4.8558540000
   15      H       1.9639320000     2.8641960000    -5.4929540000
   16      H       3.1269320000     1.4943960000    -5.4820540000
   17      C      -0.7950680000    -2.0549040000     0.9772460000
   18      H      -1.6271680000    -2.0629040000     0.2887460000
   19      H      -0.2548680000    -2.7328040000     0.3330460000
   20      H      -1.3943680000    -2.5860040000     1.7018460000
   21      H       1.8096320000     1.5680960000     2.2837460000
 ----------------------------------------------------------------

   11   -1389.2211206975      5.15e-07  Convergence criterion met
 Total energy in the final basis set =    -1389.2211206975
        RIMP2         total energy =     -1391.7360320895 a.u.

                    Orbital Energies (a.u.)
 --------------------------------------------------------------

 Alpha MOs
 -- Occupied --
-92.0011 -91.9993 -26.3430 -20.6141 -20.5601 -11.4085 -11.3824 -11.3159
-11.3020 -11.2948 -11.2886 -11.2809 -11.2681 -11.2165  -9.0009  -8.9992
 -6.6819  -6.6811  -6.6801  -6.6799  -6.6789  -6.6787  -1.6602  -1.4666
 -1.3692  -1.2189  -1.1392  -1.0681  -1.0208  -0.9920  -0.9595  -0.9102
 -0.8653  -0.8081  -0.7906  -0.7602  -0.7311  -0.7249  -0.6963  -0.6840
 -0.6734  -0.6615  -0.6119  -0.5981  -0.5927  -0.5754  -0.5624  -0.5578
 -0.5322  -0.5275  -0.5076  -0.4951  -0.4765  -0.4724  -0.4705  -0.4407
 -0.3796  -0.3448  -0.2908

          Ground-State Mulliken Net Atomic Charges

     Atom                 Charge (a.u.)
  ----------------------------------------
      1 C                    -0.080033
      2 S                     0.087759
      3 C                    -0.159582
      4 C                     0.035583
      5 C                    -0.106288
      6 S                     0.027624
      7 C                    -0.157227
      8 C                     0.391321
      9 F                    -0.206413
     10 C                     0.447724
     11 O                    -0.463761
     12 O                    -0.301364
     13 C                    -0.058356
     14 H                     0.121195
     15 H                     0.094909
     16 H                     0.094777
     17 C                    -0.392882
     18 H                     0.123728
     19 H                     0.150432
     20 H                     0.137913
     21 H                     0.212939
  ----------------------------------------
  Sum of atomic charges =     0.000000

                    Cartesian Multipole Moments
 -----------------------------------------------------------------
    Charge (ESU x 10^10)
                -0.0000
    Dipole Moment (Debye)
         X       1.9769      Y       0.6695      Z       2.4670
       Tot       3.2314
    Quadrupole Moments (Debye-Ang)
        XX     -90.3717     XY       6.7537     YY     -89.2615
        XZ      -5.8088     YZ      -5.1179     ZZ     -96.6774

 Total job time:  59.16s(wall), 2038.04s(cpu)
        *  Thank you very much for using Q-Chem.  Have a nice day.  *
