 Q-Chem 5.4, Q-Chem, Inc., Pleasanton, CA (2021)
 Q-Chem 5.4.0 for Intel X86 EM64T Linux

User input:
--------------------------------------------------------------
$molecule
0 1
C	0.000521	-0.991205	0.973560
S	0.001021	-0.086405	2.481060
C	0.000221	1.486095	1.692460
C	0.001321	-0.086805	-0.094340
C	-0.001079	1.303395	0.287160
S	0.004121	-0.330305	-1.831940
C	-0.001379	1.421295	-2.080940
C	-0.003879	2.129695	-0.889040
F	-0.008679	3.466295	-0.845540
C	0.000521	1.869395	-3.482540
O	0.008421	1.099495	-4.432940
O	-0.006979	3.219895	-3.595640
C	-0.001779	3.714995	-4.942640
H	-0.008779	4.815995	-4.859540
H	-0.894879	3.361695	-5.496640
H	0.902021	3.372095	-5.485740
C	0.000521	-2.426405	0.973560
H	-0.179679	-2.434405	2.038360
H	-0.827479	-3.104305	0.827860
H	0.927721	-2.957505	1.130260
H	-0.001179	2.410395	2.280060
$end

$rem
JOBTYPE		SP
EXCHANGE	HF
CORRELATION	pRIMP2
BASIS		cc-pvtz
METHOD		rimp2
AUX_BASIS	rimp2-cc-pvtz
SOLVENT_METHOD	PCM
PURECART	11111
SYMMETRY	false
MEM_TOTAL	110000
SCF_CONVERGENCE = 6
THRESH=10
GUI = 2
$end

$solvent
dielectric 4.90
$end
--------------------------------------------------------------

             Standard Nuclear Orientation (Angstroms)
    I     Atom           X                Y                Z
 ----------------------------------------------------------------
    1      C       0.0005210000    -0.9912050000     0.9735600000
    2      S       0.0010210000    -0.0864050000     2.4810600000
    3      C       0.0002210000     1.4860950000     1.6924600000
    4      C       0.0013210000    -0.0868050000    -0.0943400000
    5      C      -0.0010790000     1.3033950000     0.2871600000
    6      S       0.0041210000    -0.3303050000    -1.8319400000
    7      C      -0.0013790000     1.4212950000    -2.0809400000
    8      C      -0.0038790000     2.1296950000    -0.8890400000
    9      F      -0.0086790000     3.4662950000    -0.8455400000
   10      C       0.0005210000     1.8693950000    -3.4825400000
   11      O       0.0084210000     1.0994950000    -4.4329400000
   12      O      -0.0069790000     3.2198950000    -3.5956400000
   13      C      -0.0017790000     3.7149950000    -4.9426400000
   14      H      -0.0087790000     4.8159950000    -4.8595400000
   15      H      -0.8948790000     3.3616950000    -5.4966400000
   16      H       0.9020210000     3.3720950000    -5.4857400000
   17      C       0.0005210000    -2.4264050000     0.9735600000
   18      H      -0.1796790000    -2.4344050000     2.0383600000
   19      H      -0.8274790000    -3.1043050000     0.8278600000
   20      H       0.9277210000    -2.9575050000     1.1302600000
   21      H      -0.0011790000     2.4103950000     2.2800600000
 ----------------------------------------------------------------

   11   -1389.2701840478      4.82e-07  Convergence criterion met
 Total energy in the final basis set =    -1389.2701840478
        RIMP2         total energy =     -1391.7752543232 a.u.

                    Orbital Energies (a.u.)
 --------------------------------------------------------------

 Alpha MOs
 -- Occupied --
-92.0085 -91.9919 -26.3403 -20.6134 -20.5594 -11.4073 -11.3783 -11.2999
-11.2941 -11.2924 -11.2880 -11.2849 -11.2786 -11.2255  -9.0073  -8.9920
 -6.6881  -6.6875  -6.6870  -6.6731  -6.6723  -6.6712  -1.6576  -1.4657
 -1.3683  -1.2121  -1.1368  -1.0647  -1.0198  -0.9952  -0.9586  -0.9125
 -0.8638  -0.8066  -0.7883  -0.7579  -0.7313  -0.7225  -0.6912  -0.6831
 -0.6725  -0.6606  -0.6074  -0.6020  -0.5918  -0.5771  -0.5661  -0.5566
 -0.5401  -0.5298  -0.5075  -0.4796  -0.4734  -0.4711  -0.4660  -0.4606
 -0.3918  -0.3452  -0.2911

          Ground-State Mulliken Net Atomic Charges

     Atom                 Charge (a.u.)
  ----------------------------------------
      1 C                     0.033283
      2 S                     0.075840
      3 C                    -0.210522
      4 C                    -0.002630
      5 C                    -0.094542
      6 S                    -0.005048
      7 C                    -0.158028
      8 C                     0.391894
      9 F                    -0.208859
     10 C                     0.445040
     11 O                    -0.462435
     12 O                    -0.300776
     13 C                    -0.058689
     14 H                     0.121042
     15 H                     0.094752
     16 H                     0.094705
     17 C                    -0.370557
     18 H                     0.112085
     19 H                     0.153809
     20 H                     0.134842
     21 H                     0.214794
  ----------------------------------------
  Sum of atomic charges =     0.000000

                    Cartesian Multipole Moments
 -----------------------------------------------------------------
    Charge (ESU x 10^10)
                -0.0000
    Dipole Moment (Debye)
         X      -0.1087      Y       0.6727      Z       3.8396
       Tot       3.8996
    Quadrupole Moments (Debye-Ang)
        XX     -96.2491     XY       0.4185     YY     -81.3089
        XZ       0.0748     YZ     -11.4299     ZZ     -95.4682

 Total job time:  56.77s(wall), 1976.52s(cpu)
        *  Thank you very much for using Q-Chem.  Have a nice day.  *
