 Q-Chem 5.4, Q-Chem, Inc., Pleasanton, CA (2021)
 Q-Chem 5.4.0 for Intel X86 EM64T Linux

User input:
--------------------------------------------------------------
$molecule
0 1
C	-0.001930	-0.991205	0.976554
S	-0.001430	-0.086405	2.484054
C	-0.002230	1.486095	1.695454
C	-0.001130	-0.086805	-0.091346
C	-0.003530	1.303395	0.290154
S	0.001670	-0.330305	-1.828946
C	-0.003830	1.421295	-2.077946
C	-0.006330	2.129695	-0.886046
F	-0.011130	3.466295	-0.842546
C	-0.001930	1.869395	-3.479546
O	0.005970	1.099495	-4.429946
O	-0.009430	3.219895	-3.592646
C	-0.004230	3.714995	-4.939646
H	-0.011230	4.815995	-4.856546
H	-0.897330	3.361695	-5.493646
H	0.899570	3.372095	-5.482746
C	-0.001930	-2.426405	0.976554
H	1.060270	-2.434405	0.781654
H	0.144370	-3.104305	1.804454
H	-0.171730	-2.957505	0.051654
H	-0.003630	2.410395	2.283054
$end

$rem
JOBTYPE		SP
EXCHANGE	HF
CORRELATION	pRIMP2
BASIS		cc-pvtz
METHOD		rimp2
AUX_BASIS	rimp2-cc-pvtz
SOLVENT_METHOD	PCM
PURECART	11111
SYMMETRY	false
MEM_TOTAL	110000
SCF_CONVERGENCE = 6
THRESH=10
GUI = 2
$end

$solvent
dielectric 4.90
$end
--------------------------------------------------------------

             Standard Nuclear Orientation (Angstroms)
    I     Atom           X                Y                Z
 ----------------------------------------------------------------
    1      C      -0.0019300000    -0.9912050000     0.9765540000
    2      S      -0.0014300000    -0.0864050000     2.4840540000
    3      C      -0.0022300000     1.4860950000     1.6954540000
    4      C      -0.0011300000    -0.0868050000    -0.0913460000
    5      C      -0.0035300000     1.3033950000     0.2901540000
    6      S       0.0016700000    -0.3303050000    -1.8289460000
    7      C      -0.0038300000     1.4212950000    -2.0779460000
    8      C      -0.0063300000     2.1296950000    -0.8860460000
    9      F      -0.0111300000     3.4662950000    -0.8425460000
   10      C      -0.0019300000     1.8693950000    -3.4795460000
   11      O       0.0059700000     1.0994950000    -4.4299460000
   12      O      -0.0094300000     3.2198950000    -3.5926460000
   13      C      -0.0042300000     3.7149950000    -4.9396460000
   14      H      -0.0112300000     4.8159950000    -4.8565460000
   15      H      -0.8973300000     3.3616950000    -5.4936460000
   16      H       0.8995700000     3.3720950000    -5.4827460000
   17      C      -0.0019300000    -2.4264050000     0.9765540000
   18      H       1.0602700000    -2.4344050000     0.7816540000
   19      H       0.1443700000    -3.1043050000     1.8044540000
   20      H      -0.1717300000    -2.9575050000     0.0516540000
   21      H      -0.0036300000     2.4103950000     2.2830540000
 ----------------------------------------------------------------

   11   -1389.2733789235      5.20e-07  Convergence criterion met
 Total energy in the final basis set =    -1389.2733789235
        RIMP2         total energy =     -1391.7772742996 a.u.

                    Orbital Energies (a.u.)
 --------------------------------------------------------------

 Alpha MOs
 -- Occupied --
-92.0056 -91.9902 -26.3397 -20.6134 -20.5595 -11.4073 -11.3774 -11.3045
-11.2943 -11.2901 -11.2880 -11.2796 -11.2782 -11.2321  -9.0044  -8.9904
 -6.6853  -6.6847  -6.6841  -6.6715  -6.6708  -6.6696  -1.6570  -1.4657
 -1.3683  -1.2110  -1.1360  -1.0673  -1.0177  -0.9959  -0.9576  -0.9134
 -0.8626  -0.8038  -0.7878  -0.7583  -0.7304  -0.7219  -0.6920  -0.6831
 -0.6725  -0.6598  -0.6120  -0.5950  -0.5892  -0.5863  -0.5607  -0.5603
 -0.5321  -0.5276  -0.5136  -0.5003  -0.4722  -0.4712  -0.4696  -0.4605
 -0.3837  -0.3448  -0.2804

          Ground-State Mulliken Net Atomic Charges

     Atom                 Charge (a.u.)
  ----------------------------------------
      1 C                     0.055292
      2 S                     0.076910
      3 C                    -0.231185
      4 C                    -0.029850
      5 C                    -0.092087
      6 S                    -0.019112
      7 C                    -0.156306
      8 C                     0.387555
      9 F                    -0.209137
     10 C                     0.445539
     11 O                    -0.462154
     12 O                    -0.300604
     13 C                    -0.058715
     14 H                     0.121150
     15 H                     0.094786
     16 H                     0.094627
     17 C                    -0.393918
     18 H                     0.148016
     19 H                     0.167767
     20 H                     0.149509
     21 H                     0.211919
  ----------------------------------------
  Sum of atomic charges =     0.000000

                    Cartesian Multipole Moments
 -----------------------------------------------------------------
    Charge (ESU x 10^10)
                -0.0000
    Dipole Moment (Debye)
         X       0.7202      Y      -0.1306      Z       3.1874
       Tot       3.2703
    Quadrupole Moments (Debye-Ang)
        XX     -97.0098     XY      -1.8798     YY     -80.2127
        XZ       0.8971     YZ     -10.8171     ZZ     -96.7479

 Total job time:  59.33s(wall), 2094.98s(cpu)
        *  Thank you very much for using Q-Chem.  Have a nice day.  *
