 Q-Chem 5.4, Q-Chem, Inc., Pleasanton, CA (2021)
 Q-Chem 5.4.0 for Intel X86 EM64T Linux

User input:
--------------------------------------------------------------
$molecule
0 1
C	-0.267691	-0.955820	0.973964
S	-0.033091	-0.082020	2.481464
C	0.373209	1.437180	1.692864
C	-0.032891	-0.082420	-0.093936
C	0.324709	1.260980	0.287564
S	-0.093191	-0.318420	-1.831536
C	0.354909	1.374980	-2.080536
C	0.535809	2.059780	-0.888636
F	0.877109	3.352180	-0.845136
C	0.472609	1.807280	-3.482136
O	0.281109	1.061580	-4.432536
O	0.815009	3.113680	-3.595236
C	0.948109	3.590580	-4.942236
H	1.226409	4.655880	-4.859136
H	-0.005991	3.480480	-5.496236
H	1.732409	3.025480	-5.485336
C	-0.267691	-2.391020	0.973964
H	-0.956191	-2.399020	1.806064
H	-0.911891	-3.068920	0.433764
H	0.456909	-2.922120	1.573264
H	0.611009	2.330280	2.280464
$end

$rem
JOBTYPE		SP
EXCHANGE	HF
CORRELATION	pRIMP2
BASIS		cc-pvtz
METHOD		rimp2
AUX_BASIS	rimp2-cc-pvtz
SOLVENT_METHOD	PCM
PURECART	11111
SYMMETRY	false
MEM_TOTAL	110000
SCF_CONVERGENCE = 6
THRESH=10
GUI = 2
$end

$solvent
dielectric 4.90
$end
--------------------------------------------------------------

             Standard Nuclear Orientation (Angstroms)
    I     Atom           X                Y                Z
 ----------------------------------------------------------------
    1      C      -0.2676910000    -0.9558200000     0.9739640000
    2      S      -0.0330910000    -0.0820200000     2.4814640000
    3      C       0.3732090000     1.4371800000     1.6928640000
    4      C      -0.0328910000    -0.0824200000    -0.0939360000
    5      C       0.3247090000     1.2609800000     0.2875640000
    6      S      -0.0931910000    -0.3184200000    -1.8315360000
    7      C       0.3549090000     1.3749800000    -2.0805360000
    8      C       0.5358090000     2.0597800000    -0.8886360000
    9      F       0.8771090000     3.3521800000    -0.8451360000
   10      C       0.4726090000     1.8072800000    -3.4821360000
   11      O       0.2811090000     1.0615800000    -4.4325360000
   12      O       0.8150090000     3.1136800000    -3.5952360000
   13      C       0.9481090000     3.5905800000    -4.9422360000
   14      H       1.2264090000     4.6558800000    -4.8591360000
   15      H      -0.0059910000     3.4804800000    -5.4962360000
   16      H       1.7324090000     3.0254800000    -5.4853360000
   17      C      -0.2676910000    -2.3910200000     0.9739640000
   18      H      -0.9561910000    -2.3990200000     1.8060640000
   19      H      -0.9118910000    -3.0689200000     0.4337640000
   20      H       0.4569090000    -2.9221200000     1.5732640000
   21      H       0.6110090000     2.3302800000     2.2804640000
 ----------------------------------------------------------------

   11   -1389.2664298113      4.87e-07  Convergence criterion met
 Total energy in the final basis set =    -1389.2664298113
        RIMP2         total energy =     -1391.7718090879 a.u.

                    Orbital Energies (a.u.)
 --------------------------------------------------------------

 Alpha MOs
 -- Occupied --
-92.0075 -91.9914 -26.3401 -20.6133 -20.5594 -11.4072 -11.3780 -11.2990
-11.2941 -11.2938 -11.2880 -11.2837 -11.2784 -11.2260  -9.0063  -8.9915
 -6.6872  -6.6866  -6.6861  -6.6726  -6.6719  -6.6707  -1.6574  -1.4657
 -1.3683  -1.2120  -1.1368  -1.0649  -1.0193  -0.9951  -0.9583  -0.9127
 -0.8634  -0.8059  -0.7881  -0.7579  -0.7309  -0.7223  -0.6914  -0.6831
 -0.6725  -0.6602  -0.6105  -0.5978  -0.5908  -0.5794  -0.5646  -0.5570
 -0.5352  -0.5296  -0.5091  -0.4868  -0.4726  -0.4710  -0.4695  -0.4604
 -0.3875  -0.3453  -0.2869

          Ground-State Mulliken Net Atomic Charges

     Atom                 Charge (a.u.)
  ----------------------------------------
      1 C                    -0.000706
      2 S                     0.075101
      3 C                    -0.205282
      4 C                     0.010878
      5 C                    -0.100695
      6 S                    -0.006802
      7 C                    -0.158611
      8 C                     0.391709
      9 F                    -0.209126
     10 C                     0.445497
     11 O                    -0.462207
     12 O                    -0.300798
     13 C                    -0.058539
     14 H                     0.120997
     15 H                     0.094717
     16 H                     0.094686
     17 C                    -0.373582
     18 H                     0.122545
     19 H                     0.165511
     20 H                     0.140587
     21 H                     0.214121
  ----------------------------------------
  Sum of atomic charges =     0.000000

                    Cartesian Multipole Moments
 -----------------------------------------------------------------
    Charge (ESU x 10^10)
                -0.0000
    Dipole Moment (Debye)
         X       0.1374      Y       0.4717      Z       3.7251
       Tot       3.7574
    Quadrupole Moments (Debye-Ang)
        XX     -95.6363     XY       4.1301     YY     -81.8854
        XZ      -2.3103     YZ     -10.9044     ZZ     -95.5733

 Total job time:  84.85s(wall), 2005.22s(cpu)
        *  Thank you very much for using Q-Chem.  Have a nice day.  *
