 Q-Chem 5.4, Q-Chem, Inc., Pleasanton, CA (2021)
 Q-Chem 5.4.0 for Intel X86 EM64T Linux

User input:
--------------------------------------------------------------
$molecule
0 1
C	-0.179359	-0.975447	0.978043
S	-0.021759	-0.084547	2.485543
C	0.250541	1.464253	1.696943
C	-0.021559	-0.084847	-0.089857
C	0.217541	1.284553	0.291643
S	-0.061059	-0.325247	-1.827457
C	0.237641	1.400753	-2.076457
C	0.358241	2.098753	-0.884557
F	0.585641	3.415953	-0.841057
C	0.317341	1.841653	-3.478057
O	0.191541	1.082153	-4.428457
O	0.544541	3.172953	-3.591157
C	0.635641	3.659653	-4.938157
H	0.819941	4.745153	-4.855057
H	-0.305259	3.466753	-5.492157
H	1.466141	3.165053	-5.481257
C	-0.179359	-2.410647	0.978043
H	-0.555759	-2.418647	-0.034257
H	0.610541	-3.088547	0.690243
H	-1.060759	-2.941747	1.305943
H	0.409641	2.374753	2.284543
$end

$rem
JOBTYPE		SP
EXCHANGE	HF
CORRELATION	pRIMP2
BASIS		cc-pvtz
METHOD		rimp2
AUX_BASIS	rimp2-cc-pvtz
SOLVENT_METHOD	PCM
PURECART	11111
SYMMETRY	false
MEM_TOTAL	110000
SCF_CONVERGENCE = 6
THRESH=10
GUI = 2
$end

$solvent
dielectric 4.90
$end
--------------------------------------------------------------

             Standard Nuclear Orientation (Angstroms)
    I     Atom           X                Y                Z
 ----------------------------------------------------------------
    1      C      -0.1793590000    -0.9754470000     0.9780430000
    2      S      -0.0217590000    -0.0845470000     2.4855430000
    3      C       0.2505410000     1.4642530000     1.6969430000
    4      C      -0.0215590000    -0.0848470000    -0.0898570000
    5      C       0.2175410000     1.2845530000     0.2916430000
    6      S      -0.0610590000    -0.3252470000    -1.8274570000
    7      C       0.2376410000     1.4007530000    -2.0764570000
    8      C       0.3582410000     2.0987530000    -0.8845570000
    9      F       0.5856410000     3.4159530000    -0.8410570000
   10      C       0.3173410000     1.8416530000    -3.4780570000
   11      O       0.1915410000     1.0821530000    -4.4284570000
   12      O       0.5445410000     3.1729530000    -3.5911570000
   13      C       0.6356410000     3.6596530000    -4.9381570000
   14      H       0.8199410000     4.7451530000    -4.8550570000
   15      H      -0.3052590000     3.4667530000    -5.4921570000
   16      H       1.4661410000     3.1650530000    -5.4812570000
   17      C      -0.1793590000    -2.4106470000     0.9780430000
   18      H      -0.5557590000    -2.4186470000    -0.0342570000
   19      H       0.6105410000    -3.0885470000     0.6902430000
   20      H      -1.0607590000    -2.9417470000     1.3059430000
   21      H       0.4096410000     2.3747530000     2.2845430000
 ----------------------------------------------------------------

   11   -1389.2714764881      4.60e-07  Convergence criterion met
 Total energy in the final basis set =    -1389.2714764881
        RIMP2         total energy =     -1391.7776247337 a.u.

                    Orbital Energies (a.u.)
 --------------------------------------------------------------

 Alpha MOs
 -- Occupied --
-92.0029 -91.9939 -26.3413 -20.6137 -20.5598 -11.4078 -11.3798 -11.3002
-11.2946 -11.2938 -11.2898 -11.2882 -11.2789 -11.2264  -9.0021  -8.9941
 -6.6828  -6.6822  -6.6818  -6.6751  -6.6744  -6.6733  -1.6584  -1.4661
 -1.3687  -1.2135  -1.1353  -1.0678  -1.0188  -0.9951  -0.9583  -0.9143
 -0.8635  -0.8053  -0.7890  -0.7593  -0.7301  -0.7232  -0.6945  -0.6835
 -0.6729  -0.6612  -0.6098  -0.6010  -0.5915  -0.5819  -0.5659  -0.5558
 -0.5400  -0.5301  -0.5071  -0.4879  -0.4735  -0.4717  -0.4656  -0.4528
 -0.3916  -0.3449  -0.2914

          Ground-State Mulliken Net Atomic Charges

     Atom                 Charge (a.u.)
  ----------------------------------------
      1 C                     0.039146
      2 S                     0.074187
      3 C                    -0.202802
      4 C                    -0.020293
      5 C                    -0.095824
      6 S                    -0.007658
      7 C                    -0.157840
      8 C                     0.389503
      9 F                    -0.207683
     10 C                     0.445265
     11 O                    -0.462840
     12 O                    -0.300985
     13 C                    -0.058628
     14 H                     0.121148
     15 H                     0.094776
     16 H                     0.094733
     17 C                    -0.364301
     18 H                     0.112721
     19 H                     0.148860
     20 H                     0.145592
     21 H                     0.212923
  ----------------------------------------
  Sum of atomic charges =     0.000000

                    Cartesian Multipole Moments
 -----------------------------------------------------------------
    Charge (ESU x 10^10)
                -0.0000
    Dipole Moment (Debye)
         X       0.1487      Y       0.6031      Z       2.5994
       Tot       2.6726
    Quadrupole Moments (Debye-Ang)
        XX     -95.8989     XY       2.5567     YY     -81.4408
        XZ      -1.7686     YZ      -8.3387     ZZ     -97.9923

 Total job time:  252.03s(wall), 2120.18s(cpu)
        *  Thank you very much for using Q-Chem.  Have a nice day.  *
