 Q-Chem 5.4, Q-Chem, Inc., Pleasanton, CA (2021)
 Q-Chem 5.4.0 for Intel X86 EM64T Linux

User input:
--------------------------------------------------------------
$molecule
0 1
C	-0.270353	-0.955820	0.977865
S	-0.035753	-0.082020	2.485365
C	0.370547	1.437180	1.696765
C	-0.035553	-0.082420	-0.090035
C	0.322047	1.260980	0.291465
S	-0.095853	-0.318420	-1.827635
C	0.352247	1.374980	-2.076635
C	0.533147	2.059780	-0.884735
F	0.874447	3.352180	-0.841235
C	0.469947	1.807280	-3.478235
O	0.278447	1.061580	-4.428635
O	0.812347	3.113680	-3.591335
C	0.945447	3.590580	-4.938335
H	1.223747	4.655880	-4.855235
H	-0.008653	3.480480	-5.492335
H	1.729747	3.025480	-5.481435
C	-0.270353	-2.391020	0.977865
H	0.418147	-2.399020	0.145765
H	0.373847	-3.068920	1.518065
H	-0.994953	-2.922120	0.378565
H	0.608347	2.330280	2.284365
$end

$rem
JOBTYPE		SP
EXCHANGE	HF
CORRELATION	pRIMP2
BASIS		cc-pvtz
METHOD		rimp2
AUX_BASIS	rimp2-cc-pvtz
SOLVENT_METHOD	PCM
PURECART	11111
SYMMETRY	false
MEM_TOTAL	110000
SCF_CONVERGENCE = 6
THRESH=10
GUI = 2
$end

$solvent
dielectric 4.90
$end
--------------------------------------------------------------

             Standard Nuclear Orientation (Angstroms)
    I     Atom           X                Y                Z
 ----------------------------------------------------------------
    1      C      -0.2703530000    -0.9558200000     0.9778650000
    2      S      -0.0357530000    -0.0820200000     2.4853650000
    3      C       0.3705470000     1.4371800000     1.6967650000
    4      C      -0.0355530000    -0.0824200000    -0.0900350000
    5      C       0.3220470000     1.2609800000     0.2914650000
    6      S      -0.0958530000    -0.3184200000    -1.8276350000
    7      C       0.3522470000     1.3749800000    -2.0766350000
    8      C       0.5331470000     2.0597800000    -0.8847350000
    9      F       0.8744470000     3.3521800000    -0.8412350000
   10      C       0.4699470000     1.8072800000    -3.4782350000
   11      O       0.2784470000     1.0615800000    -4.4286350000
   12      O       0.8123470000     3.1136800000    -3.5913350000
   13      C       0.9454470000     3.5905800000    -4.9383350000
   14      H       1.2237470000     4.6558800000    -4.8552350000
   15      H      -0.0086530000     3.4804800000    -5.4923350000
   16      H       1.7297470000     3.0254800000    -5.4814350000
   17      C      -0.2703530000    -2.3910200000     0.9778650000
   18      H       0.4181470000    -2.3990200000     0.1457650000
   19      H       0.3738470000    -3.0689200000     1.5180650000
   20      H      -0.9949530000    -2.9221200000     0.3785650000
   21      H       0.6083470000     2.3302800000     2.2843650000
 ----------------------------------------------------------------

   11   -1389.2680380420      4.83e-07  Convergence criterion met
 Total energy in the final basis set =    -1389.2680380420
        RIMP2         total energy =     -1391.7747548915 a.u.

                    Orbital Energies (a.u.)
 --------------------------------------------------------------

 Alpha MOs
 -- Occupied --
-92.0051 -91.9936 -26.3409 -20.6137 -20.5597 -11.4077 -11.3793 -11.2973
-11.2964 -11.2946 -11.2882 -11.2855 -11.2790 -11.2272  -9.0039  -8.9937
 -6.6847  -6.6841  -6.6837  -6.6748  -6.6741  -6.6729  -1.6581  -1.4660
 -1.3687  -1.2131  -1.1361  -1.0679  -1.0185  -0.9948  -0.9582  -0.9131
 -0.8633  -0.8048  -0.7888  -0.7591  -0.7300  -0.7229  -0.6937  -0.6834
 -0.6728  -0.6607  -0.6092  -0.5993  -0.5910  -0.5863  -0.5648  -0.5585
 -0.5342  -0.5299  -0.5075  -0.4904  -0.4731  -0.4716  -0.4639  -0.4625
 -0.3865  -0.3441  -0.2881

          Ground-State Mulliken Net Atomic Charges

     Atom                 Charge (a.u.)
  ----------------------------------------
      1 C                     0.036669
      2 S                     0.077287
      3 C                    -0.214135
      4 C                    -0.018876
      5 C                    -0.092109
      6 S                    -0.007939
      7 C                    -0.156554
      8 C                     0.387454
      9 F                    -0.207921
     10 C                     0.446400
     11 O                    -0.462589
     12 O                    -0.300889
     13 C                    -0.058471
     14 H                     0.121127
     15 H                     0.094795
     16 H                     0.094644
     17 C                    -0.384794
     18 H                     0.126164
     19 H                     0.164172
     20 H                     0.143535
     21 H                     0.212030
  ----------------------------------------
  Sum of atomic charges =     0.000000

                    Cartesian Multipole Moments
 -----------------------------------------------------------------
    Charge (ESU x 10^10)
                -0.0000
    Dipole Moment (Debye)
         X       0.9615      Y       0.3516      Z       2.7251
       Tot       2.9110
    Quadrupole Moments (Debye-Ang)
        XX     -96.0943     XY       1.6623     YY     -81.8162
        XZ      -1.2945     YZ      -8.8880     ZZ     -97.5291

 Total job time:  56.17s(wall), 1970.33s(cpu)
        *  Thank you very much for using Q-Chem.  Have a nice day.  *
