 Q-Chem 5.4, Q-Chem, Inc., Pleasanton, CA (2021)
 Q-Chem 5.4.0 for Intel X86 EM64T Linux

User input:
--------------------------------------------------------------
$molecule
0 1
C	-0.353666	-0.928548	0.977246
S	-0.043766	-0.078548	2.484746
C	0.493334	1.399452	1.696146
C	-0.043666	-0.078948	-0.090654
C	0.429634	1.228152	0.290846
S	-0.124266	-0.308748	-1.828254
C	0.469634	1.339152	-2.077254
C	0.709634	2.005552	-0.885354
F	1.162234	3.263252	-0.841854
C	0.624634	1.759552	-3.478854
O	0.368834	1.033352	-4.429254
O	1.079534	3.031152	-3.591954
C	1.253834	3.494552	-4.938954
H	1.623834	4.531652	-4.855854
H	0.293734	3.468052	-5.492954
H	1.985834	2.863252	-5.482054
C	-0.353666	-2.363748	0.977246
H	-1.185766	-2.371748	0.288746
H	0.186534	-3.041648	0.333046
H	-0.952966	-2.894848	1.701846
H	0.808134	2.268452	2.283746
$end

$rem
JOBTYPE		SP
EXCHANGE	HF
CORRELATION	pRIMP2
BASIS		cc-pvtz
METHOD		rimp2
AUX_BASIS	rimp2-cc-pvtz
SOLVENT_METHOD	PCM
PURECART	11111
SYMMETRY	false
MEM_TOTAL	110000
SCF_CONVERGENCE = 6
THRESH=10
GUI = 2
$end

$solvent
dielectric 4.90
$end
--------------------------------------------------------------

             Standard Nuclear Orientation (Angstroms)
    I     Atom           X                Y                Z
 ----------------------------------------------------------------
    1      C      -0.3536660000    -0.9285480000     0.9772460000
    2      S      -0.0437660000    -0.0785480000     2.4847460000
    3      C       0.4933340000     1.3994520000     1.6961460000
    4      C      -0.0436660000    -0.0789480000    -0.0906540000
    5      C       0.4296340000     1.2281520000     0.2908460000
    6      S      -0.1242660000    -0.3087480000    -1.8282540000
    7      C       0.4696340000     1.3391520000    -2.0772540000
    8      C       0.7096340000     2.0055520000    -0.8853540000
    9      F       1.1622340000     3.2632520000    -0.8418540000
   10      C       0.6246340000     1.7595520000    -3.4788540000
   11      O       0.3688340000     1.0333520000    -4.4292540000
   12      O       1.0795340000     3.0311520000    -3.5919540000
   13      C       1.2538340000     3.4945520000    -4.9389540000
   14      H       1.6238340000     4.5316520000    -4.8558540000
   15      H       0.2937340000     3.4680520000    -5.4929540000
   16      H       1.9858340000     2.8632520000    -5.4820540000
   17      C      -0.3536660000    -2.3637480000     0.9772460000
   18      H      -1.1857660000    -2.3717480000     0.2887460000
   19      H       0.1865340000    -3.0416480000     0.3330460000
   20      H      -0.9529660000    -2.8948480000     1.7018460000
   21      H       0.8081340000     2.2684520000     2.2837460000
 ----------------------------------------------------------------

   11   -1389.2643970533      4.76e-07  Convergence criterion met
 Total energy in the final basis set =    -1389.2643970533
        RIMP2         total energy =     -1391.7716766062 a.u.

                    Orbital Energies (a.u.)
 --------------------------------------------------------------

 Alpha MOs
 -- Occupied --
-92.0037 -91.9936 -26.3409 -20.6136 -20.5596 -11.4076 -11.3791 -11.2981
-11.2945 -11.2941 -11.2882 -11.2870 -11.2790 -11.2262  -9.0028  -8.9936
 -6.6835  -6.6829  -6.6824  -6.6747  -6.6740  -6.6729  -1.6580  -1.4660
 -1.3686  -1.2129  -1.1357  -1.0668  -1.0185  -0.9950  -0.9581  -0.9136
 -0.8633  -0.8050  -0.7887  -0.7589  -0.7299  -0.7229  -0.6937  -0.6833
 -0.6728  -0.6606  -0.6117  -0.5963  -0.5905  -0.5803  -0.5636  -0.5573
 -0.5374  -0.5296  -0.5074  -0.4937  -0.4738  -0.4715  -0.4692  -0.4553
 -0.3852  -0.3447  -0.2863

          Ground-State Mulliken Net Atomic Charges

     Atom                 Charge (a.u.)
  ----------------------------------------
      1 C                     0.030581
      2 S                     0.080046
      3 C                    -0.209439
      4 C                    -0.038882
      5 C                    -0.085693
      6 S                    -0.004476
      7 C                    -0.155474
      8 C                     0.386030
      9 F                    -0.207987
     10 C                     0.445866
     11 O                    -0.462566
     12 O                    -0.300915
     13 C                    -0.058424
     14 H                     0.121074
     15 H                     0.094741
     16 H                     0.094717
     17 C                    -0.377768
     18 H                     0.130083
     19 H                     0.160883
     20 H                     0.145783
     21 H                     0.211818
  ----------------------------------------
  Sum of atomic charges =     0.000000

                    Cartesian Multipole Moments
 -----------------------------------------------------------------
    Charge (ESU x 10^10)
                -0.0000
    Dipole Moment (Debye)
         X       0.2006      Y       0.3746      Z       2.7715
       Tot       2.8039
    Quadrupole Moments (Debye-Ang)
        XX     -95.1033     XY       5.1041     YY     -82.4490
        XZ      -3.6165     YZ      -8.5852     ZZ     -97.3310

 Total job time:  56.43s(wall), 1968.72s(cpu)
        *  Thank you very much for using Q-Chem.  Have a nice day.  *
