 Q-Chem 5.4, Q-Chem, Inc., Pleasanton, CA (2021)
 Q-Chem 5.4.0 for Intel X86 EM64T Linux

User input:
--------------------------------------------------------------
$molecule
0 1
C	-0.090937	-0.987267	0.978203
S	-0.011637	-0.085967	2.485703
C	0.124663	1.480633	1.697103
C	-0.011337	-0.086367	-0.089697
C	0.107463	1.298733	0.291803
S	-0.029737	-0.329267	-1.827297
C	0.117363	1.416233	-2.076297
C	0.176663	2.122133	-0.884397
F	0.288363	3.454033	-0.840897
C	0.158363	1.862433	-3.477897
O	0.099163	1.094833	-4.428297
O	0.268563	3.208433	-3.590997
C	0.316963	3.701233	-4.937997
H	0.405963	4.798633	-4.854897
H	-0.603537	3.427033	-5.491997
H	1.187463	3.280833	-5.481097
C	-0.090937	-2.422467	0.978203
H	0.271463	-2.430467	-0.039197
H	0.699163	-3.100367	1.265503
H	-0.976837	-2.953567	0.662803
H	0.203863	2.401533	2.284703
$end

$rem
JOBTYPE		SP
EXCHANGE	HF
CORRELATION	pRIMP2
BASIS		cc-pvtz
METHOD		rimp2
AUX_BASIS	rimp2-cc-pvtz
SOLVENT_METHOD	PCM
PURECART	11111
SYMMETRY	false
MEM_TOTAL	110000
SCF_CONVERGENCE = 6
THRESH=10
GUI = 2
$end

$solvent
dielectric 4.90
$end
--------------------------------------------------------------

             Standard Nuclear Orientation (Angstroms)
    I     Atom           X                Y                Z
 ----------------------------------------------------------------
    1      C      -0.0909370000    -0.9872670000     0.9782030000
    2      S      -0.0116370000    -0.0859670000     2.4857030000
    3      C       0.1246630000     1.4806330000     1.6971030000
    4      C      -0.0113370000    -0.0863670000    -0.0896970000
    5      C       0.1074630000     1.2987330000     0.2918030000
    6      S      -0.0297370000    -0.3292670000    -1.8272970000
    7      C       0.1173630000     1.4162330000    -2.0762970000
    8      C       0.1766630000     2.1221330000    -0.8843970000
    9      F       0.2883630000     3.4540330000    -0.8408970000
   10      C       0.1583630000     1.8624330000    -3.4778970000
   11      O       0.0991630000     1.0948330000    -4.4282970000
   12      O       0.2685630000     3.2084330000    -3.5909970000
   13      C       0.3169630000     3.7012330000    -4.9379970000
   14      H       0.4059630000     4.7986330000    -4.8548970000
   15      H      -0.6035370000     3.4270330000    -5.4919970000
   16      H       1.1874630000     3.2808330000    -5.4810970000
   17      C      -0.0909370000    -2.4224670000     0.9782030000
   18      H       0.2714630000    -2.4304670000    -0.0391970000
   19      H       0.6991630000    -3.1003670000     1.2655030000
   20      H      -0.9768370000    -2.9535670000     0.6628030000
   21      H       0.2038630000     2.4015330000     2.2847030000
 ----------------------------------------------------------------

   11   -1389.2725297783      4.63e-07  Convergence criterion met
 Total energy in the final basis set =    -1389.2725297783
        RIMP2         total energy =     -1391.7784671941 a.u.

                    Orbital Energies (a.u.)
 --------------------------------------------------------------

 Alpha MOs
 -- Occupied --
-92.0034 -91.9937 -26.3412 -20.6137 -20.5597 -11.4077 -11.3797 -11.2989
-11.2955 -11.2946 -11.2889 -11.2882 -11.2789 -11.2269  -9.0024  -8.9939
 -6.6832  -6.6826  -6.6822  -6.6749  -6.6742  -6.6731  -1.6584  -1.4661
 -1.3687  -1.2134  -1.1353  -1.0681  -1.0187  -0.9951  -0.9582  -0.9142
 -0.8634  -0.8051  -0.7890  -0.7593  -0.7301  -0.7232  -0.6943  -0.6835
 -0.6729  -0.6611  -0.6078  -0.6034  -0.5916  -0.5834  -0.5663  -0.5564
 -0.5388  -0.5301  -0.5071  -0.4877  -0.4733  -0.4717  -0.4643  -0.4550
 -0.3912  -0.3447  -0.2913

          Ground-State Mulliken Net Atomic Charges

     Atom                 Charge (a.u.)
  ----------------------------------------
      1 C                     0.044216
      2 S                     0.073361
      3 C                    -0.203993
      4 C                    -0.012359
      5 C                    -0.101252
      6 S                    -0.009684
      7 C                    -0.158259
      8 C                     0.389906
      9 F                    -0.207709
     10 C                     0.444973
     11 O                    -0.462907
     12 O                    -0.300925
     13 C                    -0.058682
     14 H                     0.121188
     15 H                     0.094821
     16 H                     0.094692
     17 C                    -0.372166
     18 H                     0.115966
     19 H                     0.158414
     20 H                     0.137761
     21 H                     0.212639
  ----------------------------------------
  Sum of atomic charges =     0.000000

                    Cartesian Multipole Moments
 -----------------------------------------------------------------
    Charge (ESU x 10^10)
                -0.0000
    Dipole Moment (Debye)
         X       0.3975      Y       0.5500      Z       2.6110
       Tot       2.6977
    Quadrupole Moments (Debye-Ang)
        XX     -96.2579     XY       0.2976     YY     -81.0872
        XZ      -0.1938     YZ      -8.6156     ZZ     -98.0125

 Total job time:  54.10s(wall), 1946.56s(cpu)
        *  Thank you very much for using Q-Chem.  Have a nice day.  *
