 Q-Chem 5.4, Q-Chem, Inc., Pleasanton, CA (2021)
 Q-Chem 5.4.0 for Intel X86 EM64T Linux

User input:
--------------------------------------------------------------
$molecule
0 1
C	-0.440850	-0.893839	0.977865
S	-0.058050	-0.074039	2.485365
C	0.605850	1.351461	1.696765
C	-0.057950	-0.074439	-0.090035
C	0.527450	1.186461	0.291465
S	-0.158250	-0.296439	-1.827635
C	0.576950	1.293461	-2.076635
C	0.874150	1.936461	-0.884735
F	1.434650	3.149961	-0.841235
C	0.768050	1.698761	-3.478235
O	0.449950	0.997661	-4.428635
O	1.332050	2.925861	-3.591335
C	1.546050	3.372361	-4.938335
H	2.004950	4.373161	-4.855235
H	0.587250	3.429561	-5.492335
H	2.220250	2.679661	-5.481435
C	-0.440850	-2.329039	0.977865
H	0.247650	-2.337039	0.145765
H	0.203350	-3.006939	1.518065
H	-1.165450	-2.860139	0.378565
H	0.995150	2.189761	2.284365
$end

$rem
JOBTYPE		SP
EXCHANGE	HF
CORRELATION	pRIMP2
BASIS		cc-pvtz
METHOD		rimp2
AUX_BASIS	rimp2-cc-pvtz
SOLVENT_METHOD	PCM
PURECART	11111
SYMMETRY	false
MEM_TOTAL	110000
SCF_CONVERGENCE = 6
THRESH=10
GUI = 2
$end

$solvent
dielectric 4.90
$end
--------------------------------------------------------------

             Standard Nuclear Orientation (Angstroms)
    I     Atom           X                Y                Z
 ----------------------------------------------------------------
    1      C      -0.4408500000    -0.8938390000     0.9778650000
    2      S      -0.0580500000    -0.0740390000     2.4853650000
    3      C       0.6058500000     1.3514610000     1.6967650000
    4      C      -0.0579500000    -0.0744390000    -0.0900350000
    5      C       0.5274500000     1.1864610000     0.2914650000
    6      S      -0.1582500000    -0.2964390000    -1.8276350000
    7      C       0.5769500000     1.2934610000    -2.0766350000
    8      C       0.8741500000     1.9364610000    -0.8847350000
    9      F       1.4346500000     3.1499610000    -0.8412350000
   10      C       0.7680500000     1.6987610000    -3.4782350000
   11      O       0.4499500000     0.9976610000    -4.4286350000
   12      O       1.3320500000     2.9258610000    -3.5913350000
   13      C       1.5460500000     3.3723610000    -4.9383350000
   14      H       2.0049500000     4.3731610000    -4.8552350000
   15      H       0.5872500000     3.4295610000    -5.4923350000
   16      H       2.2202500000     2.6796610000    -5.4814350000
   17      C      -0.4408500000    -2.3290390000     0.9778650000
   18      H       0.2476500000    -2.3370390000     0.1457650000
   19      H       0.2033500000    -3.0069390000     1.5180650000
   20      H      -1.1654500000    -2.8601390000     0.3785650000
   21      H       0.9951500000     2.1897610000     2.2843650000
 ----------------------------------------------------------------

   11   -1389.2589921697      4.82e-07  Convergence criterion met
 Total energy in the final basis set =    -1389.2589921697
        RIMP2         total energy =     -1391.7678079222 a.u.

                    Orbital Energies (a.u.)
 --------------------------------------------------------------

 Alpha MOs
 -- Occupied --
-92.0053 -91.9949 -26.3413 -20.6138 -20.5598 -11.4078 -11.3798 -11.2988
-11.2947 -11.2937 -11.2883 -11.2868 -11.2792 -11.2251  -9.0042  -8.9950
 -6.6850  -6.6843  -6.6839  -6.6760  -6.6753  -6.6742  -1.6585  -1.4661
 -1.3687  -1.2142  -1.1370  -1.0681  -1.0189  -0.9939  -0.9584  -0.9121
 -0.8637  -0.8053  -0.7892  -0.7593  -0.7300  -0.7233  -0.6942  -0.6835
 -0.6729  -0.6607  -0.6087  -0.5992  -0.5914  -0.5869  -0.5644  -0.5594
 -0.5312  -0.5296  -0.5080  -0.4899  -0.4732  -0.4717  -0.4647  -0.4614
 -0.3854  -0.3437  -0.2889

          Ground-State Mulliken Net Atomic Charges

     Atom                 Charge (a.u.)
  ----------------------------------------
      1 C                     0.015486
      2 S                     0.081808
      3 C                    -0.210349
      4 C                    -0.019474
      5 C                    -0.086686
      6 S                    -0.001455
      7 C                    -0.156309
      8 C                     0.387295
      9 F                    -0.207556
     10 C                     0.447091
     11 O                    -0.462712
     12 O                    -0.301049
     13 C                    -0.058473
     14 H                     0.121170
     15 H                     0.094841
     16 H                     0.094668
     17 C                    -0.383647
     18 H                     0.127746
     19 H                     0.165023
     20 H                     0.140589
     21 H                     0.211994
  ----------------------------------------
  Sum of atomic charges =     0.000000

                    Cartesian Multipole Moments
 -----------------------------------------------------------------
    Charge (ESU x 10^10)
                -0.0000
    Dipole Moment (Debye)
         X       1.3658      Y       0.4213      Z       2.6910
       Tot       3.0471
    Quadrupole Moments (Debye-Ang)
        XX     -95.1265     XY       3.2140     YY     -83.4830
        XZ      -2.5549     YZ      -8.1797     ZZ     -97.3390

 Total job time:  61.10s(wall), 1985.35s(cpu)
        *  Thank you very much for using Q-Chem.  Have a nice day.  *
