 Q-Chem 5.4, Q-Chem, Inc., Pleasanton, CA (2021)
 Q-Chem 5.4.0 for Intel X86 EM64T Linux

User input:
--------------------------------------------------------------
$molecule
0 1
C	-0.356641	-0.928548	0.973787
S	-0.046741	-0.078548	2.481287
C	0.490359	1.399452	1.692687
C	-0.046641	-0.078948	-0.094113
C	0.426659	1.228152	0.287387
S	-0.127241	-0.308748	-1.831713
C	0.466659	1.339152	-2.080713
C	0.706659	2.005552	-0.888813
F	1.159259	3.263252	-0.845313
C	0.621659	1.759552	-3.482313
O	0.365859	1.033352	-4.432713
O	1.076559	3.031152	-3.595413
C	1.250859	3.494552	-4.942413
H	1.620859	4.531652	-4.859313
H	0.290759	3.468052	-5.496413
H	1.982859	2.863252	-5.485513
C	-0.356641	-2.363748	0.973787
H	0.019759	-2.371748	1.986087
H	-1.146541	-3.041648	1.261587
H	0.524759	-2.894848	0.645887
H	0.805159	2.268452	2.280287
$end

$rem
JOBTYPE		SP
EXCHANGE	HF
CORRELATION	pRIMP2
BASIS		cc-pvtz
METHOD		rimp2
AUX_BASIS	rimp2-cc-pvtz
SOLVENT_METHOD	PCM
PURECART	11111
SYMMETRY	false
MEM_TOTAL	110000
SCF_CONVERGENCE = 6
THRESH=10
GUI = 2
$end

$solvent
dielectric 4.90
$end
--------------------------------------------------------------

             Standard Nuclear Orientation (Angstroms)
    I     Atom           X                Y                Z
 ----------------------------------------------------------------
    1      C      -0.3566410000    -0.9285480000     0.9737870000
    2      S      -0.0467410000    -0.0785480000     2.4812870000
    3      C       0.4903590000     1.3994520000     1.6926870000
    4      C      -0.0466410000    -0.0789480000    -0.0941130000
    5      C       0.4266590000     1.2281520000     0.2873870000
    6      S      -0.1272410000    -0.3087480000    -1.8317130000
    7      C       0.4666590000     1.3391520000    -2.0807130000
    8      C       0.7066590000     2.0055520000    -0.8888130000
    9      F       1.1592590000     3.2632520000    -0.8453130000
   10      C       0.6216590000     1.7595520000    -3.4823130000
   11      O       0.3658590000     1.0333520000    -4.4327130000
   12      O       1.0765590000     3.0311520000    -3.5954130000
   13      C       1.2508590000     3.4945520000    -4.9424130000
   14      H       1.6208590000     4.5316520000    -4.8593130000
   15      H       0.2907590000     3.4680520000    -5.4964130000
   16      H       1.9828590000     2.8632520000    -5.4855130000
   17      C      -0.3566410000    -2.3637480000     0.9737870000
   18      H       0.0197590000    -2.3717480000     1.9860870000
   19      H      -1.1465410000    -3.0416480000     1.2615870000
   20      H       0.5247590000    -2.8948480000     0.6458870000
   21      H       0.8051590000     2.2684520000     2.2802870000
 ----------------------------------------------------------------

   11   -1389.2624560439      4.91e-07  Convergence criterion met
 Total energy in the final basis set =    -1389.2624560439
        RIMP2         total energy =     -1391.7688435407 a.u.

                    Orbital Energies (a.u.)
 --------------------------------------------------------------

 Alpha MOs
 -- Occupied --
-92.0064 -91.9926 -26.3407 -20.6134 -20.5594 -11.4073 -11.3788 -11.3020
-11.2940 -11.2904 -11.2880 -11.2870 -11.2786 -11.2242  -9.0056  -8.9927
 -6.6863  -6.6857  -6.6852  -6.6738  -6.6731  -6.6719  -1.6579  -1.4657
 -1.3683  -1.2132  -1.1377  -1.0651  -1.0200  -0.9942  -0.9588  -0.9114
 -0.8640  -0.8071  -0.7886  -0.7580  -0.7315  -0.7228  -0.6917  -0.6831
 -0.6726  -0.6605  -0.6075  -0.6029  -0.5922  -0.5752  -0.5656  -0.5566
 -0.5388  -0.5298  -0.5081  -0.4830  -0.4743  -0.4712  -0.4694  -0.4540
 -0.3906  -0.3451  -0.2905

          Ground-State Mulliken Net Atomic Charges

     Atom                 Charge (a.u.)
  ----------------------------------------
      1 C                     0.029291
      2 S                     0.075739
      3 C                    -0.205855
      4 C                    -0.029542
      5 C                    -0.081266
      6 S                     0.000499
      7 C                    -0.156447
      8 C                     0.388108
      9 F                    -0.208348
     10 C                     0.446009
     11 O                    -0.462391
     12 O                    -0.301024
     13 C                    -0.058444
     14 H                     0.120946
     15 H                     0.094781
     16 H                     0.094667
     17 C                    -0.371075
     18 H                     0.118071
     19 H                     0.148113
     20 H                     0.143771
     21 H                     0.214396
  ----------------------------------------
  Sum of atomic charges =     0.000000

                    Cartesian Multipole Moments
 -----------------------------------------------------------------
    Charge (ESU x 10^10)
                -0.0000
    Dipole Moment (Debye)
         X       1.0619      Y       0.6486      Z       3.7831
       Tot       3.9825
    Quadrupole Moments (Debye-Ang)
        XX     -95.3243     XY       3.0980     YY     -82.9084
        XZ      -2.9193     YZ     -10.7479     ZZ     -95.4138

 Total job time:  56.69s(wall), 1895.67s(cpu)
        *  Thank you very much for using Q-Chem.  Have a nice day.  *
