 Q-Chem 5.4, Q-Chem, Inc., Pleasanton, CA (2021)
 Q-Chem 5.4.0 for Intel X86 EM64T Linux

User input:
--------------------------------------------------------------
$molecule
0 1
C	-0.900534	-0.471137	0.973626
S	-0.116734	-0.019137	2.481126
C	1.244766	0.767763	1.692526
C	-0.116834	-0.019537	-0.094274
C	1.085866	0.677463	0.287226
S	-0.326434	-0.143837	-1.831874
C	1.187866	0.736763	-2.080874
C	1.799966	1.093063	-0.888974
F	2.955166	1.765563	-0.845474
C	1.576766	0.959163	-3.482474
O	0.914066	0.567363	-4.432874
O	2.742666	1.640863	-3.595574
C	3.173966	1.883963	-4.942574
H	4.124066	2.440463	-4.859474
H	2.421466	2.480763	-5.496574
H	3.328966	0.929763	-5.485674
C	-0.900534	-1.906337	0.973626
H	-1.262934	-1.914337	1.991026
H	-1.690634	-2.584237	0.686326
H	-0.014634	-2.437437	1.289026
H	2.044466	1.231163	2.280126
$end

$rem
JOBTYPE		SP
EXCHANGE	HF
CORRELATION	pRIMP2
BASIS		cc-pvtz
METHOD		rimp2
AUX_BASIS	rimp2-cc-pvtz
SOLVENT_METHOD	PCM
PURECART	11111
SYMMETRY	false
MEM_TOTAL	110000
SCF_CONVERGENCE = 6
THRESH=10
GUI = 2
$end

$solvent
dielectric 4.90
$end
--------------------------------------------------------------

             Standard Nuclear Orientation (Angstroms)
    I     Atom           X                Y                Z
 ----------------------------------------------------------------
    1      C      -0.9005340000    -0.4711370000     0.9736260000
    2      S      -0.1167340000    -0.0191370000     2.4811260000
    3      C       1.2447660000     0.7677630000     1.6925260000
    4      C      -0.1168340000    -0.0195370000    -0.0942740000
    5      C       1.0858660000     0.6774630000     0.2872260000
    6      S      -0.3264340000    -0.1438370000    -1.8318740000
    7      C       1.1878660000     0.7367630000    -2.0808740000
    8      C       1.7999660000     1.0930630000    -0.8889740000
    9      F       2.9551660000     1.7655630000    -0.8454740000
   10      C       1.5767660000     0.9591630000    -3.4824740000
   11      O       0.9140660000     0.5673630000    -4.4328740000
   12      O       2.7426660000     1.6408630000    -3.5955740000
   13      C       3.1739660000     1.8839630000    -4.9425740000
   14      H       4.1240660000     2.4404630000    -4.8594740000
   15      H       2.4214660000     2.4807630000    -5.4965740000
   16      H       3.3289660000     0.9297630000    -5.4856740000
   17      C      -0.9005340000    -1.9063370000     0.9736260000
   18      H      -1.2629340000    -1.9143370000     1.9910260000
   19      H      -1.6906340000    -2.5842370000     0.6863260000
   20      H      -0.0146340000    -2.4374370000     1.2890260000
   21      H       2.0444660000     1.2311630000     2.2801260000
 ----------------------------------------------------------------

   11   -1389.2007617830      6.09e-07  Convergence criterion met
 Total energy in the final basis set =    -1389.2007617830
        RIMP2         total energy =     -1391.7156794742 a.u.

                    Orbital Energies (a.u.)
 --------------------------------------------------------------

 Alpha MOs
 -- Occupied --
-92.0043 -92.0033 -26.3436 -20.6140 -20.5598 -11.4083 -11.3834 -11.3274
-11.3066 -11.2941 -11.2886 -11.2808 -11.2548 -11.2156  -9.0042  -9.0031
 -6.6849  -6.6840  -6.6839  -6.6837  -6.6833  -6.6823  -1.6608  -1.4664
 -1.3690  -1.2228  -1.1448  -1.0686  -1.0242  -0.9907  -0.9616  -0.9050
 -0.8675  -0.8127  -0.7913  -0.7600  -0.7348  -0.7254  -0.6960  -0.6839
 -0.6734  -0.6620  -0.6113  -0.6048  -0.5923  -0.5761  -0.5668  -0.5608
 -0.5306  -0.5196  -0.5111  -0.4806  -0.4737  -0.4720  -0.4641  -0.4483
 -0.3848  -0.3404  -0.3020

          Ground-State Mulliken Net Atomic Charges

     Atom                 Charge (a.u.)
  ----------------------------------------
      1 C                    -0.148826
      2 S                     0.094662
      3 C                    -0.136836
      4 C                     0.098089
      5 C                    -0.120499
      6 S                     0.041782
      7 C                    -0.160254
      8 C                     0.393284
      9 F                    -0.206326
     10 C                     0.447994
     11 O                    -0.464522
     12 O                    -0.301704
     13 C                    -0.058293
     14 H                     0.121072
     15 H                     0.094954
     16 H                     0.094719
     17 C                    -0.359206
     18 H                     0.102063
     19 H                     0.135225
     20 H                     0.114796
     21 H                     0.217827
  ----------------------------------------
  Sum of atomic charges =     0.000000

                    Cartesian Multipole Moments
 -----------------------------------------------------------------
    Charge (ESU x 10^10)
                -0.0000
    Dipole Moment (Debye)
         X       3.1218      Y       0.6655      Z       3.2778
       Tot       4.5752
    Quadrupole Moments (Debye-Ang)
        XX     -89.3655     XY       5.7203     YY     -91.6225
        XZ      -5.4604     YZ      -5.1660     ZZ     -94.5700

 Total job time:  54.18s(wall), 1932.16s(cpu)
        *  Thank you very much for using Q-Chem.  Have a nice day.  *
