 Q-Chem 5.4, Q-Chem, Inc., Pleasanton, CA (2021)
 Q-Chem 5.4.0 for Intel X86 EM64T Linux

User input:
--------------------------------------------------------------
$molecule
0 1
C	0.015102	0.840099	-1.022917
S	0.017335	-0.059329	-2.533649
C	0.016259	-1.634650	-1.750546
C	0.015072	-0.068124	0.041748
C	0.013557	-1.456914	-0.344630
C	0.016726	-0.001738	1.463233
C	0.016596	-1.266571	2.083999
S	0.013261	-2.514072	0.942818
C	0.021270	-1.521047	3.537055
O	0.024254	-0.587547	4.327360
O	0.024507	-2.804238	3.981458
F	0.020641	1.112387	2.223373
C	0.034656	-3.162939	5.312059
H	0.035257	-4.267901	5.347351
H	-0.856307	-2.773582	5.852692
H	0.933572	-2.772963	5.838961
C	-0.475759	2.188727	-1.022917
H	-1.555594	2.207576	-1.022917
H	-0.134403	2.724847	-1.896102
H	-0.134403	2.724847	-0.149732
H	0.016324	-2.554672	-2.344427
$end

$rem
JOBTYPE		SP
EXCHANGE	HF
CORRELATION	pRIMP2
BASIS		cc-pvtz
METHOD		rimp2
AUX_BASIS	rimp2-cc-pvtz
SOLVENT_METHOD	PCM
PURECART	11111
SYMMETRY	false
MEM_TOTAL	110000
SCF_CONVERGENCE = 6
THRESH=10
GUI = 2
$end

$solvent
dielectric 4.90
$end
--------------------------------------------------------------

             Standard Nuclear Orientation (Angstroms)
    I     Atom           X                Y                Z
 ----------------------------------------------------------------
    1      C       0.0151020000     0.8400990000    -1.0229170000
    2      S       0.0173350000    -0.0593290000    -2.5336490000
    3      C       0.0162590000    -1.6346500000    -1.7505460000
    4      C       0.0150720000    -0.0681240000     0.0417480000
    5      C       0.0135570000    -1.4569140000    -0.3446300000
    6      C       0.0167260000    -0.0017380000     1.4632330000
    7      C       0.0165960000    -1.2665710000     2.0839990000
    8      S       0.0132610000    -2.5140720000     0.9428180000
    9      C       0.0212700000    -1.5210470000     3.5370550000
   10      O       0.0242540000    -0.5875470000     4.3273600000
   11      O       0.0245070000    -2.8042380000     3.9814580000
   12      F       0.0206410000     1.1123870000     2.2233730000
   13      C       0.0346560000    -3.1629390000     5.3120590000
   14      H       0.0352570000    -4.2679010000     5.3473510000
   15      H      -0.8563070000    -2.7735820000     5.8526920000
   16      H       0.9335720000    -2.7729630000     5.8389610000
   17      C      -0.4757590000     2.1887270000    -1.0229170000
   18      H      -1.5555940000     2.2075760000    -1.0229170000
   19      H      -0.1344030000     2.7248470000    -1.8961020000
   20      H      -0.1344030000     2.7248470000    -0.1497320000
   21      H       0.0163240000    -2.5546720000    -2.3444270000
 ----------------------------------------------------------------

   11   -1389.2959353124      4.71e-07  Convergence criterion met
 Total energy in the final basis set =    -1389.2959353124
        RIMP2         total energy =     -1391.7957653460 a.u.

                    Orbital Energies (a.u.)
 --------------------------------------------------------------

 Alpha MOs
 -- Occupied --
-92.0066 -91.9899 -26.3340 -20.6104 -20.5472 -11.4076 -11.3758 -11.2996
-11.2915 -11.2911 -11.2877 -11.2828 -11.2703 -11.2303  -9.0053  -8.9941
 -6.6861  -6.6855  -6.6851  -6.6754  -6.6747  -6.6734  -1.6470  -1.4699
 -1.3650  -1.2267  -1.1443  -1.0618  -1.0268  -1.0015  -0.9681  -0.9055
 -0.8633  -0.7947  -0.7840  -0.7668  -0.7243  -0.7149  -0.6928  -0.6771
 -0.6725  -0.6681  -0.6073  -0.6053  -0.6039  -0.5874  -0.5767  -0.5666
 -0.5418  -0.5257  -0.5159  -0.4925  -0.4791  -0.4674  -0.4599  -0.4579
 -0.3945  -0.3458  -0.2798

          Ground-State Mulliken Net Atomic Charges

     Atom                 Charge (a.u.)
  ----------------------------------------
      1 C                     0.020476
      2 S                     0.085304
      3 C                    -0.258035
      4 C                    -0.097005
      5 C                    -0.009376
      6 C                     0.369141
      7 C                    -0.158665
      8 S                     0.030332
      9 C                     0.457835
     10 O                    -0.455238
     11 O                    -0.298551
     12 F                    -0.212427
     13 C                    -0.054801
     14 H                     0.116255
     15 H                     0.083882
     16 H                     0.083827
     17 C                    -0.283114
     18 H                     0.129077
     19 H                     0.118527
     20 H                     0.121682
     21 H                     0.210875
  ----------------------------------------
  Sum of atomic charges =     0.000000

                    Cartesian Multipole Moments
 -----------------------------------------------------------------
    Charge (ESU x 10^10)
                -0.0000
    Dipole Moment (Debye)
         X      -0.5843      Y      -1.1871      Z      -3.5371
       Tot       3.7765
    Quadrupole Moments (Debye-Ang)
        XX     -95.7949     XY      -1.0486     YY     -83.2715
        XZ       0.5525     YZ     -11.9037     ZZ     -96.0373

 Total job time:  58.27s(wall), 1977.80s(cpu)
        *  Thank you very much for using Q-Chem.  Have a nice day.  *
