 Q-Chem 5.4, Q-Chem, Inc., Pleasanton, CA (2021)
 Q-Chem 5.4.0 for Intel X86 EM64T Linux

User input:
--------------------------------------------------------------
$molecule
0 1
C	-0.001791	0.837120	-1.022917
S	0.000442	-0.062308	-2.533649
C	-0.000634	-1.637629	-1.750546
C	-0.001821	-0.071103	0.041748
C	-0.003336	-1.459893	-0.344630
C	-0.000167	-0.004717	1.463233
C	-0.000297	-1.269550	2.083999
S	-0.003632	-2.517051	0.942818
C	0.004377	-1.524026	3.537055
O	0.007361	-0.590526	4.327360
O	0.007614	-2.807217	3.981458
F	0.003748	1.109408	2.223373
C	0.017763	-3.165918	5.312059
H	0.018364	-4.270880	5.347351
H	-0.873200	-2.776561	5.852692
H	0.916679	-2.775942	5.838961
C	-0.001791	2.272300	-1.022917
H	-1.010058	2.659338	-1.022917
H	0.502342	2.659338	-1.896102
H	0.502342	2.659338	-0.149732
H	-0.000569	-2.557651	-2.344427
$end

$rem
JOBTYPE		SP
EXCHANGE	HF
CORRELATION	pRIMP2
BASIS		cc-pvtz
METHOD		rimp2
AUX_BASIS	rimp2-cc-pvtz
SOLVENT_METHOD	PCM
PURECART	11111
SYMMETRY	false
MEM_TOTAL	110000
SCF_CONVERGENCE = 6
THRESH=10
GUI = 2
$end

$solvent
dielectric 4.90
$end
--------------------------------------------------------------

             Standard Nuclear Orientation (Angstroms)
    I     Atom           X                Y                Z
 ----------------------------------------------------------------
    1      C      -0.0017910000     0.8371200000    -1.0229170000
    2      S       0.0004420000    -0.0623080000    -2.5336490000
    3      C      -0.0006340000    -1.6376290000    -1.7505460000
    4      C      -0.0018210000    -0.0711030000     0.0417480000
    5      C      -0.0033360000    -1.4598930000    -0.3446300000
    6      C      -0.0001670000    -0.0047170000     1.4632330000
    7      C      -0.0002970000    -1.2695500000     2.0839990000
    8      S      -0.0036320000    -2.5170510000     0.9428180000
    9      C       0.0043770000    -1.5240260000     3.5370550000
   10      O       0.0073610000    -0.5905260000     4.3273600000
   11      O       0.0076140000    -2.8072170000     3.9814580000
   12      F       0.0037480000     1.1094080000     2.2233730000
   13      C       0.0177630000    -3.1659180000     5.3120590000
   14      H       0.0183640000    -4.2708800000     5.3473510000
   15      H      -0.8732000000    -2.7765610000     5.8526920000
   16      H       0.9166790000    -2.7759420000     5.8389610000
   17      C      -0.0017910000     2.2723000000    -1.0229170000
   18      H      -1.0100580000     2.6593380000    -1.0229170000
   19      H       0.5023420000     2.6593380000    -1.8961020000
   20      H       0.5023420000     2.6593380000    -0.1497320000
   21      H      -0.0005690000    -2.5576510000    -2.3444270000
 ----------------------------------------------------------------

   11   -1389.3027314111      4.42e-07  Convergence criterion met
 Total energy in the final basis set =    -1389.3027314111
        RIMP2         total energy =     -1391.7999744519 a.u.

                    Orbital Energies (a.u.)
 --------------------------------------------------------------

 Alpha MOs
 -- Occupied --
-92.0069 -91.9889 -26.3342 -20.6100 -20.5465 -11.4071 -11.3760 -11.3039
-11.2910 -11.2897 -11.2875 -11.2796 -11.2693 -11.2316  -9.0055  -8.9932
 -6.6863  -6.6858  -6.6853  -6.6745  -6.6738  -6.6724  -1.6472  -1.4695
 -1.3644  -1.2259  -1.1436  -1.0616  -1.0266  -1.0023  -0.9678  -0.9064
 -0.8629  -0.7946  -0.7838  -0.7662  -0.7240  -0.7150  -0.6926  -0.6768
 -0.6729  -0.6677  -0.6074  -0.6057  -0.6035  -0.5866  -0.5758  -0.5689
 -0.5428  -0.5256  -0.5161  -0.4926  -0.4781  -0.4696  -0.4597  -0.4574
 -0.3951  -0.3459  -0.2790

          Ground-State Mulliken Net Atomic Charges

     Atom                 Charge (a.u.)
  ----------------------------------------
      1 C                     0.030996
      2 S                     0.080762
      3 C                    -0.264131
      4 C                    -0.100209
      5 C                    -0.008949
      6 C                     0.386215
      7 C                    -0.161110
      8 S                     0.025893
      9 C                     0.459380
     10 O                    -0.456673
     11 O                    -0.298653
     12 F                    -0.214331
     13 C                    -0.055003
     14 H                     0.116177
     15 H                     0.083813
     16 H                     0.083709
     17 C                    -0.284685
     18 H                     0.125991
     19 H                     0.118963
     20 H                     0.121192
     21 H                     0.210652
  ----------------------------------------
  Sum of atomic charges =     0.000000

                    Cartesian Multipole Moments
 -----------------------------------------------------------------
    Charge (ESU x 10^10)
                -0.0000
    Dipole Moment (Debye)
         X      -0.0133      Y      -0.8059      Z      -3.6150
       Tot       3.7038
    Quadrupole Moments (Debye-Ang)
        XX     -95.9996     XY      -0.0444     YY     -82.8088
        XZ       0.0525     YZ     -12.1958     ZZ     -96.2612

 Total job time:  59.07s(wall), 1985.19s(cpu)
        *  Thank you very much for using Q-Chem.  Have a nice day.  *
