 Q-Chem 5.4, Q-Chem, Inc., Pleasanton, CA (2021)
 Q-Chem 5.4.0 for Intel X86 EM64T Linux

User input:
--------------------------------------------------------------
$molecule
0 1
C	0.002514	0.837308	-1.022917
S	0.004747	-0.062120	-2.533649
C	0.003671	-1.637441	-1.750546
C	0.002484	-0.070915	0.041748
C	0.000969	-1.459705	-0.344630
C	0.004138	-0.004529	1.463233
C	0.004008	-1.269362	2.083999
S	0.000673	-2.516863	0.942818
C	0.008682	-1.523838	3.537055
O	0.011666	-0.590338	4.327360
O	0.011919	-2.807029	3.981458
F	0.008053	1.109596	2.223373
C	0.022068	-3.165730	5.312059
H	0.022669	-4.270692	5.347351
H	-0.868895	-2.776373	5.852692
H	0.920984	-2.775754	5.838961
C	-0.122570	2.267027	-1.022917
H	-1.160733	2.564715	-1.022917
H	0.345912	2.696530	-1.896102
H	0.345912	2.696530	-0.149732
H	0.003736	-2.557463	-2.344427
$end

$rem
JOBTYPE		SP
EXCHANGE	HF
CORRELATION	pRIMP2
BASIS		cc-pvtz
METHOD		rimp2
AUX_BASIS	rimp2-cc-pvtz
SOLVENT_METHOD	PCM
PURECART	11111
SYMMETRY	false
MEM_TOTAL	110000
SCF_CONVERGENCE = 6
THRESH=10
GUI = 2
$end

$solvent
dielectric 4.90
$end
--------------------------------------------------------------

             Standard Nuclear Orientation (Angstroms)
    I     Atom           X                Y                Z
 ----------------------------------------------------------------
    1      C       0.0025140000     0.8373080000    -1.0229170000
    2      S       0.0047470000    -0.0621200000    -2.5336490000
    3      C       0.0036710000    -1.6374410000    -1.7505460000
    4      C       0.0024840000    -0.0709150000     0.0417480000
    5      C       0.0009690000    -1.4597050000    -0.3446300000
    6      C       0.0041380000    -0.0045290000     1.4632330000
    7      C       0.0040080000    -1.2693620000     2.0839990000
    8      S       0.0006730000    -2.5168630000     0.9428180000
    9      C       0.0086820000    -1.5238380000     3.5370550000
   10      O       0.0116660000    -0.5903380000     4.3273600000
   11      O       0.0119190000    -2.8070290000     3.9814580000
   12      F       0.0080530000     1.1095960000     2.2233730000
   13      C       0.0220680000    -3.1657300000     5.3120590000
   14      H       0.0226690000    -4.2706920000     5.3473510000
   15      H      -0.8688950000    -2.7763730000     5.8526920000
   16      H       0.9209840000    -2.7757540000     5.8389610000
   17      C      -0.1225700000     2.2670270000    -1.0229170000
   18      H      -1.1607330000     2.5647150000    -1.0229170000
   19      H       0.3459120000     2.6965300000    -1.8961020000
   20      H       0.3459120000     2.6965300000    -0.1497320000
   21      H       0.0037360000    -2.5574630000    -2.3444270000
 ----------------------------------------------------------------

   11   -1389.3025204753      4.44e-07  Convergence criterion met
 Total energy in the final basis set =    -1389.3025204753
        RIMP2         total energy =     -1391.7999142324 a.u.

                    Orbital Energies (a.u.)
 --------------------------------------------------------------

 Alpha MOs
 -- Occupied --
-92.0069 -91.9890 -26.3342 -20.6100 -20.5465 -11.4071 -11.3760 -11.3036
-11.2911 -11.2897 -11.2875 -11.2798 -11.2693 -11.2316  -9.0056  -8.9932
 -6.6864  -6.6858  -6.6853  -6.6745  -6.6739  -6.6725  -1.6472  -1.4695
 -1.3645  -1.2260  -1.1436  -1.0617  -1.0266  -1.0022  -0.9678  -0.9063
 -0.8629  -0.7946  -0.7838  -0.7663  -0.7240  -0.7150  -0.6927  -0.6768
 -0.6729  -0.6677  -0.6074  -0.6057  -0.6035  -0.5867  -0.5758  -0.5688
 -0.5427  -0.5256  -0.5161  -0.4926  -0.4782  -0.4695  -0.4597  -0.4575
 -0.3951  -0.3459  -0.2790

          Ground-State Mulliken Net Atomic Charges

     Atom                 Charge (a.u.)
  ----------------------------------------
      1 C                     0.031210
      2 S                     0.081320
      3 C                    -0.264429
      4 C                    -0.101858
      5 C                    -0.008585
      6 C                     0.383872
      7 C                    -0.161101
      8 S                     0.026370
      9 C                     0.459242
     10 O                    -0.456590
     11 O                    -0.298657
     12 F                    -0.214060
     13 C                    -0.054978
     14 H                     0.116179
     15 H                     0.083814
     16 H                     0.083714
     17 C                    -0.283443
     18 H                     0.126851
     19 H                     0.118853
     20 H                     0.121596
     21 H                     0.210679
  ----------------------------------------
  Sum of atomic charges =     0.000000

                    Cartesian Multipole Moments
 -----------------------------------------------------------------
    Charge (ESU x 10^10)
                -0.0000
    Dipole Moment (Debye)
         X      -0.1634      Y      -0.8321      Z      -3.6091
       Tot       3.7074
    Quadrupole Moments (Debye-Ang)
        XX     -95.9853     XY      -0.3251     YY     -82.8319
        XZ       0.1860     YZ     -12.1689     ZZ     -96.2588

 Total job time:  63.31s(wall), 1969.92s(cpu)
        *  Thank you very much for using Q-Chem.  Have a nice day.  *
