 Q-Chem 5.4, Q-Chem, Inc., Pleasanton, CA (2021)
 Q-Chem 5.4.0 for Intel X86 EM64T Linux

User input:
--------------------------------------------------------------
$molecule
0 1
C	0.022906	0.843737	-1.022917
S	0.025139	-0.055691	-2.533649
C	0.024063	-1.631012	-1.750546
C	0.022876	-0.064486	0.041748
C	0.021361	-1.453276	-0.344630
C	0.024530	0.001900	1.463233
C	0.024400	-1.262933	2.083999
S	0.021065	-2.510434	0.942818
C	0.029074	-1.517409	3.537055
O	0.032058	-0.583909	4.327360
O	0.032311	-2.800600	3.981458
F	0.028445	1.116025	2.223373
C	0.042460	-3.159301	5.312059
H	0.043061	-4.264263	5.347351
H	-0.848503	-2.769944	5.852692
H	0.941376	-2.769325	5.838961
C	-0.694684	2.086640	-1.022917
H	-1.761388	1.917690	-1.022917
H	-0.451611	2.673891	-1.896102
H	-0.451611	2.673891	-0.149732
H	0.024128	-2.551034	-2.344427
$end

$rem
JOBTYPE		SP
EXCHANGE	HF
CORRELATION	pRIMP2
BASIS		cc-pvtz
METHOD		rimp2
AUX_BASIS	rimp2-cc-pvtz
SOLVENT_METHOD	PCM
PURECART	11111
SYMMETRY	false
MEM_TOTAL	110000
SCF_CONVERGENCE = 6
THRESH=10
GUI = 2
$end

$solvent
dielectric 4.90
$end
--------------------------------------------------------------

             Standard Nuclear Orientation (Angstroms)
    I     Atom           X                Y                Z
 ----------------------------------------------------------------
    1      C       0.0229060000     0.8437370000    -1.0229170000
    2      S       0.0251390000    -0.0556910000    -2.5336490000
    3      C       0.0240630000    -1.6310120000    -1.7505460000
    4      C       0.0228760000    -0.0644860000     0.0417480000
    5      C       0.0213610000    -1.4532760000    -0.3446300000
    6      C       0.0245300000     0.0019000000     1.4632330000
    7      C       0.0244000000    -1.2629330000     2.0839990000
    8      S       0.0210650000    -2.5104340000     0.9428180000
    9      C       0.0290740000    -1.5174090000     3.5370550000
   10      O       0.0320580000    -0.5839090000     4.3273600000
   11      O       0.0323110000    -2.8006000000     3.9814580000
   12      F       0.0284450000     1.1160250000     2.2233730000
   13      C       0.0424600000    -3.1593010000     5.3120590000
   14      H       0.0430610000    -4.2642630000     5.3473510000
   15      H      -0.8485030000    -2.7699440000     5.8526920000
   16      H       0.9413760000    -2.7693250000     5.8389610000
   17      C      -0.6946840000     2.0866400000    -1.0229170000
   18      H      -1.7613880000     1.9176900000    -1.0229170000
   19      H      -0.4516110000     2.6738910000    -1.8961020000
   20      H      -0.4516110000     2.6738910000    -0.1497320000
   21      H       0.0241280000    -2.5510340000    -2.3444270000
 ----------------------------------------------------------------

   11   -1389.2866322037      5.10e-07  Convergence criterion met
 Total energy in the final basis set =    -1389.2866322037
        RIMP2         total energy =     -1391.7896722668 a.u.

                    Orbital Energies (a.u.)
 --------------------------------------------------------------

 Alpha MOs
 -- Occupied --
-92.0062 -91.9912 -26.3339 -20.6109 -20.5481 -11.4084 -11.3754 -11.2939
-11.2930 -11.2920 -11.2879 -11.2869 -11.2717 -11.2285  -9.0050  -8.9953
 -6.6857  -6.6851  -6.6847  -6.6766  -6.6759  -6.6746  -1.6469  -1.4705
 -1.3657  -1.2276  -1.1453  -1.0622  -1.0272  -1.0006  -0.9686  -0.9043
 -0.8638  -0.7948  -0.7843  -0.7675  -0.7247  -0.7149  -0.6930  -0.6775
 -0.6720  -0.6688  -0.6072  -0.6049  -0.6043  -0.5884  -0.5772  -0.5645
 -0.5405  -0.5258  -0.5157  -0.4924  -0.4800  -0.4648  -0.4602  -0.4584
 -0.3937  -0.3457  -0.2808

          Ground-State Mulliken Net Atomic Charges

     Atom                 Charge (a.u.)
  ----------------------------------------
      1 C                     0.002376
      2 S                     0.088350
      3 C                    -0.247174
      4 C                    -0.087070
      5 C                    -0.009624
      6 C                     0.360510
      7 C                    -0.154974
      8 S                     0.034536
      9 C                     0.457011
     10 O                    -0.453513
     11 O                    -0.298348
     12 F                    -0.211612
     13 C                    -0.054706
     14 H                     0.116369
     15 H                     0.084014
     16 H                     0.084004
     17 C                    -0.286663
     18 H                     0.127986
     19 H                     0.117355
     20 H                     0.119839
     21 H                     0.211334
  ----------------------------------------
  Sum of atomic charges =     0.000000

                    Cartesian Multipole Moments
 -----------------------------------------------------------------
    Charge (ESU x 10^10)
                -0.0000
    Dipole Moment (Debye)
         X      -0.8165      Y      -1.6616      Z      -3.4428
       Tot       3.9090
    Quadrupole Moments (Debye-Ang)
        XX     -95.6280     XY      -1.3561     YY     -83.7589
        XZ       0.7517     YZ     -11.5789     ZZ     -95.6741

 Total job time:  57.05s(wall), 1918.10s(cpu)
        *  Thank you very much for using Q-Chem.  Have a nice day.  *
