 Q-Chem 5.4, Q-Chem, Inc., Pleasanton, CA (2021)
 Q-Chem 5.4.0 for Intel X86 EM64T Linux

User input:
--------------------------------------------------------------
$molecule
0 1
C	0.010993	0.838803	-1.022917
S	0.013226	-0.060625	-2.533649
C	0.012150	-1.635946	-1.750546
C	0.010963	-0.069420	0.041748
C	0.009448	-1.458210	-0.344630
C	0.012617	-0.003034	1.463233
C	0.012487	-1.267867	2.083999
S	0.009152	-2.515368	0.942818
C	0.017161	-1.522343	3.537055
O	0.020145	-0.588843	4.327360
O	0.020398	-2.805534	3.981458
F	0.016532	1.111091	2.223373
C	0.030547	-3.164235	5.312059
H	0.031148	-4.269197	5.347351
H	-0.860416	-2.774878	5.852692
H	0.929463	-2.774259	5.838961
C	-0.360459	2.225081	-1.022917
H	-1.434543	2.337972	-1.022917
H	0.026324	2.729410	-1.896102
H	0.026324	2.729410	-0.149732
H	0.012215	-2.555968	-2.344427
$end

$rem
JOBTYPE		SP
EXCHANGE	HF
CORRELATION	pRIMP2
BASIS		cc-pvtz
METHOD		rimp2
AUX_BASIS	rimp2-cc-pvtz
SOLVENT_METHOD	PCM
PURECART	11111
SYMMETRY	false
MEM_TOTAL	110000
SCF_CONVERGENCE = 6
THRESH=10
GUI = 2
$end

$solvent
dielectric 4.90
$end
--------------------------------------------------------------

             Standard Nuclear Orientation (Angstroms)
    I     Atom           X                Y                Z
 ----------------------------------------------------------------
    1      C       0.0109930000     0.8388030000    -1.0229170000
    2      S       0.0132260000    -0.0606250000    -2.5336490000
    3      C       0.0121500000    -1.6359460000    -1.7505460000
    4      C       0.0109630000    -0.0694200000     0.0417480000
    5      C       0.0094480000    -1.4582100000    -0.3446300000
    6      C       0.0126170000    -0.0030340000     1.4632330000
    7      C       0.0124870000    -1.2678670000     2.0839990000
    8      S       0.0091520000    -2.5153680000     0.9428180000
    9      C       0.0171610000    -1.5223430000     3.5370550000
   10      O       0.0201450000    -0.5888430000     4.3273600000
   11      O       0.0203980000    -2.8055340000     3.9814580000
   12      F       0.0165320000     1.1110910000     2.2233730000
   13      C       0.0305470000    -3.1642350000     5.3120590000
   14      H       0.0311480000    -4.2691970000     5.3473510000
   15      H      -0.8604160000    -2.7748780000     5.8526920000
   16      H       0.9294630000    -2.7742590000     5.8389610000
   17      C      -0.3604590000     2.2250810000    -1.0229170000
   18      H      -1.4345430000     2.3379720000    -1.0229170000
   19      H       0.0263240000     2.7294100000    -1.8961020000
   20      H       0.0263240000     2.7294100000    -0.1497320000
   21      H       0.0122150000    -2.5559680000    -2.3444270000
 ----------------------------------------------------------------

   11   -1389.2991147487      4.58e-07  Convergence criterion met
 Total energy in the final basis set =    -1389.2991147487
        RIMP2         total energy =     -1391.7978053999 a.u.

                    Orbital Energies (a.u.)
 --------------------------------------------------------------

 Alpha MOs
 -- Occupied --
-92.0068 -91.9895 -26.3341 -20.6102 -20.5468 -11.4074 -11.3759 -11.3015
-11.2913 -11.2904 -11.2876 -11.2814 -11.2698 -11.2310  -9.0055  -8.9937
 -6.6862  -6.6857  -6.6852  -6.6750  -6.6743  -6.6730  -1.6471  -1.4697
 -1.3647  -1.2263  -1.1440  -1.0617  -1.0267  -1.0019  -0.9680  -0.9059
 -0.8631  -0.7946  -0.7839  -0.7665  -0.7241  -0.7149  -0.6927  -0.6770
 -0.6727  -0.6679  -0.6074  -0.6054  -0.6037  -0.5871  -0.5764  -0.5675
 -0.5423  -0.5257  -0.5160  -0.4926  -0.4787  -0.4683  -0.4598  -0.4577
 -0.3948  -0.3459  -0.2794

          Ground-State Mulliken Net Atomic Charges

     Atom                 Charge (a.u.)
  ----------------------------------------
      1 C                     0.025981
      2 S                     0.083824
      3 C                    -0.261364
      4 C                    -0.099931
      5 C                    -0.009182
      6 C                     0.374215
      7 C                    -0.159926
      8 S                     0.028676
      9 C                     0.458347
     10 O                    -0.455850
     11 O                    -0.298610
     12 F                    -0.212966
     13 C                    -0.054861
     14 H                     0.116218
     15 H                     0.083846
     16 H                     0.083771
     17 C                    -0.282316
     18 H                     0.128593
     19 H                     0.118748
     20 H                     0.122022
     21 H                     0.210766
  ----------------------------------------
  Sum of atomic charges =     0.000000

                    Cartesian Multipole Moments
 -----------------------------------------------------------------
    Charge (ESU x 10^10)
                -0.0000
    Dipole Moment (Debye)
         X      -0.4514      Y      -1.0226      Z      -3.5698
       Tot       3.7407
    Quadrupole Moments (Debye-Ang)
        XX     -95.8760     XY      -0.8372     YY     -83.0717
        XZ       0.4380     YZ     -12.0215     ZZ     -96.1498

 Total job time:  58.04s(wall), 2110.35s(cpu)
        *  Thank you very much for using Q-Chem.  Have a nice day.  *
