 Q-Chem 5.4, Q-Chem, Inc., Pleasanton, CA (2021)
 Q-Chem 5.4.0 for Intel X86 EM64T Linux

User input:
--------------------------------------------------------------
$molecule
0 1
C	0.006786	0.837870	-1.022917
S	0.009019	-0.061558	-2.533649
C	0.007943	-1.636879	-1.750546
C	0.006756	-0.070353	0.041748
C	0.005241	-1.459143	-0.344630
C	0.008410	-0.003967	1.463233
C	0.008280	-1.268800	2.083999
S	0.004945	-2.516301	0.942818
C	0.012954	-1.523276	3.537055
O	0.015938	-0.589776	4.327360
O	0.016191	-2.806467	3.981458
F	0.012325	1.110158	2.223373
C	0.026340	-3.165168	5.312059
H	0.026941	-4.270130	5.347351
H	-0.864623	-2.775811	5.852692
H	0.925256	-2.775192	5.838961
C	-0.242430	2.251247	-1.022917
H	-1.302588	2.457321	-1.022917
H	0.186836	2.719946	-1.896102
H	0.186836	2.719946	-0.149732
H	0.008008	-2.556901	-2.344427
$end

$rem
JOBTYPE		SP
EXCHANGE	HF
CORRELATION	pRIMP2
BASIS		cc-pvtz
METHOD		rimp2
AUX_BASIS	rimp2-cc-pvtz
SOLVENT_METHOD	PCM
PURECART	11111
SYMMETRY	false
MEM_TOTAL	110000
SCF_CONVERGENCE = 6
THRESH=10
GUI = 2
$end

$solvent
dielectric 4.90
$end
--------------------------------------------------------------

             Standard Nuclear Orientation (Angstroms)
    I     Atom           X                Y                Z
 ----------------------------------------------------------------
    1      C       0.0067860000     0.8378700000    -1.0229170000
    2      S       0.0090190000    -0.0615580000    -2.5336490000
    3      C       0.0079430000    -1.6368790000    -1.7505460000
    4      C       0.0067560000    -0.0703530000     0.0417480000
    5      C       0.0052410000    -1.4591430000    -0.3446300000
    6      C       0.0084100000    -0.0039670000     1.4632330000
    7      C       0.0082800000    -1.2688000000     2.0839990000
    8      S       0.0049450000    -2.5163010000     0.9428180000
    9      C       0.0129540000    -1.5232760000     3.5370550000
   10      O       0.0159380000    -0.5897760000     4.3273600000
   11      O       0.0161910000    -2.8064670000     3.9814580000
   12      F       0.0123250000     1.1101580000     2.2233730000
   13      C       0.0263400000    -3.1651680000     5.3120590000
   14      H       0.0269410000    -4.2701300000     5.3473510000
   15      H      -0.8646230000    -2.7758110000     5.8526920000
   16      H       0.9252560000    -2.7751920000     5.8389610000
   17      C      -0.2424300000     2.2512470000    -1.0229170000
   18      H      -1.3025880000     2.4573210000    -1.0229170000
   19      H       0.1868360000     2.7199460000    -1.8961020000
   20      H       0.1868360000     2.7199460000    -0.1497320000
   21      H       0.0080080000    -2.5569010000    -2.3444270000
 ----------------------------------------------------------------

   11   -1389.3013097297      4.49e-07  Convergence criterion met
 Total energy in the final basis set =    -1389.3013097297
        RIMP2         total energy =     -1391.7991877519 a.u.

                    Orbital Energies (a.u.)
 --------------------------------------------------------------

 Alpha MOs
 -- Occupied --
-92.0069 -91.9892 -26.3341 -20.6101 -20.5466 -11.4072 -11.3760 -11.3029
-11.2912 -11.2900 -11.2875 -11.2804 -11.2695 -11.2314  -9.0055  -8.9934
 -6.6863  -6.6858  -6.6853  -6.6747  -6.6740  -6.6727  -1.6471  -1.4696
 -1.3646  -1.2261  -1.1438  -1.0617  -1.0267  -1.0021  -0.9679  -0.9062
 -0.8630  -0.7946  -0.7838  -0.7664  -0.7240  -0.7150  -0.6927  -0.6769
 -0.6728  -0.6678  -0.6075  -0.6056  -0.6036  -0.5868  -0.5760  -0.5683
 -0.5426  -0.5256  -0.5160  -0.4926  -0.4784  -0.4690  -0.4598  -0.4576
 -0.3950  -0.3459  -0.2792

          Ground-State Mulliken Net Atomic Charges

     Atom                 Charge (a.u.)
  ----------------------------------------
      1 C                     0.029474
      2 S                     0.082441
      3 C                    -0.263481
      4 C                    -0.101634
      5 C                    -0.008815
      6 C                     0.379424
      7 C                    -0.160734
      8 S                     0.027336
      9 C                     0.458854
     10 O                    -0.456304
     11 O                    -0.298644
     12 F                    -0.213547
     13 C                    -0.054925
     14 H                     0.116193
     15 H                     0.083824
     16 H                     0.083734
     17 C                    -0.282413
     18 H                     0.127728
     19 H                     0.118828
     20 H                     0.121950
     21 H                     0.210710
  ----------------------------------------
  Sum of atomic charges =     0.000000

                    Cartesian Multipole Moments
 -----------------------------------------------------------------
    Charge (ESU x 10^10)
                -0.0000
    Dipole Moment (Debye)
         X      -0.3102      Y      -0.9047      Z      -3.5938
       Tot       3.7189
    Quadrupole Moments (Debye-Ang)
        XX     -95.9423     XY      -0.5929     YY     -82.9209
        XZ       0.3152     YZ     -12.1102     ZZ     -96.2215

 Total job time:  57.72s(wall), 2003.22s(cpu)
        *  Thank you very much for using Q-Chem.  Have a nice day.  *
