 Q-Chem 5.4, Q-Chem, Inc., Pleasanton, CA (2021)
 Q-Chem 5.4.0 for Intel X86 EM64T Linux

User input:
--------------------------------------------------------------
$molecule
0 1
C	0.019084	0.841748	-1.022917
S	0.021317	-0.057680	-2.533649
C	0.020241	-1.633001	-1.750546
C	0.019054	-0.066475	0.041748
C	0.017539	-1.455265	-0.344630
C	0.020708	-0.000089	1.463233
C	0.020578	-1.264922	2.083999
S	0.017243	-2.512423	0.942818
C	0.025252	-1.519398	3.537055
O	0.028236	-0.585898	4.327360
O	0.028489	-2.802589	3.981458
F	0.024623	1.114036	2.223373
C	0.038638	-3.161290	5.312059
H	0.039239	-4.266252	5.347351
H	-0.852325	-2.771933	5.852692
H	0.937554	-2.771314	5.838961
C	-0.587449	2.142463	-1.022917
H	-1.664819	2.067126	-1.022917
H	-0.294118	2.706294	-1.896102
H	-0.294118	2.706294	-0.149732
H	0.020306	-2.553023	-2.344427
$end

$rem
JOBTYPE		SP
EXCHANGE	HF
CORRELATION	pRIMP2
BASIS		cc-pvtz
METHOD		rimp2
AUX_BASIS	rimp2-cc-pvtz
SOLVENT_METHOD	PCM
PURECART	11111
SYMMETRY	false
MEM_TOTAL	110000
SCF_CONVERGENCE = 6
THRESH=10
GUI = 2
$end

$solvent
dielectric 4.90
$end
--------------------------------------------------------------

             Standard Nuclear Orientation (Angstroms)
    I     Atom           X                Y                Z
 ----------------------------------------------------------------
    1      C       0.0190840000     0.8417480000    -1.0229170000
    2      S       0.0213170000    -0.0576800000    -2.5336490000
    3      C       0.0202410000    -1.6330010000    -1.7505460000
    4      C       0.0190540000    -0.0664750000     0.0417480000
    5      C       0.0175390000    -1.4552650000    -0.3446300000
    6      C       0.0207080000    -0.0000890000     1.4632330000
    7      C       0.0205780000    -1.2649220000     2.0839990000
    8      S       0.0172430000    -2.5124230000     0.9428180000
    9      C       0.0252520000    -1.5193980000     3.5370550000
   10      O       0.0282360000    -0.5858980000     4.3273600000
   11      O       0.0284890000    -2.8025890000     3.9814580000
   12      F       0.0246230000     1.1140360000     2.2233730000
   13      C       0.0386380000    -3.1612900000     5.3120590000
   14      H       0.0392390000    -4.2662520000     5.3473510000
   15      H      -0.8523250000    -2.7719330000     5.8526920000
   16      H       0.9375540000    -2.7713140000     5.8389610000
   17      C      -0.5874490000     2.1424630000    -1.0229170000
   18      H      -1.6648190000     2.0671260000    -1.0229170000
   19      H      -0.2941180000     2.7062940000    -1.8961020000
   20      H      -0.2941180000     2.7062940000    -0.1497320000
   21      H       0.0203060000    -2.5530230000    -2.3444270000
 ----------------------------------------------------------------

   11   -1389.2917729271      4.88e-07  Convergence criterion met
 Total energy in the final basis set =    -1389.2917729271
        RIMP2         total energy =     -1391.7930602562 a.u.

                    Orbital Energies (a.u.)
 --------------------------------------------------------------

 Alpha MOs
 -- Occupied --
-92.0064 -91.9905 -26.3339 -20.6106 -20.5476 -11.4080 -11.3756 -11.2971
-11.2919 -11.2917 -11.2878 -11.2846 -11.2709 -11.2295  -9.0052  -8.9946
 -6.6859  -6.6853  -6.6849  -6.6759  -6.6753  -6.6739  -1.6470  -1.4702
 -1.3653  -1.2271  -1.1448  -1.0620  -1.0270  -1.0011  -0.9683  -0.9050
 -0.8635  -0.7947  -0.7841  -0.7671  -0.7245  -0.7149  -0.6929  -0.6773
 -0.6723  -0.6684  -0.6072  -0.6051  -0.6041  -0.5879  -0.5770  -0.5655
 -0.5413  -0.5257  -0.5158  -0.4925  -0.4795  -0.4662  -0.4600  -0.4582
 -0.3942  -0.3458  -0.2802

          Ground-State Mulliken Net Atomic Charges

     Atom                 Charge (a.u.)
  ----------------------------------------
      1 C                     0.012717
      2 S                     0.086798
      3 C                    -0.253358
      4 C                    -0.092791
      5 C                    -0.009437
      6 C                     0.364549
      7 C                    -0.156996
      8 S                     0.032285
      9 C                     0.457380
     10 O                    -0.454463
     11 O                    -0.298464
     12 F                    -0.211979
     13 C                    -0.054749
     14 H                     0.116305
     15 H                     0.083938
     16 H                     0.083905
     17 C                    -0.284651
     18 H                     0.128949
     19 H                     0.118076
     20 H                     0.120927
     21 H                     0.211059
  ----------------------------------------
  Sum of atomic charges =     0.000000

                    Cartesian Multipole Moments
 -----------------------------------------------------------------
    Charge (ESU x 10^10)
                -0.0000
    Dipole Moment (Debye)
         X      -0.7069      Y      -1.3999      Z      -3.4951
       Tot       3.8308
    Quadrupole Moments (Debye-Ang)
        XX     -95.7084     XY      -1.2225     YY     -83.5058
        XZ       0.6576     YZ     -11.7566     ZZ     -95.8795

 Total job time:  59.82s(wall), 2076.34s(cpu)
        *  Thank you very much for using Q-Chem.  Have a nice day.  *
