 Q-Chem 5.4, Q-Chem, Inc., Pleasanton, CA (2021)
 Q-Chem 5.4.0 for Intel X86 EM64T Linux

User input:
--------------------------------------------------------------
$molecule
0 1
C	0.336297	-3.852073	0.775127
C	0.322520	-3.689895	-0.612565
C	0.205498	-2.348081	-1.066639
H	0.397057	-4.543777	-1.302900
C	0.125562	-1.435182	0.000000
S	0.199331	-2.278254	1.544483
C	0.172753	-1.971188	-2.521872
H	0.251114	-2.867704	-3.166949
H	1.009380	-1.292962	-2.790821
H	-0.768708	-1.448236	-2.791023
C	0.000000	0.000000	0.000000
C	0.365003	0.782674	1.099446
C	0.949885	2.036912	0.776721
H	0.209135	0.448431	2.136088
C	1.043159	2.236886	-0.612546
S	0.398297	0.854094	-1.486809
C	1.409609	3.022738	1.814609
H	1.229726	2.636980	2.836676
H	0.877346	3.992870	1.726239
H	2.494910	3.238558	1.726228
H	1.444334	3.097160	-1.161575
H	1.276119	-4.297846	1.119411
H	-0.512135	-4.453931	1.119277
H	1.201476	-1.341326	0.000115
$end

$rem
JOBTYPE		SP
EXCHANGE	HF
CORRELATION	pRIMP2
BASIS		cc-pvtz
METHOD		rimp2
AUX_BASIS	rimp2-cc-pvtz
SOLVENT_METHOD	PCM
PURECART	11111
SYMMETRY	false
MEM_TOTAL	110000
SCF_CONVERGENCE = 6
THRESH=10
GUI = 2
$end

$solvent
dielectric 4.90
$end
--------------------------------------------------------------

             Standard Nuclear Orientation (Angstroms)
    I     Atom           X                Y                Z
 ----------------------------------------------------------------
    1      C       0.3362970000    -3.8520730000     0.7751270000
    2      C       0.3225200000    -3.6898950000    -0.6125650000
    3      C       0.2054980000    -2.3480810000    -1.0666390000
    4      H       0.3970570000    -4.5437770000    -1.3029000000
    5      C       0.1255620000    -1.4351820000     0.0000000000
    6      S       0.1993310000    -2.2782540000     1.5444830000
    7      C       0.1727530000    -1.9711880000    -2.5218720000
    8      H       0.2511140000    -2.8677040000    -3.1669490000
    9      H       1.0093800000    -1.2929620000    -2.7908210000
   10      H      -0.7687080000    -1.4482360000    -2.7910230000
   11      C       0.0000000000     0.0000000000     0.0000000000
   12      C       0.3650030000     0.7826740000     1.0994460000
   13      C       0.9498850000     2.0369120000     0.7767210000
   14      H       0.2091350000     0.4484310000     2.1360880000
   15      C       1.0431590000     2.2368860000    -0.6125460000
   16      S       0.3982970000     0.8540940000    -1.4868090000
   17      C       1.4096090000     3.0227380000     1.8146090000
   18      H       1.2297260000     2.6369800000     2.8366760000
   19      H       0.8773460000     3.9928700000     1.7262390000
   20      H       2.4949100000     3.2385580000     1.7262280000
   21      H       1.4443340000     3.0971600000    -1.1615750000
   22      H       1.2761190000    -4.2978460000     1.1194110000
   23      H      -0.5121350000    -4.4539310000     1.1192770000
   24      H       1.2014760000    -1.3413260000     0.0001150000
 ----------------------------------------------------------------

   10   -1180.7410599898      4.98e-07  Convergence criterion met
 Total energy in the final basis set =    -1180.7410599898
        RIMP2         total energy =     -1182.7520204240 a.u.

                    Orbital Energies (a.u.)
 --------------------------------------------------------------

 Alpha MOs
 -- Occupied --
-91.9793 -91.9451 -11.2865 -11.2639 -11.2618 -11.2575 -11.2505 -11.2433
-11.2325 -11.2312 -11.2278 -11.2219  -8.9799  -8.9497  -6.6608  -6.6602
 -6.6595  -6.6311  -6.6301  -6.6288  -1.2045  -1.1525  -1.0612  -1.0284
 -1.0064  -0.9557  -0.9156  -0.9024  -0.8120  -0.7730  -0.7178  -0.7031
 -0.6616  -0.6481  -0.6118  -0.5900  -0.5831  -0.5719  -0.5690  -0.5535
 -0.5422  -0.5344  -0.5164  -0.5125  -0.4895  -0.4770  -0.4565  -0.4428
 -0.3583  -0.3414  -0.3273  -0.2632

          Ground-State Mulliken Net Atomic Charges

     Atom                 Charge (a.u.)
  ----------------------------------------
      1 C                    -0.074780
      2 C                    -0.315807
      3 C                    -0.055097
      4 H                     0.178186
      5 C                     0.111650
      6 S                    -0.194100
      7 C                    -0.305784
      8 H                     0.118496
      9 H                     0.110980
     10 H                     0.116964
     11 C                     0.009514
     12 C                    -0.325195
     13 C                     0.053292
     14 H                     0.177512
     15 C                    -0.277639
     16 S                     0.008304
     17 C                    -0.269688
     18 H                     0.102998
     19 H                     0.108684
     20 H                     0.107804
     21 H                     0.196589
     22 H                     0.111577
     23 H                     0.112971
     24 H                     0.192572
  ----------------------------------------
  Sum of atomic charges =     0.000000

                    Cartesian Multipole Moments
 -----------------------------------------------------------------
    Charge (ESU x 10^10)
                -0.0000
    Dipole Moment (Debye)
         X       1.6778      Y      -0.2625      Z      -1.0736
       Tot       2.0091
    Quadrupole Moments (Debye-Ang)
        XX     -89.5773     XY       1.7004     YY     -75.4949
        XZ       0.4180     YZ       4.4991     ZZ     -85.5224

 Total job time:  56.81s(wall), 1946.01s(cpu)
        *  Thank you very much for using Q-Chem.  Have a nice day.  *
