 Q-Chem 5.4, Q-Chem, Inc., Pleasanton, CA (2021)
 Q-Chem 5.4.0 for Intel X86 EM64T Linux

User input:
--------------------------------------------------------------
$molecule
0 1
C	0.336297	-3.852073	0.775127
C	0.322520	-3.689895	-0.612565
C	0.205498	-2.348081	-1.066639
H	0.397057	-4.543777	-1.302900
C	0.125562	-1.435182	0.000000
S	0.199331	-2.278254	1.544483
C	0.172753	-1.971188	-2.521872
H	0.251114	-2.867704	-3.166949
H	1.009380	-1.292962	-2.790821
H	-0.768708	-1.448236	-2.791023
C	0.000000	0.000000	0.000000
C	0.223548	0.834165	1.099446
C	0.581748	2.170912	0.776721
H	0.128089	0.477934	2.136088
C	0.638880	2.384045	-0.612546
S	0.243934	0.910282	-1.486809
C	0.863301	3.221592	1.814609
H	0.753137	2.810458	2.836676
H	0.170663	4.084559	1.726239
H	1.894637	3.622593	1.726228
H	0.884575	3.300913	-1.161575
H	1.276119	-4.297846	1.119411
H	-0.512135	-4.453931	1.119277
H	1.201476	-1.341326	0.000115
$end

$rem
JOBTYPE		SP
EXCHANGE	HF
CORRELATION	pRIMP2
BASIS		cc-pvtz
METHOD		rimp2
AUX_BASIS	rimp2-cc-pvtz
SOLVENT_METHOD	PCM
PURECART	11111
SYMMETRY	false
MEM_TOTAL	110000
SCF_CONVERGENCE = 6
THRESH=10
GUI = 2
$end

$solvent
dielectric 4.90
$end
--------------------------------------------------------------

             Standard Nuclear Orientation (Angstroms)
    I     Atom           X                Y                Z
 ----------------------------------------------------------------
    1      C       0.3362970000    -3.8520730000     0.7751270000
    2      C       0.3225200000    -3.6898950000    -0.6125650000
    3      C       0.2054980000    -2.3480810000    -1.0666390000
    4      H       0.3970570000    -4.5437770000    -1.3029000000
    5      C       0.1255620000    -1.4351820000     0.0000000000
    6      S       0.1993310000    -2.2782540000     1.5444830000
    7      C       0.1727530000    -1.9711880000    -2.5218720000
    8      H       0.2511140000    -2.8677040000    -3.1669490000
    9      H       1.0093800000    -1.2929620000    -2.7908210000
   10      H      -0.7687080000    -1.4482360000    -2.7910230000
   11      C       0.0000000000     0.0000000000     0.0000000000
   12      C       0.2235480000     0.8341650000     1.0994460000
   13      C       0.5817480000     2.1709120000     0.7767210000
   14      H       0.1280890000     0.4779340000     2.1360880000
   15      C       0.6388800000     2.3840450000    -0.6125460000
   16      S       0.2439340000     0.9102820000    -1.4868090000
   17      C       0.8633010000     3.2215920000     1.8146090000
   18      H       0.7531370000     2.8104580000     2.8366760000
   19      H       0.1706630000     4.0845590000     1.7262390000
   20      H       1.8946370000     3.6225930000     1.7262280000
   21      H       0.8845750000     3.3009130000    -1.1615750000
   22      H       1.2761190000    -4.2978460000     1.1194110000
   23      H      -0.5121350000    -4.4539310000     1.1192770000
   24      H       1.2014760000    -1.3413260000     0.0001150000
 ----------------------------------------------------------------

   10   -1180.7523076533      4.90e-07  Convergence criterion met
 Total energy in the final basis set =    -1180.7523076533
        RIMP2         total energy =     -1182.7598708111 a.u.

                    Orbital Energies (a.u.)
 --------------------------------------------------------------

 Alpha MOs
 -- Occupied --
-91.9804 -91.9463 -11.2897 -11.2652 -11.2629 -11.2542 -11.2501 -11.2441
-11.2323 -11.2305 -11.2275 -11.2230  -8.9807  -8.9508  -6.6616  -6.6610
 -6.6603  -6.6322  -6.6312  -6.6299  -1.2039  -1.1523  -1.0613  -1.0288
 -1.0065  -0.9559  -0.9164  -0.9019  -0.8137  -0.7728  -0.7172  -0.7037
 -0.6617  -0.6488  -0.6115  -0.5910  -0.5828  -0.5716  -0.5686  -0.5540
 -0.5425  -0.5344  -0.5165  -0.5107  -0.4896  -0.4816  -0.4574  -0.4443
 -0.3589  -0.3418  -0.3272  -0.2642

          Ground-State Mulliken Net Atomic Charges

     Atom                 Charge (a.u.)
  ----------------------------------------
      1 C                    -0.074700
      2 C                    -0.313659
      3 C                    -0.056731
      4 H                     0.178753
      5 C                     0.120171
      6 S                    -0.189962
      7 C                    -0.309629
      8 H                     0.120756
      9 H                     0.110709
     10 H                     0.116890
     11 C                     0.014991
     12 C                    -0.338100
     13 C                     0.056468
     14 H                     0.176416
     15 C                    -0.285660
     16 S                     0.007640
     17 C                    -0.270553
     18 H                     0.102732
     19 H                     0.108522
     20 H                     0.108335
     21 H                     0.196248
     22 H                     0.111944
     23 H                     0.113196
     24 H                     0.195224
  ----------------------------------------
  Sum of atomic charges =     0.000000

                    Cartesian Multipole Moments
 -----------------------------------------------------------------
    Charge (ESU x 10^10)
                -0.0000
    Dipole Moment (Debye)
         X       1.3983      Y      -0.4141      Z      -1.0874
       Tot       1.8191
    Quadrupole Moments (Debye-Ang)
        XX     -90.7418     XY       0.2487     YY     -74.1089
        XZ       0.2755     YZ       4.6346     ZZ     -85.5445

 Total job time:  57.97s(wall), 2004.39s(cpu)
        *  Thank you very much for using Q-Chem.  Have a nice day.  *
