 Q-Chem 5.4, Q-Chem, Inc., Pleasanton, CA (2021)
 Q-Chem 5.4.0 for Intel X86 EM64T Linux

User input:
--------------------------------------------------------------
$molecule
0 1
C	0.336297	-3.852073	0.775127
C	0.322520	-3.689895	-0.612565
C	0.205498	-2.348081	-1.066639
H	0.397057	-4.543777	-1.302900
C	0.125562	-1.435182	0.000000
S	0.199331	-2.278254	1.544483
C	0.172753	-1.971188	-2.521872
H	0.251114	-2.867704	-3.166949
H	1.009380	-1.292962	-2.790821
H	-0.768708	-1.448236	-2.791023
C	0.000000	0.000000	0.000000
C	0.075300	0.860311	1.099446
C	0.195935	2.238951	0.776721
H	0.043151	0.492916	2.136088
C	0.215188	2.458766	-0.612546
S	0.082160	0.938811	-1.486809
C	0.290762	3.322559	1.814609
H	0.253664	2.898542	2.836676
H	-0.541206	4.052140	1.726239
H	1.236797	3.896558	1.726228
H	0.297938	3.404370	-1.161575
H	1.276119	-4.297846	1.119411
H	-0.512135	-4.453931	1.119277
H	1.201476	-1.341326	0.000115
$end

$rem
JOBTYPE		SP
EXCHANGE	HF
CORRELATION	pRIMP2
BASIS		cc-pvtz
METHOD		rimp2
AUX_BASIS	rimp2-cc-pvtz
SOLVENT_METHOD	PCM
PURECART	11111
SYMMETRY	false
MEM_TOTAL	110000
SCF_CONVERGENCE = 6
THRESH=10
GUI = 2
$end

$solvent
dielectric 4.90
$end
--------------------------------------------------------------

             Standard Nuclear Orientation (Angstroms)
    I     Atom           X                Y                Z
 ----------------------------------------------------------------
    1      C       0.3362970000    -3.8520730000     0.7751270000
    2      C       0.3225200000    -3.6898950000    -0.6125650000
    3      C       0.2054980000    -2.3480810000    -1.0666390000
    4      H       0.3970570000    -4.5437770000    -1.3029000000
    5      C       0.1255620000    -1.4351820000     0.0000000000
    6      S       0.1993310000    -2.2782540000     1.5444830000
    7      C       0.1727530000    -1.9711880000    -2.5218720000
    8      H       0.2511140000    -2.8677040000    -3.1669490000
    9      H       1.0093800000    -1.2929620000    -2.7908210000
   10      H      -0.7687080000    -1.4482360000    -2.7910230000
   11      C       0.0000000000     0.0000000000     0.0000000000
   12      C       0.0753000000     0.8603110000     1.0994460000
   13      C       0.1959350000     2.2389510000     0.7767210000
   14      H       0.0431510000     0.4929160000     2.1360880000
   15      C       0.2151880000     2.4587660000    -0.6125460000
   16      S       0.0821600000     0.9388110000    -1.4868090000
   17      C       0.2907620000     3.3225590000     1.8146090000
   18      H       0.2536640000     2.8985420000     2.8366760000
   19      H      -0.5412060000     4.0521400000     1.7262390000
   20      H       1.2367970000     3.8965580000     1.7262280000
   21      H       0.2979380000     3.4043700000    -1.1615750000
   22      H       1.2761190000    -4.2978460000     1.1194110000
   23      H      -0.5121350000    -4.4539310000     1.1192770000
   24      H       1.2014760000    -1.3413260000     0.0001150000
 ----------------------------------------------------------------

   10   -1180.7581795407      5.06e-07  Convergence criterion met
 Total energy in the final basis set =    -1180.7581795407
        RIMP2         total energy =     -1182.7639308875 a.u.

                    Orbital Energies (a.u.)
 --------------------------------------------------------------

 Alpha MOs
 -- Occupied --
-91.9811 -91.9470 -11.2913 -11.2661 -11.2632 -11.2526 -11.2498 -11.2446
-11.2329 -11.2296 -11.2274 -11.2236  -8.9812  -8.9515  -6.6622  -6.6616
 -6.6609  -6.6329  -6.6319  -6.6306  -1.2035  -1.1522  -1.0614  -1.0290
 -1.0067  -0.9561  -0.9168  -0.9017  -0.8149  -0.7728  -0.7169  -0.7042
 -0.6614  -0.6491  -0.6113  -0.5918  -0.5826  -0.5715  -0.5683  -0.5542
 -0.5426  -0.5345  -0.5165  -0.5096  -0.4892  -0.4847  -0.4579  -0.4452
 -0.3594  -0.3419  -0.3271  -0.2648

          Ground-State Mulliken Net Atomic Charges

     Atom                 Charge (a.u.)
  ----------------------------------------
      1 C                    -0.074079
      2 C                    -0.314121
      3 C                    -0.057151
      4 H                     0.179289
      5 C                     0.137333
      6 S                    -0.187340
      7 C                    -0.311757
      8 H                     0.122323
      9 H                     0.110640
     10 H                     0.116582
     11 C                    -0.002832
     12 C                    -0.331063
     13 C                     0.050961
     14 H                     0.176283
     15 C                    -0.286388
     16 S                     0.007146
     17 C                    -0.271646
     18 H                     0.102643
     19 H                     0.108309
     20 H                     0.108572
     21 H                     0.196280
     22 H                     0.111917
     23 H                     0.113343
     24 H                     0.194759
  ----------------------------------------
  Sum of atomic charges =     0.000000

                    Cartesian Multipole Moments
 -----------------------------------------------------------------
    Charge (ESU x 10^10)
                -0.0000
    Dipole Moment (Debye)
         X       1.1598      Y      -0.4925      Z      -1.0950
       Tot       1.6693
    Quadrupole Moments (Debye-Ang)
        XX     -91.3648     XY      -1.3977     YY     -73.3639
        XZ       0.0960     YZ       4.7107     ZZ     -85.5405

 Total job time:  56.05s(wall), 1911.83s(cpu)
        *  Thank you very much for using Q-Chem.  Have a nice day.  *
