 Q-Chem 5.4, Q-Chem, Inc., Pleasanton, CA (2021)
 Q-Chem 5.4.0 for Intel X86 EM64T Linux

User input:
--------------------------------------------------------------
$molecule
0 1
C	0.253280	-6.741404	0.043160
C	1.539213	-6.155638	0.269777
C	-0.814295	-5.791452	-0.145543
C	1.813519	-4.803786	0.318377
H	2.403941	-6.821518	0.422058
C	-0.527140	-4.378638	-0.094194
C	0.783072	-3.838032	0.137191
C	-1.556403	-3.413062	-0.275104
C	1.067932	-2.426473	0.188116
C	-1.285420	-2.059348	-0.226701
C	-0.000000	-1.478216	-0.000000
H	-2.151147	-1.394783	-0.378931
C	-2.234582	-6.187987	-0.397845
C	-2.965273	-3.798164	-0.523637
N	-3.204744	-5.170003	-0.567586
C	3.226257	-4.424987	0.567421
C	2.489446	-2.036627	0.439541
N	3.459801	-3.049156	0.609650
O	-2.619468	-7.353131	-0.468608
O	-3.874668	-2.986854	-0.683034
O	4.124806	-5.248946	0.725131
O	2.895819	-0.878829	0.512648
C	-4.595691	-5.563799	-0.813908
H	-4.640022	-6.664085	-0.822891
H	-4.934830	-5.147101	-1.781600
H	-5.246157	-5.148785	-0.020360
C	4.829716	-2.587487	0.851649
H	5.462742	-3.483329	0.962191
H	4.863242	-1.964972	1.765865
H	5.173521	-1.962932	0.005383
H	0.070208	-7.822318	0.010555
C	0.000000	0.000000	0.000000
S	0.686805	0.396760	1.580530
C	2.105095	1.215640	0.904911
C	0.864201	0.499140	-0.985400
C	2.007514	1.159347	-0.493528
H	0.660136	0.381296	-2.059934
H	2.770388	1.599875	-1.152593
H	2.867745	1.656053	1.556025
$end

$rem
JOBTYPE		SP
EXCHANGE	HF
CORRELATION	pRIMP2
BASIS		cc-pvtz
METHOD		rimp2
AUX_BASIS	rimp2-cc-pvtz
SOLVENT_METHOD	PCM
PURECART	11111
SYMMETRY	false
MEM_TOTAL	110000
SCF_CONVERGENCE = 6
THRESH=10
GUI = 2
$end

$solvent
dielectric 4.90
$end
--------------------------------------------------------------

             Standard Nuclear Orientation (Angstroms)
    I     Atom           X                Y                Z
 ----------------------------------------------------------------
    1      C       0.2532800000    -6.7414040000     0.0431600000
    2      C       1.5392130000    -6.1556380000     0.2697770000
    3      C      -0.8142950000    -5.7914520000    -0.1455430000
    4      C       1.8135190000    -4.8037860000     0.3183770000
    5      H       2.4039410000    -6.8215180000     0.4220580000
    6      C      -0.5271400000    -4.3786380000    -0.0941940000
    7      C       0.7830720000    -3.8380320000     0.1371910000
    8      C      -1.5564030000    -3.4130620000    -0.2751040000
    9      C       1.0679320000    -2.4264730000     0.1881160000
   10      C      -1.2854200000    -2.0593480000    -0.2267010000
   11      C       0.0000000000    -1.4782160000     0.0000000000
   12      H      -2.1511470000    -1.3947830000    -0.3789310000
   13      C      -2.2345820000    -6.1879870000    -0.3978450000
   14      C      -2.9652730000    -3.7981640000    -0.5236370000
   15      N      -3.2047440000    -5.1700030000    -0.5675860000
   16      C       3.2262570000    -4.4249870000     0.5674210000
   17      C       2.4894460000    -2.0366270000     0.4395410000
   18      N       3.4598010000    -3.0491560000     0.6096500000
   19      O      -2.6194680000    -7.3531310000    -0.4686080000
   20      O      -3.8746680000    -2.9868540000    -0.6830340000
   21      O       4.1248060000    -5.2489460000     0.7251310000
   22      O       2.8958190000    -0.8788290000     0.5126480000
   23      C      -4.5956910000    -5.5637990000    -0.8139080000
   24      H      -4.6400220000    -6.6640850000    -0.8228910000
   25      H      -4.9348300000    -5.1471010000    -1.7816000000
   26      H      -5.2461570000    -5.1487850000    -0.0203600000
   27      C       4.8297160000    -2.5874870000     0.8516490000
   28      H       5.4627420000    -3.4833290000     0.9621910000
   29      H       4.8632420000    -1.9649720000     1.7658650000
   30      H       5.1735210000    -1.9629320000     0.0053830000
   31      H       0.0702080000    -7.8223180000     0.0105550000
   32      C       0.0000000000     0.0000000000     0.0000000000
   33      S       0.6868050000     0.3967600000     1.5805300000
   34      C       2.1050950000     1.2156400000     0.9049110000
   35      C       0.8642010000     0.4991400000    -0.9854000000
   36      C       2.0075140000     1.1593470000    -0.4935280000
   37      H       0.6601360000     0.3812960000    -2.0599340000
   38      H       2.7703880000     1.5998750000    -1.1525930000
   39      H       2.8677450000     1.6560530000     1.5560250000
 ----------------------------------------------------------------

   11   -1570.5882895806      6.59e-07  Convergence criterion met
 Total energy in the final basis set =    -1570.5882895806
        RIMP2         total energy =     -1575.2380987641 a.u.

                    Orbital Energies (a.u.)
 --------------------------------------------------------------

 Alpha MOs
 -- Occupied --
-91.9807 -20.5572 -20.5541 -20.5522 -20.5475 -15.6294 -15.6283 -11.3985
-11.3907 -11.3898 -11.3879 -11.3110 -11.3035 -11.3005 -11.2972 -11.2934
-11.2934 -11.2928 -11.2821 -11.2812 -11.2778 -11.2730 -11.2662 -11.2648
-11.2634 -11.2497 -11.2377  -8.9813  -6.6620  -6.6612  -6.6609  -1.4239
 -1.4231  -1.4028  -1.4024  -1.2658  -1.2638  -1.2145  -1.1795  -1.1395
 -1.1130  -1.0591  -1.0454  -0.9915  -0.9870  -0.9837  -0.9575  -0.9488
 -0.8955  -0.8771  -0.8678  -0.8569  -0.7896  -0.7758  -0.7710  -0.7595
 -0.7342  -0.7167  -0.7040  -0.6943  -0.6814  -0.6695  -0.6648  -0.6609
 -0.6546  -0.6472  -0.6365  -0.6344  -0.6263  -0.6095  -0.5853  -0.5826
 -0.5770  -0.5730  -0.5669  -0.5630  -0.5553  -0.5532  -0.5513  -0.5475
 -0.5394  -0.5244  -0.5171  -0.4944  -0.4772  -0.4688  -0.4614  -0.4569
 -0.4533  -0.4267  -0.4221  -0.4178  -0.4074  -0.3590  -0.3366  -0.3229
 -0.3142

          Ground-State Mulliken Net Atomic Charges

     Atom                 Charge (a.u.)
  ----------------------------------------
      1 C                    -0.143735
      2 C                    -0.111162
      3 C                    -0.036807
      4 C                     0.003618
      5 H                     0.186977
      6 C                    -0.009668
      7 C                     0.066189
      8 C                     0.007909
      9 C                    -0.064527
     10 C                    -0.135705
     11 C                     0.082870
     12 H                     0.180244
     13 C                     0.359885
     14 C                     0.364646
     15 N                    -0.101281
     16 C                     0.352149
     17 C                     0.392453
     18 N                    -0.092877
     19 O                    -0.465555
     20 O                    -0.476422
     21 O                    -0.485970
     22 O                    -0.462723
     23 C                    -0.201663
     24 H                     0.140635
     25 H                     0.111863
     26 H                     0.112201
     27 C                    -0.196880
     28 H                     0.135043
     29 H                     0.110648
     30 H                     0.110526
     31 H                     0.212516
     32 C                    -0.176126
     33 S                     0.011609
     34 C                    -0.053658
     35 C                    -0.108439
     36 C                    -0.197795
     37 H                     0.191279
     38 H                     0.180222
     39 H                     0.207511
  ----------------------------------------
  Sum of atomic charges =     0.000000

                    Cartesian Multipole Moments
 -----------------------------------------------------------------
    Charge (ESU x 10^10)
                 0.0000
    Dipole Moment (Debye)
         X       3.7787      Y       1.3802      Z      -0.7555
       Tot       4.0932
    Quadrupole Moments (Debye-Ang)
        XX    -173.4108     XY       5.7646     YY    -180.4126
        XZ      -1.7349     YZ       0.5386     ZZ    -157.7663

 Total job time:  297.90s(wall), 8337.27s(cpu)
        *  Thank you very much for using Q-Chem.  Have a nice day.  *
