 Q-Chem 5.4, Q-Chem, Inc., Pleasanton, CA (2021)
 Q-Chem 5.4.0 for Intel X86 EM64T Linux

User input:
--------------------------------------------------------------
$molecule
0 1
C	0.240927	-6.741404	-0.089263
C	1.467886	-6.155638	-0.535973
C	-0.777972	-5.791452	0.281103
C	1.729742	-4.803786	-0.631036
H	2.292903	-6.821518	-0.836458
C	-0.503614	-4.378638	0.181995
C	0.746756	-3.838032	-0.272725
C	-1.485437	-3.413062	0.539954
C	1.018915	-2.426473	-0.371053
C	-1.226557	-2.059348	0.446381
C	0.000000	-1.478216	0.000000
H	-2.052413	-1.394783	0.747410
C	-2.134128	-6.187987	0.772747
C	-2.829820	-3.798164	1.029154
N	-3.059182	-5.170003	1.110828
C	3.077731	-4.424987	-1.121728
C	2.375694	-2.036627	-0.864069
N	3.301101	-3.049156	-1.201928
O	-2.502830	-7.353131	0.903908
O	-3.697078	-2.986854	1.345809
O	3.934752	-5.248946	-1.434422
O	2.764177	-0.878829	-1.003943
C	-4.386939	-5.563799	1.592981
H	-4.429822	-6.664085	1.607367
H	-5.164489	-5.147101	0.924504
H	-4.553486	-5.148785	2.605446
C	4.608481	-2.587487	-1.677308
H	5.211969	-3.483329	-1.898089
H	5.094624	-1.964972	-0.902337
H	4.483092	-1.962932	-2.582098
H	0.066080	-7.822318	-0.025963
C	0.000000	0.000000	0.000000
S	0.396411	0.687007	1.580530
C	1.215245	2.105322	0.904911
C	0.498850	0.864369	-0.985400
C	1.158885	2.007781	-0.493528
H	0.381046	0.660280	-2.059934
H	1.599289	2.770727	-1.152593
H	1.655514	2.868056	1.556025
$end

$rem
JOBTYPE		SP
EXCHANGE	HF
CORRELATION	pRIMP2
BASIS		cc-pvtz
METHOD		rimp2
AUX_BASIS	rimp2-cc-pvtz
SOLVENT_METHOD	PCM
PURECART	11111
SYMMETRY	false
MEM_TOTAL	110000
SCF_CONVERGENCE = 6
THRESH=10
GUI = 2
$end

$solvent
dielectric 4.90
$end
--------------------------------------------------------------

             Standard Nuclear Orientation (Angstroms)
    I     Atom           X                Y                Z
 ----------------------------------------------------------------
    1      C       0.2409270000    -6.7414040000    -0.0892630000
    2      C       1.4678860000    -6.1556380000    -0.5359730000
    3      C      -0.7779720000    -5.7914520000     0.2811030000
    4      C       1.7297420000    -4.8037860000    -0.6310360000
    5      H       2.2929030000    -6.8215180000    -0.8364580000
    6      C      -0.5036140000    -4.3786380000     0.1819950000
    7      C       0.7467560000    -3.8380320000    -0.2727250000
    8      C      -1.4854370000    -3.4130620000     0.5399540000
    9      C       1.0189150000    -2.4264730000    -0.3710530000
   10      C      -1.2265570000    -2.0593480000     0.4463810000
   11      C       0.0000000000    -1.4782160000     0.0000000000
   12      H      -2.0524130000    -1.3947830000     0.7474100000
   13      C      -2.1341280000    -6.1879870000     0.7727470000
   14      C      -2.8298200000    -3.7981640000     1.0291540000
   15      N      -3.0591820000    -5.1700030000     1.1108280000
   16      C       3.0777310000    -4.4249870000    -1.1217280000
   17      C       2.3756940000    -2.0366270000    -0.8640690000
   18      N       3.3011010000    -3.0491560000    -1.2019280000
   19      O      -2.5028300000    -7.3531310000     0.9039080000
   20      O      -3.6970780000    -2.9868540000     1.3458090000
   21      O       3.9347520000    -5.2489460000    -1.4344220000
   22      O       2.7641770000    -0.8788290000    -1.0039430000
   23      C      -4.3869390000    -5.5637990000     1.5929810000
   24      H      -4.4298220000    -6.6640850000     1.6073670000
   25      H      -5.1644890000    -5.1471010000     0.9245040000
   26      H      -4.5534860000    -5.1487850000     2.6054460000
   27      C       4.6084810000    -2.5874870000    -1.6773080000
   28      H       5.2119690000    -3.4833290000    -1.8980890000
   29      H       5.0946240000    -1.9649720000    -0.9023370000
   30      H       4.4830920000    -1.9629320000    -2.5820980000
   31      H       0.0660800000    -7.8223180000    -0.0259630000
   32      C       0.0000000000     0.0000000000     0.0000000000
   33      S       0.3964110000     0.6870070000     1.5805300000
   34      C       1.2152450000     2.1053220000     0.9049110000
   35      C       0.4988500000     0.8643690000    -0.9854000000
   36      C       1.1588850000     2.0077810000    -0.4935280000
   37      H       0.3810460000     0.6602800000    -2.0599340000
   38      H       1.5992890000     2.7707270000    -1.1525930000
   39      H       1.6555140000     2.8680560000     1.5560250000
 ----------------------------------------------------------------

   10   -1570.6730365483      8.59e-07  Convergence criterion met
 Total energy in the final basis set =    -1570.6730365483
        RIMP2         total energy =     -1575.3015579454 a.u.

                    Orbital Energies (a.u.)
 --------------------------------------------------------------

 Alpha MOs
 -- Occupied --
-91.9918 -20.5582 -20.5555 -20.5546 -20.5538 -15.6307 -15.6301 -11.3997
-11.3952 -11.3921 -11.3897 -11.3136 -11.3033 -11.3023 -11.3000 -11.2974
-11.2972 -11.2885 -11.2855 -11.2846 -11.2799 -11.2788 -11.2748 -11.2646
-11.2642 -11.2598 -11.2490  -8.9911  -6.6719  -6.6714  -6.6708  -1.4244
 -1.4231  -1.4036  -1.4022  -1.2669  -1.2646  -1.2166  -1.1751  -1.1432
 -1.1165  -1.0617  -1.0489  -0.9925  -0.9886  -0.9839  -0.9587  -0.9481
 -0.8961  -0.8790  -0.8751  -0.8606  -0.7938  -0.7762  -0.7724  -0.7597
 -0.7365  -0.7177  -0.7048  -0.6944  -0.6797  -0.6713  -0.6658  -0.6617
 -0.6562  -0.6420  -0.6367  -0.6336  -0.6287  -0.6118  -0.5853  -0.5839
 -0.5765  -0.5744  -0.5654  -0.5633  -0.5596  -0.5547  -0.5517  -0.5483
 -0.5358  -0.5261  -0.5199  -0.5113  -0.4822  -0.4706  -0.4645  -0.4599
 -0.4576  -0.4521  -0.4275  -0.4177  -0.4082  -0.3590  -0.3478  -0.3337
 -0.3171

          Ground-State Mulliken Net Atomic Charges

     Atom                 Charge (a.u.)
  ----------------------------------------
      1 C                    -0.134435
      2 C                    -0.107495
      3 C                    -0.042122
      4 C                    -0.002199
      5 H                     0.188356
      6 C                    -0.013115
      7 C                     0.074888
      8 C                     0.026707
      9 C                    -0.003148
     10 C                    -0.173864
     11 C                     0.092598
     12 H                     0.181663
     13 C                     0.361173
     14 C                     0.366218
     15 N                    -0.101450
     16 C                     0.358572
     17 C                     0.369011
     18 N                    -0.094540
     19 O                    -0.465147
     20 O                    -0.476259
     21 O                    -0.481093
     22 O                    -0.460295
     23 C                    -0.201127
     24 H                     0.140874
     25 H                     0.112316
     26 H                     0.112403
     27 C                    -0.196527
     28 H                     0.133803
     29 H                     0.113242
     30 H                     0.111761
     31 H                     0.213920
     32 C                    -0.090617
     33 S                     0.032816
     34 C                    -0.197130
     35 C                    -0.154261
     36 C                    -0.182903
     37 H                     0.185343
     38 H                     0.188676
     39 H                     0.213387
  ----------------------------------------
  Sum of atomic charges =     0.000000

                    Cartesian Multipole Moments
 -----------------------------------------------------------------
    Charge (ESU x 10^10)
                 0.0000
    Dipole Moment (Debye)
         X       1.4094      Y       1.3368      Z      -1.0841
       Tot       2.2246
    Quadrupole Moments (Debye-Ang)
        XX    -179.4572     XY       4.5611     YY    -168.6038
        XZ       7.0289     YZ       0.9348     ZZ    -159.8000

 Total job time:  263.88s(wall), 8041.81s(cpu)
        *  Thank you very much for using Q-Chem.  Have a nice day.  *
