 Q-Chem 5.4, Q-Chem, Inc., Pleasanton, CA (2021)
 Q-Chem 5.4.0 for Intel X86 EM64T Linux

User input:
--------------------------------------------------------------
$molecule
0 1
C	0.046070	-6.741404	0.252767
C	0.272935	-6.155638	1.538656
C	-0.141739	-5.791452	-0.814966
C	0.321083	-4.803786	1.813042
H	0.425592	-6.821518	2.403318
C	-0.091779	-4.378638	-0.527566
C	0.138909	-3.838032	0.782769
C	-0.273808	-3.413062	-1.556632
C	0.188483	-2.426473	1.067868
C	-0.226610	-2.059348	-1.285436
C	-0.000000	-1.478216	-0.000000
H	-0.379657	-1.394783	-2.151019
C	-0.390420	-6.187987	-2.235891
C	-0.522125	-3.798164	-2.965540
N	-0.562731	-5.170003	-3.205600
C	0.570244	-4.424987	3.225760
C	0.438407	-2.036627	2.489646
N	0.610438	-3.049156	3.459662
O	-0.455563	-7.353131	-2.621768
O	-0.683373	-2.986854	-3.874608
O	0.729367	-5.248946	4.124059
O	0.508697	-0.878829	2.896516
C	-0.806996	-5.563799	-4.596910
H	-0.813717	-6.664085	-4.641640
H	-0.013655	-5.147101	-5.246567
H	-1.775159	-5.148785	-4.936739
C	0.851572	-2.587487	4.829729
H	0.964204	-3.483329	5.462387
H	0.003956	-1.964972	5.173914
H	1.764390	-1.962932	4.863360
H	0.014094	-7.822318	0.069584
C	0.000000	0.000000	0.000000
S	0.607475	0.509994	1.580530
C	1.862020	1.562717	0.904911
C	0.764397	0.641624	-0.985400
C	1.775697	1.490335	-0.493528
H	0.583895	0.490135	-2.059934
H	2.450484	2.056643	-1.152593
H	2.536607	2.128872	1.556025
$end

$rem
JOBTYPE		SP
EXCHANGE	HF
CORRELATION	pRIMP2
BASIS		cc-pvtz
METHOD		rimp2
AUX_BASIS	rimp2-cc-pvtz
SOLVENT_METHOD	PCM
PURECART	11111
SYMMETRY	false
MEM_TOTAL	110000
SCF_CONVERGENCE = 6
THRESH=10
GUI = 2
$end

$solvent
dielectric 4.90
$end
--------------------------------------------------------------

             Standard Nuclear Orientation (Angstroms)
    I     Atom           X                Y                Z
 ----------------------------------------------------------------
    1      C       0.0460700000    -6.7414040000     0.2527670000
    2      C       0.2729350000    -6.1556380000     1.5386560000
    3      C      -0.1417390000    -5.7914520000    -0.8149660000
    4      C       0.3210830000    -4.8037860000     1.8130420000
    5      H       0.4255920000    -6.8215180000     2.4033180000
    6      C      -0.0917790000    -4.3786380000    -0.5275660000
    7      C       0.1389090000    -3.8380320000     0.7827690000
    8      C      -0.2738080000    -3.4130620000    -1.5566320000
    9      C       0.1884830000    -2.4264730000     1.0678680000
   10      C      -0.2266100000    -2.0593480000    -1.2854360000
   11      C       0.0000000000    -1.4782160000     0.0000000000
   12      H      -0.3796570000    -1.3947830000    -2.1510190000
   13      C      -0.3904200000    -6.1879870000    -2.2358910000
   14      C      -0.5221250000    -3.7981640000    -2.9655400000
   15      N      -0.5627310000    -5.1700030000    -3.2056000000
   16      C       0.5702440000    -4.4249870000     3.2257600000
   17      C       0.4384070000    -2.0366270000     2.4896460000
   18      N       0.6104380000    -3.0491560000     3.4596620000
   19      O      -0.4555630000    -7.3531310000    -2.6217680000
   20      O      -0.6833730000    -2.9868540000    -3.8746080000
   21      O       0.7293670000    -5.2489460000     4.1240590000
   22      O       0.5086970000    -0.8788290000     2.8965160000
   23      C      -0.8069960000    -5.5637990000    -4.5969100000
   24      H      -0.8137170000    -6.6640850000    -4.6416400000
   25      H      -0.0136550000    -5.1471010000    -5.2465670000
   26      H      -1.7751590000    -5.1487850000    -4.9367390000
   27      C       0.8515720000    -2.5874870000     4.8297290000
   28      H       0.9642040000    -3.4833290000     5.4623870000
   29      H       0.0039560000    -1.9649720000     5.1739140000
   30      H       1.7643900000    -1.9629320000     4.8633600000
   31      H       0.0140940000    -7.8223180000     0.0695840000
   32      C       0.0000000000     0.0000000000     0.0000000000
   33      S       0.6074750000     0.5099940000     1.5805300000
   34      C       1.8620200000     1.5627170000     0.9049110000
   35      C       0.7643970000     0.6416240000    -0.9854000000
   36      C       1.7756970000     1.4903350000    -0.4935280000
   37      H       0.5838950000     0.4901350000    -2.0599340000
   38      H       2.4504840000     2.0566430000    -1.1525930000
   39      H       2.5366070000     2.1288720000     1.5560250000
 ----------------------------------------------------------------

   11   -1570.5393657462      8.09e-07  Convergence criterion met
 Total energy in the final basis set =    -1570.5393657462
        RIMP2         total energy =     -1575.2033792069 a.u.

                    Orbital Energies (a.u.)
 --------------------------------------------------------------

 Alpha MOs
 -- Occupied --
-91.9899 -20.5731 -20.5588 -20.5566 -20.5539 -15.6366 -15.6311 -11.4081
-11.3996 -11.3920 -11.3907 -11.3242 -11.3015 -11.3002 -11.2905 -11.2897
-11.2882 -11.2872 -11.2797 -11.2773 -11.2744 -11.2717 -11.2710 -11.2680
-11.2645 -11.2603 -11.2376  -8.9889  -6.6695  -6.6672  -6.6657  -1.4579
 -1.4249  -1.4109  -1.4043  -1.2761  -1.2665  -1.2164  -1.1772  -1.1396
 -1.1147  -1.0592  -1.0484  -0.9968  -0.9937  -0.9841  -0.9601  -0.9458
 -0.9005  -0.8806  -0.8753  -0.8641  -0.7937  -0.7842  -0.7786  -0.7590
 -0.7423  -0.7295  -0.7022  -0.6930  -0.6895  -0.6745  -0.6735  -0.6638
 -0.6580  -0.6438  -0.6382  -0.6369  -0.6262  -0.6154  -0.5946  -0.5853
 -0.5821  -0.5784  -0.5719  -0.5651  -0.5610  -0.5584  -0.5572  -0.5498
 -0.5344  -0.5318  -0.5222  -0.5144  -0.4883  -0.4742  -0.4640  -0.4596
 -0.4557  -0.4373  -0.4209  -0.4091  -0.3888  -0.3730  -0.3384  -0.2942
 -0.2879

          Ground-State Mulliken Net Atomic Charges

     Atom                 Charge (a.u.)
  ----------------------------------------
      1 C                    -0.164589
      2 C                    -0.109445
      3 C                    -0.019338
      4 C                    -0.008705
      5 H                     0.186851
      6 C                    -0.010626
      7 C                     0.090456
      8 C                     0.003310
      9 C                    -0.148971
     10 C                    -0.136979
     11 C                     0.100451
     12 H                     0.181284
     13 C                     0.360152
     14 C                     0.362782
     15 N                    -0.101686
     16 C                     0.358352
     17 C                     0.400882
     18 N                    -0.086187
     19 O                    -0.462942
     20 O                    -0.476450
     21 O                    -0.483269
     22 O                    -0.382741
     23 C                    -0.201295
     24 H                     0.141182
     25 H                     0.112219
     26 H                     0.112350
     27 C                    -0.199585
     28 H                     0.136486
     29 H                     0.114291
     30 H                     0.113985
     31 H                     0.210377
     32 C                    -0.094222
     33 S                     0.138607
     34 C                    -0.228861
     35 C                    -0.130779
     36 C                    -0.253978
     37 H                     0.190973
     38 H                     0.181966
     39 H                     0.203694
  ----------------------------------------
  Sum of atomic charges =     0.000000

                    Cartesian Multipole Moments
 -----------------------------------------------------------------
    Charge (ESU x 10^10)
                 0.0000
    Dipole Moment (Debye)
         X       1.7838      Y       1.0246      Z       0.9304
       Tot       2.2577
    Quadrupole Moments (Debye-Ang)
        XX    -159.0517     XY       4.4644     YY    -181.2877
        XZ      -1.1154     YZ      -0.0933     ZZ    -172.4287

 Total job time:  305.14s(wall), 8784.49s(cpu)
        *  Thank you very much for using Q-Chem.  Have a nice day.  *
