 Q-Chem 5.4, Q-Chem, Inc., Pleasanton, CA (2021)
 Q-Chem 5.4.0 for Intel X86 EM64T Linux

User input:
--------------------------------------------------------------
$molecule
0 1
C	-0.197767	-6.741404	-0.164018
C	-1.198109	-6.155638	-1.003240
C	0.632428	-5.791452	0.533192
C	-1.411364	-4.803786	-1.182482
H	-1.870845	-6.821518	-1.567483
C	0.409419	-4.378638	0.345145
C	-0.609565	-3.838032	-0.510347
C	1.210332	-3.413062	1.016449
C	-0.830799	-2.426473	-0.696879
C	0.999856	-2.059348	0.839039
C	0.000000	-1.478216	0.000000
H	1.673483	-1.394783	1.403737
C	1.736282	-6.187987	1.461835
C	2.306183	-3.798164	1.936119
N	2.491597	-5.170003	2.093916
C	-2.510310	-4.424987	-2.104529
C	-1.936153	-2.036627	-1.625377
N	-2.691451	-3.049156	-2.257873
O	2.034222	-7.353131	1.715561
O	3.014044	-2.986854	2.528858
O	-3.209622	-5.248946	-2.690385
O	-2.251529	-0.878829	-1.891876
C	3.573032	-5.563799	3.002711
H	3.606932	-6.664085	3.032655
H	3.382888	-5.147101	4.010326
H	4.533125	-5.148785	2.640711
C	-3.756832	-2.587487	-3.152408
H	-4.249778	-3.483329	-3.564653
H	-3.328759	-1.964972	-3.960905
H	-4.477709	-1.962932	-2.591422
H	-0.055524	-7.822318	-0.044245
C	0.000000	0.000000	0.000000
S	0.396411	0.687007	1.580530
C	1.215245	2.105322	0.904911
C	0.498850	0.864369	-0.985400
C	1.158885	2.007781	-0.493528
H	0.381046	0.660280	-2.059934
H	1.599289	2.770727	-1.152593
H	1.655514	2.868056	1.556025
$end

$rem
JOBTYPE		SP
EXCHANGE	HF
CORRELATION	pRIMP2
BASIS		cc-pvtz
METHOD		rimp2
AUX_BASIS	rimp2-cc-pvtz
SOLVENT_METHOD	PCM
PURECART	11111
SYMMETRY	false
MEM_TOTAL	110000
SCF_CONVERGENCE = 6
THRESH=10
GUI = 2
$end

$solvent
dielectric 4.90
$end
--------------------------------------------------------------

             Standard Nuclear Orientation (Angstroms)
    I     Atom           X                Y                Z
 ----------------------------------------------------------------
    1      C      -0.1977670000    -6.7414040000    -0.1640180000
    2      C      -1.1981090000    -6.1556380000    -1.0032400000
    3      C       0.6324280000    -5.7914520000     0.5331920000
    4      C      -1.4113640000    -4.8037860000    -1.1824820000
    5      H      -1.8708450000    -6.8215180000    -1.5674830000
    6      C       0.4094190000    -4.3786380000     0.3451450000
    7      C      -0.6095650000    -3.8380320000    -0.5103470000
    8      C       1.2103320000    -3.4130620000     1.0164490000
    9      C      -0.8307990000    -2.4264730000    -0.6968790000
   10      C       0.9998560000    -2.0593480000     0.8390390000
   11      C       0.0000000000    -1.4782160000     0.0000000000
   12      H       1.6734830000    -1.3947830000     1.4037370000
   13      C       1.7362820000    -6.1879870000     1.4618350000
   14      C       2.3061830000    -3.7981640000     1.9361190000
   15      N       2.4915970000    -5.1700030000     2.0939160000
   16      C      -2.5103100000    -4.4249870000    -2.1045290000
   17      C      -1.9361530000    -2.0366270000    -1.6253770000
   18      N      -2.6914510000    -3.0491560000    -2.2578730000
   19      O       2.0342220000    -7.3531310000     1.7155610000
   20      O       3.0140440000    -2.9868540000     2.5288580000
   21      O      -3.2096220000    -5.2489460000    -2.6903850000
   22      O      -2.2515290000    -0.8788290000    -1.8918760000
   23      C       3.5730320000    -5.5637990000     3.0027110000
   24      H       3.6069320000    -6.6640850000     3.0326550000
   25      H       3.3828880000    -5.1471010000     4.0103260000
   26      H       4.5331250000    -5.1487850000     2.6407110000
   27      C      -3.7568320000    -2.5874870000    -3.1524080000
   28      H      -4.2497780000    -3.4833290000    -3.5646530000
   29      H      -3.3287590000    -1.9649720000    -3.9609050000
   30      H      -4.4777090000    -1.9629320000    -2.5914220000
   31      H      -0.0555240000    -7.8223180000    -0.0442450000
   32      C       0.0000000000     0.0000000000     0.0000000000
   33      S       0.3964110000     0.6870070000     1.5805300000
   34      C       1.2152450000     2.1053220000     0.9049110000
   35      C       0.4988500000     0.8643690000    -0.9854000000
   36      C       1.1588850000     2.0077810000    -0.4935280000
   37      H       0.3810460000     0.6602800000    -2.0599340000
   38      H       1.5992890000     2.7707270000    -1.1525930000
   39      H       1.6555140000     2.8680560000     1.5560250000
 ----------------------------------------------------------------

   10   -1570.6752168132      7.42e-07  Convergence criterion met
 Total energy in the final basis set =    -1570.6752168132
        RIMP2         total energy =     -1575.3041223024 a.u.

                    Orbital Energies (a.u.)
 --------------------------------------------------------------

 Alpha MOs
 -- Occupied --
-91.9919 -20.5583 -20.5559 -20.5555 -20.5542 -15.6310 -15.6301 -11.3998
-11.3955 -11.3918 -11.3902 -11.3171 -11.3020 -11.3010 -11.2994 -11.2964
-11.2962 -11.2902 -11.2898 -11.2854 -11.2846 -11.2795 -11.2752 -11.2644
-11.2643 -11.2636 -11.2522  -8.9919  -6.6726  -6.6721  -6.6716  -1.4246
 -1.4233  -1.4039  -1.4023  -1.2671  -1.2646  -1.2171  -1.1802  -1.1433
 -1.1164  -1.0633  -1.0490  -0.9924  -0.9910  -0.9880  -0.9586  -0.9470
 -0.8968  -0.8786  -0.8772  -0.8595  -0.7960  -0.7783  -0.7727  -0.7617
 -0.7369  -0.7172  -0.7060  -0.6949  -0.6805  -0.6734  -0.6659  -0.6618
 -0.6562  -0.6418  -0.6369  -0.6328  -0.6289  -0.6126  -0.5861  -0.5841
 -0.5796  -0.5745  -0.5670  -0.5636  -0.5610  -0.5552  -0.5526  -0.5479
 -0.5411  -0.5267  -0.5207  -0.5074  -0.4832  -0.4700  -0.4675  -0.4633
 -0.4597  -0.4529  -0.4278  -0.4180  -0.4084  -0.3680  -0.3516  -0.3354
 -0.3100

          Ground-State Mulliken Net Atomic Charges

     Atom                 Charge (a.u.)
  ----------------------------------------
      1 C                    -0.137130
      2 C                    -0.108973
      3 C                    -0.038010
      4 C                    -0.001739
      5 H                     0.188430
      6 C                     0.000123
      7 C                     0.071856
      8 C                     0.009129
      9 C                    -0.040023
     10 C                    -0.129016
     11 C                     0.045882
     12 H                     0.188911
     13 C                     0.359590
     14 C                     0.363729
     15 N                    -0.101396
     16 C                     0.358574
     17 C                     0.354250
     18 N                    -0.096520
     19 O                    -0.464945
     20 O                    -0.476676
     21 O                    -0.481561
     22 O                    -0.465102
     23 C                    -0.201243
     24 H                     0.141022
     25 H                     0.112399
     26 H                     0.112222
     27 C                    -0.196614
     28 H                     0.133617
     29 H                     0.112152
     30 H                     0.113379
     31 H                     0.213484
     32 C                    -0.022601
     33 S                     0.014247
     34 C                    -0.179819
     35 C                    -0.131658
     36 C                    -0.219707
     37 H                     0.193305
     38 H                     0.192741
     39 H                     0.213687
  ----------------------------------------
  Sum of atomic charges =     0.000000

                    Cartesian Multipole Moments
 -----------------------------------------------------------------
    Charge (ESU x 10^10)
                 0.0000
    Dipole Moment (Debye)
         X       1.4351      Y       1.4872      Z      -0.8081
       Tot       2.2191
    Quadrupole Moments (Debye-Ang)
        XX    -173.3864     XY       5.5255     YY    -169.3751
        XZ      -9.8880     YZ       1.0442     ZZ    -165.8488

 Total job time:  253.49s(wall), 8014.97s(cpu)
        *  Thank you very much for using Q-Chem.  Have a nice day.  *
