 Q-Chem 5.4, Q-Chem, Inc., Pleasanton, CA (2021)
 Q-Chem 5.4.0 for Intel X86 EM64T Linux

User input:
--------------------------------------------------------------
$molecule
0 1
C	0.252767	-6.741404	-0.046070
C	1.538656	-6.155638	-0.272935
C	-0.814966	-5.791452	0.141739
C	1.813042	-4.803786	-0.321083
H	2.403318	-6.821518	-0.425592
C	-0.527566	-4.378638	0.091779
C	0.782769	-3.838032	-0.138909
C	-1.556632	-3.413062	0.273808
C	1.067868	-2.426473	-0.188483
C	-1.285436	-2.059348	0.226610
C	-0.000000	-1.478216	-0.000000
H	-2.151019	-1.394783	0.379657
C	-2.235891	-6.187987	0.390420
C	-2.965540	-3.798164	0.522125
N	-3.205600	-5.170003	0.562731
C	3.225760	-4.424987	-0.570244
C	2.489646	-2.036627	-0.438407
N	3.459662	-3.049156	-0.610438
O	-2.621768	-7.353131	0.455563
O	-3.874608	-2.986854	0.683373
O	4.124059	-5.248946	-0.729367
O	2.896516	-0.878829	-0.508697
C	-4.596910	-5.563799	0.806996
H	-4.641640	-6.664085	0.813717
H	-5.246567	-5.147101	0.013655
H	-4.936739	-5.148785	1.775159
C	4.829729	-2.587487	-0.851572
H	5.462387	-3.483329	-0.964204
H	5.173914	-1.964972	-0.003956
H	4.863360	-1.962932	-1.764390
H	0.069584	-7.822318	-0.014094
C	0.000000	0.000000	0.000000
S	0.686805	0.396760	1.580530
C	2.105095	1.215640	0.904911
C	0.864201	0.499140	-0.985400
C	2.007514	1.159347	-0.493528
H	0.660136	0.381296	-2.059934
H	2.770388	1.599875	-1.152593
H	2.867745	1.656053	1.556025
$end

$rem
JOBTYPE		SP
EXCHANGE	HF
CORRELATION	pRIMP2
BASIS		cc-pvtz
METHOD		rimp2
AUX_BASIS	rimp2-cc-pvtz
SOLVENT_METHOD	PCM
PURECART	11111
SYMMETRY	false
MEM_TOTAL	110000
SCF_CONVERGENCE = 6
THRESH=10
GUI = 2
$end

$solvent
dielectric 4.90
$end
--------------------------------------------------------------

             Standard Nuclear Orientation (Angstroms)
    I     Atom           X                Y                Z
 ----------------------------------------------------------------
    1      C       0.2527670000    -6.7414040000    -0.0460700000
    2      C       1.5386560000    -6.1556380000    -0.2729350000
    3      C      -0.8149660000    -5.7914520000     0.1417390000
    4      C       1.8130420000    -4.8037860000    -0.3210830000
    5      H       2.4033180000    -6.8215180000    -0.4255920000
    6      C      -0.5275660000    -4.3786380000     0.0917790000
    7      C       0.7827690000    -3.8380320000    -0.1389090000
    8      C      -1.5566320000    -3.4130620000     0.2738080000
    9      C       1.0678680000    -2.4264730000    -0.1884830000
   10      C      -1.2854360000    -2.0593480000     0.2266100000
   11      C       0.0000000000    -1.4782160000     0.0000000000
   12      H      -2.1510190000    -1.3947830000     0.3796570000
   13      C      -2.2358910000    -6.1879870000     0.3904200000
   14      C      -2.9655400000    -3.7981640000     0.5221250000
   15      N      -3.2056000000    -5.1700030000     0.5627310000
   16      C       3.2257600000    -4.4249870000    -0.5702440000
   17      C       2.4896460000    -2.0366270000    -0.4384070000
   18      N       3.4596620000    -3.0491560000    -0.6104380000
   19      O      -2.6217680000    -7.3531310000     0.4555630000
   20      O      -3.8746080000    -2.9868540000     0.6833730000
   21      O       4.1240590000    -5.2489460000    -0.7293670000
   22      O       2.8965160000    -0.8788290000    -0.5086970000
   23      C      -4.5969100000    -5.5637990000     0.8069960000
   24      H      -4.6416400000    -6.6640850000     0.8137170000
   25      H      -5.2465670000    -5.1471010000     0.0136550000
   26      H      -4.9367390000    -5.1487850000     1.7751590000
   27      C       4.8297290000    -2.5874870000    -0.8515720000
   28      H       5.4623870000    -3.4833290000    -0.9642040000
   29      H       5.1739140000    -1.9649720000    -0.0039560000
   30      H       4.8633600000    -1.9629320000    -1.7643900000
   31      H       0.0695840000    -7.8223180000    -0.0140940000
   32      C       0.0000000000     0.0000000000     0.0000000000
   33      S       0.6868050000     0.3967600000     1.5805300000
   34      C       2.1050950000     1.2156400000     0.9049110000
   35      C       0.8642010000     0.4991400000    -0.9854000000
   36      C       2.0075140000     1.1593470000    -0.4935280000
   37      H       0.6601360000     0.3812960000    -2.0599340000
   38      H       2.7703880000     1.5998750000    -1.1525930000
   39      H       2.8677450000     1.6560530000     1.5560250000
 ----------------------------------------------------------------

   11   -1570.5908922338      4.83e-07  Convergence criterion met
 Total energy in the final basis set =    -1570.5908922338
        RIMP2         total energy =     -1575.2400824930 a.u.

                    Orbital Energies (a.u.)
 --------------------------------------------------------------

 Alpha MOs
 -- Occupied --
-91.9848 -20.5574 -20.5543 -20.5533 -20.5478 -15.6295 -15.6295 -11.3987
-11.3937 -11.3907 -11.3881 -11.3130 -11.3008 -11.2978 -11.2938 -11.2935
-11.2930 -11.2890 -11.2823 -11.2818 -11.2782 -11.2713 -11.2670 -11.2652
-11.2635 -11.2538 -11.2469  -8.9849  -6.6657  -6.6649  -6.6645  -1.4249
 -1.4233  -1.4037  -1.4026  -1.2665  -1.2644  -1.2151  -1.1805  -1.1398
 -1.1134  -1.0592  -1.0460  -0.9918  -0.9875  -0.9848  -0.9579  -0.9487
 -0.8958  -0.8775  -0.8684  -0.8576  -0.7894  -0.7747  -0.7731  -0.7597
 -0.7351  -0.7174  -0.7025  -0.6937  -0.6841  -0.6704  -0.6652  -0.6612
 -0.6543  -0.6450  -0.6368  -0.6343  -0.6265  -0.6100  -0.5867  -0.5825
 -0.5759  -0.5736  -0.5680  -0.5630  -0.5557  -0.5532  -0.5521  -0.5482
 -0.5354  -0.5253  -0.5172  -0.4969  -0.4786  -0.4688  -0.4621  -0.4584
 -0.4537  -0.4362  -0.4270  -0.4169  -0.4061  -0.3514  -0.3374  -0.3312
 -0.3085

          Ground-State Mulliken Net Atomic Charges

     Atom                 Charge (a.u.)
  ----------------------------------------
      1 C                    -0.144561
      2 C                    -0.109369
      3 C                    -0.035520
      4 C                    -0.000610
      5 H                     0.187164
      6 C                    -0.011252
      7 C                     0.074172
      8 C                     0.012377
      9 C                    -0.069067
     10 C                    -0.138310
     11 C                     0.083872
     12 H                     0.181336
     13 C                     0.360057
     14 C                     0.364845
     15 N                    -0.101205
     16 C                     0.355408
     17 C                     0.388957
     18 N                    -0.091777
     19 O                    -0.465347
     20 O                    -0.476312
     21 O                    -0.484122
     22 O                    -0.462694
     23 C                    -0.201653
     24 H                     0.140663
     25 H                     0.112040
     26 H                     0.112208
     27 C                    -0.196730
     28 H                     0.135096
     29 H                     0.111524
     30 H                     0.110690
     31 H                     0.212487
     32 C                    -0.172791
     33 S                     0.016705
     34 C                    -0.176269
     35 C                    -0.111053
     36 C                    -0.090083
     37 H                     0.194267
     38 H                     0.177230
     39 H                     0.207625
  ----------------------------------------
  Sum of atomic charges =     0.000000

                    Cartesian Multipole Moments
 -----------------------------------------------------------------
    Charge (ESU x 10^10)
                 0.0000
    Dipole Moment (Debye)
         X       3.5588      Y       1.2360      Z      -1.3813
       Tot       4.0125
    Quadrupole Moments (Debye-Ang)
        XX    -173.5317     XY       5.1536     YY    -179.8006
        XZ       4.0446     YZ       0.1645     ZZ    -157.9246

 Total job time:  292.78s(wall), 8611.58s(cpu)
        *  Thank you very much for using Q-Chem.  Have a nice day.  *
