 Q-Chem 5.4, Q-Chem, Inc., Pleasanton, CA (2021)
 Q-Chem 5.4.0 for Intel X86 EM64T Linux

User input:
--------------------------------------------------------------
$molecule
0 1
C	0.240927	-6.741404	-0.089263
C	1.467886	-6.155638	-0.535973
C	-0.777972	-5.791452	0.281103
C	1.729742	-4.803786	-0.631036
H	2.292903	-6.821518	-0.836458
C	-0.503614	-4.378638	0.181995
C	0.746756	-3.838032	-0.272725
C	-1.485437	-3.413062	0.539954
C	1.018915	-2.426473	-0.371053
C	-1.226557	-2.059348	0.446381
C	-0.000000	-1.478216	-0.000000
H	-2.052413	-1.394783	0.747410
C	-2.134128	-6.187987	0.772747
C	-2.829820	-3.798164	1.029154
N	-3.059182	-5.170003	1.110828
C	3.077731	-4.424987	-1.121728
C	2.375694	-2.036627	-0.864069
N	3.301101	-3.049156	-1.201928
O	-2.502830	-7.353131	0.903908
O	-3.697078	-2.986854	1.345809
O	3.934752	-5.248946	-1.434422
O	2.764177	-0.878829	-1.003943
C	-4.386939	-5.563799	1.592981
H	-4.429822	-6.664085	1.607367
H	-5.164489	-5.147101	0.924504
H	-4.553486	-5.148785	2.605446
C	4.608481	-2.587487	-1.677308
H	5.211969	-3.483329	-1.898089
H	5.094624	-1.964972	-0.902337
H	4.483092	-1.962932	-2.582098
H	0.066080	-7.822318	-0.025963
C	0.000000	0.000000	0.000000
S	0.335026	0.718942	1.580530
C	1.027130	2.203226	0.904911
C	0.421617	0.904557	-0.985400
C	0.979485	2.101144	-0.493528
H	0.322049	0.690978	-2.059934
H	1.351718	2.899571	-1.152593
H	1.399246	3.001430	1.556025
$end

$rem
JOBTYPE		SP
EXCHANGE	HF
CORRELATION	pRIMP2
BASIS		cc-pvtz
METHOD		rimp2
AUX_BASIS	rimp2-cc-pvtz
SOLVENT_METHOD	PCM
PURECART	11111
SYMMETRY	false
MEM_TOTAL	110000
SCF_CONVERGENCE = 6
THRESH=10
GUI = 2
$end

$solvent
dielectric 4.90
$end
--------------------------------------------------------------

             Standard Nuclear Orientation (Angstroms)
    I     Atom           X                Y                Z
 ----------------------------------------------------------------
    1      C       0.2409270000    -6.7414040000    -0.0892630000
    2      C       1.4678860000    -6.1556380000    -0.5359730000
    3      C      -0.7779720000    -5.7914520000     0.2811030000
    4      C       1.7297420000    -4.8037860000    -0.6310360000
    5      H       2.2929030000    -6.8215180000    -0.8364580000
    6      C      -0.5036140000    -4.3786380000     0.1819950000
    7      C       0.7467560000    -3.8380320000    -0.2727250000
    8      C      -1.4854370000    -3.4130620000     0.5399540000
    9      C       1.0189150000    -2.4264730000    -0.3710530000
   10      C      -1.2265570000    -2.0593480000     0.4463810000
   11      C       0.0000000000    -1.4782160000     0.0000000000
   12      H      -2.0524130000    -1.3947830000     0.7474100000
   13      C      -2.1341280000    -6.1879870000     0.7727470000
   14      C      -2.8298200000    -3.7981640000     1.0291540000
   15      N      -3.0591820000    -5.1700030000     1.1108280000
   16      C       3.0777310000    -4.4249870000    -1.1217280000
   17      C       2.3756940000    -2.0366270000    -0.8640690000
   18      N       3.3011010000    -3.0491560000    -1.2019280000
   19      O      -2.5028300000    -7.3531310000     0.9039080000
   20      O      -3.6970780000    -2.9868540000     1.3458090000
   21      O       3.9347520000    -5.2489460000    -1.4344220000
   22      O       2.7641770000    -0.8788290000    -1.0039430000
   23      C      -4.3869390000    -5.5637990000     1.5929810000
   24      H      -4.4298220000    -6.6640850000     1.6073670000
   25      H      -5.1644890000    -5.1471010000     0.9245040000
   26      H      -4.5534860000    -5.1487850000     2.6054460000
   27      C       4.6084810000    -2.5874870000    -1.6773080000
   28      H       5.2119690000    -3.4833290000    -1.8980890000
   29      H       5.0946240000    -1.9649720000    -0.9023370000
   30      H       4.4830920000    -1.9629320000    -2.5820980000
   31      H       0.0660800000    -7.8223180000    -0.0259630000
   32      C       0.0000000000     0.0000000000     0.0000000000
   33      S       0.3350260000     0.7189420000     1.5805300000
   34      C       1.0271300000     2.2032260000     0.9049110000
   35      C       0.4216170000     0.9045570000    -0.9854000000
   36      C       0.9794850000     2.1011440000    -0.4935280000
   37      H       0.3220490000     0.6909780000    -2.0599340000
   38      H       1.3517180000     2.8995710000    -1.1525930000
   39      H       1.3992460000     3.0014300000     1.5560250000
 ----------------------------------------------------------------

   10   -1570.6783814690      8.11e-07  Convergence criterion met
 Total energy in the final basis set =    -1570.6783814690
        RIMP2         total energy =     -1575.3055464554 a.u.

                    Orbital Energies (a.u.)
 --------------------------------------------------------------

 Alpha MOs
 -- Occupied --
-91.9923 -20.5584 -20.5557 -20.5549 -20.5545 -15.6309 -15.6304 -11.3999
-11.3956 -11.3924 -11.3900 -11.3142 -11.3046 -11.3026 -11.3004 -11.2981
-11.2978 -11.2868 -11.2860 -11.2851 -11.2824 -11.2802 -11.2759 -11.2646
-11.2643 -11.2581 -11.2494  -8.9916  -6.6724  -6.6719  -6.6713  -1.4246
 -1.4234  -1.4038  -1.4025  -1.2672  -1.2648  -1.2170  -1.1747  -1.1436
 -1.1170  -1.0622  -1.0494  -0.9927  -0.9888  -0.9835  -0.9589  -0.9484
 -0.8965  -0.8793  -0.8760  -0.8609  -0.7944  -0.7766  -0.7726  -0.7596
 -0.7369  -0.7178  -0.7050  -0.6947  -0.6799  -0.6717  -0.6661  -0.6619
 -0.6565  -0.6422  -0.6370  -0.6337  -0.6292  -0.6121  -0.5854  -0.5841
 -0.5770  -0.5740  -0.5655  -0.5636  -0.5601  -0.5549  -0.5519  -0.5484
 -0.5356  -0.5263  -0.5200  -0.5132  -0.4826  -0.4707  -0.4650  -0.4602
 -0.4585  -0.4526  -0.4277  -0.4179  -0.4084  -0.3584  -0.3495  -0.3341
 -0.3173

          Ground-State Mulliken Net Atomic Charges

     Atom                 Charge (a.u.)
  ----------------------------------------
      1 C                    -0.133114
      2 C                    -0.107407
      3 C                    -0.042838
      4 C                    -0.001844
      5 H                     0.188522
      6 C                    -0.012885
      7 C                     0.075084
      8 C                     0.025164
      9 C                     0.002408
     10 C                    -0.173388
     11 C                     0.095523
     12 H                     0.181644
     13 C                     0.361249
     14 C                     0.367341
     15 N                    -0.101528
     16 C                     0.358819
     17 C                     0.366061
     18 N                    -0.094963
     19 O                    -0.465039
     20 O                    -0.476173
     21 O                    -0.480705
     22 O                    -0.458928
     23 C                    -0.201049
     24 H                     0.140916
     25 H                     0.112364
     26 H                     0.112450
     27 C                    -0.196425
     28 H                     0.133763
     29 H                     0.113405
     30 H                     0.111972
     31 H                     0.214142
     32 C                    -0.087125
     33 S                     0.033087
     34 C                    -0.201034
     35 C                    -0.157835
     36 C                    -0.189439
     37 H                     0.185337
     38 H                     0.189398
     39 H                     0.213068
  ----------------------------------------
  Sum of atomic charges =     0.000000

                    Cartesian Multipole Moments
 -----------------------------------------------------------------
    Charge (ESU x 10^10)
                 0.0000
    Dipole Moment (Debye)
         X       1.1347      Y       1.2151      Z      -1.0567
       Tot       1.9699
    Quadrupole Moments (Debye-Ang)
        XX    -180.2667     XY       3.7971     YY    -167.1574
        XZ       6.9278     YZ       0.9723     ZZ    -159.8210

 Total job time:  291.91s(wall), 8203.31s(cpu)
        *  Thank you very much for using Q-Chem.  Have a nice day.  *
