 Q-Chem 5.4, Q-Chem, Inc., Pleasanton, CA (2021)
 Q-Chem 5.4.0 for Intel X86 EM64T Linux

User input:
--------------------------------------------------------------
$molecule
0 1
C	-0.127184	-6.741404	0.223244
C	-0.779949	-6.155638	1.354118
C	0.415271	-5.791452	-0.715408
C	-0.919437	-4.803786	1.595259
H	-1.218801	-6.821518	2.114613
C	0.268806	-4.378638	-0.463133
C	-0.396744	-3.838032	0.688925
C	0.790835	-3.413062	-1.368449
C	-0.542026	-2.426473	0.939189
C	0.652669	-2.059348	-1.130363
C	0.000000	-1.478216	0.000000
H	1.091814	-1.394783	-1.891815
C	1.138124	-6.187987	-1.963749
C	1.506241	-3.798164	-2.607351
N	1.629443	-5.170003	-2.817348
C	-1.636646	-4.424987	2.837621
C	-1.264474	-2.036627	2.188982
N	-1.756205	-3.049156	3.042637
O	1.336258	-7.353131	-2.301222
O	1.967056	-2.986854	-3.407386
O	-2.092167	-5.248946	3.628041
O	-1.472160	-0.878829	2.545844
C	2.336642	-5.563799	-4.040164
H	2.360245	-6.664085	-4.078749
H	3.361968	-5.147101	-4.027880
H	1.813424	-5.148785	-4.922811
C	-2.452149	-2.587487	4.247167
H	-2.772531	-3.483329	4.804209
H	-3.322697	-1.964972	3.965991
H	-1.774507	-1.962932	4.859678
H	-0.033931	-7.822318	0.062364
C	0.000000	0.000000	0.000000
S	0.396411	0.687007	1.580530
C	1.215245	2.105322	0.904911
C	0.498850	0.864369	-0.985400
C	1.158885	2.007781	-0.493528
H	0.381046	0.660280	-2.059934
H	1.599289	2.770727	-1.152593
H	1.655514	2.868056	1.556025
$end

$rem
JOBTYPE		SP
EXCHANGE	HF
CORRELATION	pRIMP2
BASIS		cc-pvtz
METHOD		rimp2
AUX_BASIS	rimp2-cc-pvtz
SOLVENT_METHOD	PCM
PURECART	11111
SYMMETRY	false
MEM_TOTAL	110000
SCF_CONVERGENCE = 6
THRESH=10
GUI = 2
$end

$solvent
dielectric 4.90
$end
--------------------------------------------------------------

             Standard Nuclear Orientation (Angstroms)
    I     Atom           X                Y                Z
 ----------------------------------------------------------------
    1      C      -0.1271840000    -6.7414040000     0.2232440000
    2      C      -0.7799490000    -6.1556380000     1.3541180000
    3      C       0.4152710000    -5.7914520000    -0.7154080000
    4      C      -0.9194370000    -4.8037860000     1.5952590000
    5      H      -1.2188010000    -6.8215180000     2.1146130000
    6      C       0.2688060000    -4.3786380000    -0.4631330000
    7      C      -0.3967440000    -3.8380320000     0.6889250000
    8      C       0.7908350000    -3.4130620000    -1.3684490000
    9      C      -0.5420260000    -2.4264730000     0.9391890000
   10      C       0.6526690000    -2.0593480000    -1.1303630000
   11      C       0.0000000000    -1.4782160000     0.0000000000
   12      H       1.0918140000    -1.3947830000    -1.8918150000
   13      C       1.1381240000    -6.1879870000    -1.9637490000
   14      C       1.5062410000    -3.7981640000    -2.6073510000
   15      N       1.6294430000    -5.1700030000    -2.8173480000
   16      C      -1.6366460000    -4.4249870000     2.8376210000
   17      C      -1.2644740000    -2.0366270000     2.1889820000
   18      N      -1.7562050000    -3.0491560000     3.0426370000
   19      O       1.3362580000    -7.3531310000    -2.3012220000
   20      O       1.9670560000    -2.9868540000    -3.4073860000
   21      O      -2.0921670000    -5.2489460000     3.6280410000
   22      O      -1.4721600000    -0.8788290000     2.5458440000
   23      C       2.3366420000    -5.5637990000    -4.0401640000
   24      H       2.3602450000    -6.6640850000    -4.0787490000
   25      H       3.3619680000    -5.1471010000    -4.0278800000
   26      H       1.8134240000    -5.1487850000    -4.9228110000
   27      C      -2.4521490000    -2.5874870000     4.2471670000
   28      H      -2.7725310000    -3.4833290000     4.8042090000
   29      H      -3.3226970000    -1.9649720000     3.9659910000
   30      H      -1.7745070000    -1.9629320000     4.8596780000
   31      H      -0.0339310000    -7.8223180000     0.0623640000
   32      C       0.0000000000     0.0000000000     0.0000000000
   33      S       0.3964110000     0.6870070000     1.5805300000
   34      C       1.2152450000     2.1053220000     0.9049110000
   35      C       0.4988500000     0.8643690000    -0.9854000000
   36      C       1.1588850000     2.0077810000    -0.4935280000
   37      H       0.3810460000     0.6602800000    -2.0599340000
   38      H       1.5992890000     2.7707270000    -1.1525930000
   39      H       1.6555140000     2.8680560000     1.5560250000
 ----------------------------------------------------------------

   10   -1570.6726775255      8.48e-07  Convergence criterion met
 Total energy in the final basis set =    -1570.6726775255
        RIMP2         total energy =     -1575.3050020845 a.u.

                    Orbital Energies (a.u.)
 --------------------------------------------------------------

 Alpha MOs
 -- Occupied --
-91.9874 -20.5585 -20.5565 -20.5552 -20.5531 -15.6312 -15.6297 -11.3997
-11.3955 -11.3908 -11.3907 -11.3190 -11.3017 -11.2997 -11.2972 -11.2946
-11.2939 -11.2879 -11.2873 -11.2862 -11.2828 -11.2787 -11.2764 -11.2658
-11.2646 -11.2640 -11.2501  -8.9868  -6.6673  -6.6666  -6.6661  -1.4249
 -1.4246  -1.4043  -1.4033  -1.2672  -1.2648  -1.2163  -1.1780  -1.1428
 -1.1157  -1.0621  -1.0485  -0.9923  -0.9900  -0.9866  -0.9584  -0.9469
 -0.8961  -0.8785  -0.8764  -0.8605  -0.7936  -0.7765  -0.7744  -0.7642
 -0.7322  -0.7177  -0.7052  -0.6936  -0.6843  -0.6745  -0.6661  -0.6619
 -0.6561  -0.6401  -0.6364  -0.6333  -0.6271  -0.6135  -0.5840  -0.5836
 -0.5811  -0.5719  -0.5687  -0.5666  -0.5639  -0.5553  -0.5543  -0.5482
 -0.5317  -0.5254  -0.5200  -0.5169  -0.4858  -0.4730  -0.4632  -0.4604
 -0.4573  -0.4421  -0.4269  -0.4171  -0.4084  -0.3723  -0.3508  -0.3358
 -0.3012

          Ground-State Mulliken Net Atomic Charges

     Atom                 Charge (a.u.)
  ----------------------------------------
      1 C                    -0.145577
      2 C                    -0.109325
      3 C                    -0.030827
      4 C                    -0.005775
      5 H                     0.188132
      6 C                    -0.002331
      7 C                     0.085351
      8 C                     0.010667
      9 C                    -0.076945
     10 C                    -0.145947
     11 C                     0.084666
     12 H                     0.181390
     13 C                     0.358659
     14 C                     0.364170
     15 N                    -0.101562
     16 C                     0.357603
     17 C                     0.366815
     18 N                    -0.094767
     19 O                    -0.464403
     20 O                    -0.477748
     21 O                    -0.483068
     22 O                    -0.474208
     23 C                    -0.201378
     24 H                     0.141233
     25 H                     0.112332
     26 H                     0.112204
     27 C                    -0.197282
     28 H                     0.133953
     29 H                     0.112915
     30 H                     0.112802
     31 H                     0.212492
     32 C                    -0.007472
     33 S                     0.088019
     34 C                    -0.200520
     35 C                    -0.202210
     36 C                    -0.197783
     37 H                     0.190863
     38 H                     0.191970
     39 H                     0.212893
  ----------------------------------------
  Sum of atomic charges =     0.000000

                    Cartesian Multipole Moments
 -----------------------------------------------------------------
    Charge (ESU x 10^10)
                 0.0000
    Dipole Moment (Debye)
         X       1.2187      Y       1.8731      Z      -0.7988
       Tot       2.3731
    Quadrupole Moments (Debye-Ang)
        XX    -166.4455     XY       4.9960     YY    -171.7275
        XZ       9.4188     YZ       0.8886     ZZ    -172.4304

 Total job time:  261.96s(wall), 8195.02s(cpu)
        *  Thank you very much for using Q-Chem.  Have a nice day.  *
