 Q-Chem 5.4, Q-Chem, Inc., Pleasanton, CA (2021)
 Q-Chem 5.4.0 for Intel X86 EM64T Linux

User input:
--------------------------------------------------------------
$molecule
0 1
C	-0.221766	-6.741404	0.129743
C	-1.352515	-6.155638	0.782726
C	0.717339	-5.791452	-0.411926
C	-1.593885	-4.803786	0.921816
H	-2.112819	-6.821518	1.221908
C	0.464360	-4.378638	-0.266682
C	-0.688053	-3.838032	0.398255
C	1.369108	-3.413062	-0.789694
C	-0.939002	-2.426473	0.542349
C	1.130409	-2.059348	-0.652589
C	-0.000000	-1.478216	-0.000000
H	1.891446	-1.394783	-1.092453
C	1.967519	-6.187987	-1.131595
C	2.608118	-3.798164	-1.504912
N	2.819813	-5.170003	-1.625174
C	-2.836188	-4.424987	1.639129
C	-2.189558	-2.036627	1.263477
N	-3.042237	-3.049156	1.756898
O	2.307845	-7.353131	-1.324787
O	3.407213	-2.986854	-1.967354
O	-3.625890	-5.248946	2.095892
O	-2.547850	-0.878829	1.468685
C	4.043674	-5.563799	-2.330564
H	4.083407	-6.664085	-2.352178
H	4.925490	-5.147101	-1.807263
H	4.031877	-5.148785	-3.356568
C	-4.247206	-2.587487	2.452080
H	-4.803187	-3.483329	2.774302
H	-4.860536	-1.964972	1.773301
H	-3.966607	-1.962932	3.321351
H	-0.060567	-7.822318	0.037043
C	0.000000	0.000000	0.000000
S	0.335026	0.718942	1.580530
C	1.027130	2.203226	0.904911
C	0.421617	0.904557	-0.985400
C	0.979485	2.101144	-0.493528
H	0.322049	0.690978	-2.059934
H	1.351718	2.899571	-1.152593
H	1.399246	3.001430	1.556025
$end

$rem
JOBTYPE		SP
EXCHANGE	HF
CORRELATION	pRIMP2
BASIS		cc-pvtz
METHOD		rimp2
AUX_BASIS	rimp2-cc-pvtz
SOLVENT_METHOD	PCM
PURECART	11111
SYMMETRY	false
MEM_TOTAL	110000
SCF_CONVERGENCE = 6
THRESH=10
GUI = 2
$end

$solvent
dielectric 4.90
$end
--------------------------------------------------------------

             Standard Nuclear Orientation (Angstroms)
    I     Atom           X                Y                Z
 ----------------------------------------------------------------
    1      C      -0.2217660000    -6.7414040000     0.1297430000
    2      C      -1.3525150000    -6.1556380000     0.7827260000
    3      C       0.7173390000    -5.7914520000    -0.4119260000
    4      C      -1.5938850000    -4.8037860000     0.9218160000
    5      H      -2.1128190000    -6.8215180000     1.2219080000
    6      C       0.4643600000    -4.3786380000    -0.2666820000
    7      C      -0.6880530000    -3.8380320000     0.3982550000
    8      C       1.3691080000    -3.4130620000    -0.7896940000
    9      C      -0.9390020000    -2.4264730000     0.5423490000
   10      C       1.1304090000    -2.0593480000    -0.6525890000
   11      C       0.0000000000    -1.4782160000     0.0000000000
   12      H       1.8914460000    -1.3947830000    -1.0924530000
   13      C       1.9675190000    -6.1879870000    -1.1315950000
   14      C       2.6081180000    -3.7981640000    -1.5049120000
   15      N       2.8198130000    -5.1700030000    -1.6251740000
   16      C      -2.8361880000    -4.4249870000     1.6391290000
   17      C      -2.1895580000    -2.0366270000     1.2634770000
   18      N      -3.0422370000    -3.0491560000     1.7568980000
   19      O       2.3078450000    -7.3531310000    -1.3247870000
   20      O       3.4072130000    -2.9868540000    -1.9673540000
   21      O      -3.6258900000    -5.2489460000     2.0958920000
   22      O      -2.5478500000    -0.8788290000     1.4686850000
   23      C       4.0436740000    -5.5637990000    -2.3305640000
   24      H       4.0834070000    -6.6640850000    -2.3521780000
   25      H       4.9254900000    -5.1471010000    -1.8072630000
   26      H       4.0318770000    -5.1487850000    -3.3565680000
   27      C      -4.2472060000    -2.5874870000     2.4520800000
   28      H      -4.8031870000    -3.4833290000     2.7743020000
   29      H      -4.8605360000    -1.9649720000     1.7733010000
   30      H      -3.9666070000    -1.9629320000     3.3213510000
   31      H      -0.0605670000    -7.8223180000     0.0370430000
   32      C       0.0000000000     0.0000000000     0.0000000000
   33      S       0.3350260000     0.7189420000     1.5805300000
   34      C       1.0271300000     2.2032260000     0.9049110000
   35      C       0.4216170000     0.9045570000    -0.9854000000
   36      C       0.9794850000     2.1011440000    -0.4935280000
   37      H       0.3220490000     0.6909780000    -2.0599340000
   38      H       1.3517180000     2.8995710000    -1.1525930000
   39      H       1.3992460000     3.0014300000     1.5560250000
 ----------------------------------------------------------------

   10   -1570.6832771273      7.59e-07  Convergence criterion met
 Total energy in the final basis set =    -1570.6832771273
        RIMP2         total energy =     -1575.3099793373 a.u.

                    Orbital Energies (a.u.)
 --------------------------------------------------------------

 Alpha MOs
 -- Occupied --
-91.9915 -20.5587 -20.5565 -20.5564 -20.5548 -15.6314 -15.6306 -11.4003
-11.3965 -11.3924 -11.3909 -11.3167 -11.3040 -11.3028 -11.3006 -11.2981
-11.2977 -11.2908 -11.2862 -11.2858 -11.2857 -11.2803 -11.2779 -11.2648
-11.2643 -11.2593 -11.2511  -8.9908  -6.6716  -6.6711  -6.6705  -1.4251
 -1.4240  -1.4044  -1.4031  -1.2676  -1.2652  -1.2177  -1.1773  -1.1439
 -1.1175  -1.0631  -1.0499  -0.9930  -0.9902  -0.9853  -0.9591  -0.9479
 -0.8972  -0.8793  -0.8775  -0.8605  -0.7952  -0.7770  -0.7736  -0.7628
 -0.7344  -0.7184  -0.7058  -0.6947  -0.6819  -0.6743  -0.6664  -0.6622
 -0.6569  -0.6417  -0.6376  -0.6336  -0.6294  -0.6131  -0.5848  -0.5846
 -0.5782  -0.5737  -0.5670  -0.5644  -0.5641  -0.5553  -0.5534  -0.5484
 -0.5320  -0.5253  -0.5218  -0.5163  -0.4835  -0.4722  -0.4665  -0.4605
 -0.4589  -0.4533  -0.4282  -0.4182  -0.4088  -0.3626  -0.3514  -0.3364
 -0.3136

          Ground-State Mulliken Net Atomic Charges

     Atom                 Charge (a.u.)
  ----------------------------------------
      1 C                    -0.134058
      2 C                    -0.108641
      3 C                    -0.040192
      4 C                    -0.000274
      5 H                     0.188839
      6 C                     0.001641
      7 C                     0.073936
      8 C                     0.002633
      9 C                    -0.033644
     10 C                    -0.114276
     11 C                     0.050289
     12 H                     0.188762
     13 C                     0.359950
     14 C                     0.363780
     15 N                    -0.101521
     16 C                     0.359007
     17 C                     0.349344
     18 N                    -0.096652
     19 O                    -0.464720
     20 O                    -0.476463
     21 O                    -0.480494
     22 O                    -0.461147
     23 C                    -0.201193
     24 H                     0.141155
     25 H                     0.112497
     26 H                     0.112281
     27 C                    -0.196306
     28 H                     0.133604
     29 H                     0.113345
     30 H                     0.113196
     31 H                     0.213984
     32 C                    -0.000063
     33 S                     0.049591
     34 C                    -0.205758
     35 C                    -0.226500
     36 C                    -0.185986
     37 H                     0.195000
     38 H                     0.193099
     39 H                     0.211955
  ----------------------------------------
  Sum of atomic charges =     0.000000

                    Cartesian Multipole Moments
 -----------------------------------------------------------------
    Charge (ESU x 10^10)
                 0.0000
    Dipole Moment (Debye)
         X       0.9738      Y       1.0638      Z      -0.8840
       Tot       1.6915
    Quadrupole Moments (Debye-Ang)
        XX    -177.4955     XY       5.1514     YY    -167.0051
        XZ       9.1700     YZ       0.3988     ZZ    -162.4058

 Total job time:  268.94s(wall), 8548.92s(cpu)
        *  Thank you very much for using Q-Chem.  Have a nice day.  *
