 Q-Chem 5.4, Q-Chem, Inc., Pleasanton, CA (2021)
 Q-Chem 5.4.0 for Intel X86 EM64T Linux

User input:
--------------------------------------------------------------
$molecule
0 1
C	0.001478	-6.741404	0.256927
C	0.001603	-6.155638	1.562675
C	0.001931	-5.791452	-0.827197
C	0.001374	-4.803786	1.841253
H	0.001794	-6.821518	2.440709
C	0.001227	-4.378638	-0.535488
C	0.000872	-3.838032	0.794999
C	0.000658	-3.413062	-1.580529
C	0.000186	-2.426473	1.084374
C	0.000046	-2.059348	-1.305258
C	-0.000000	-1.478216	-0.000000
H	-0.000369	-1.394783	-2.184267
C	0.003770	-6.187987	-2.269719
C	0.000767	-3.798164	-3.011152
N	0.002465	-5.170003	-3.254617
C	0.001433	-4.424987	3.275775
C	-0.000576	-2.036627	2.527951
N	0.000400	-3.049156	3.513104
O	0.006623	-7.353131	-2.661046
O	-0.000172	-2.986854	-3.934410
O	0.002151	-5.248946	4.188059
O	-0.002006	-0.878829	2.940845
C	0.003509	-5.563799	-4.667206
H	0.004658	-6.664085	-4.712423
H	0.897610	-5.147101	-5.169231
H	-0.890935	-5.148785	-5.169992
C	-0.000039	-2.587487	4.904229
H	0.001022	-3.483329	5.546833
H	-0.894545	-1.964972	5.095998
H	0.893071	-1.962932	5.095858
H	0.001797	-7.822318	0.070974
C	0.000000	0.000000	0.000000
S	0.271091	0.745405	1.580530
C	0.831198	2.284363	0.904911
C	0.341175	0.937861	-0.985400
C	0.792631	2.178516	-0.493528
H	0.260601	0.716417	-2.059934
H	1.093860	3.006347	-1.152593
H	1.132330	3.111961	1.556025
$end

$rem
JOBTYPE		SP
EXCHANGE	HF
CORRELATION	pRIMP2
BASIS		cc-pvtz
METHOD		rimp2
AUX_BASIS	rimp2-cc-pvtz
SOLVENT_METHOD	PCM
PURECART	11111
SYMMETRY	false
MEM_TOTAL	110000
SCF_CONVERGENCE = 6
THRESH=10
GUI = 2
$end

$solvent
dielectric 4.90
$end
--------------------------------------------------------------

             Standard Nuclear Orientation (Angstroms)
    I     Atom           X                Y                Z
 ----------------------------------------------------------------
    1      C       0.0014780000    -6.7414040000     0.2569270000
    2      C       0.0016030000    -6.1556380000     1.5626750000
    3      C       0.0019310000    -5.7914520000    -0.8271970000
    4      C       0.0013740000    -4.8037860000     1.8412530000
    5      H       0.0017940000    -6.8215180000     2.4407090000
    6      C       0.0012270000    -4.3786380000    -0.5354880000
    7      C       0.0008720000    -3.8380320000     0.7949990000
    8      C       0.0006580000    -3.4130620000    -1.5805290000
    9      C       0.0001860000    -2.4264730000     1.0843740000
   10      C       0.0000460000    -2.0593480000    -1.3052580000
   11      C       0.0000000000    -1.4782160000     0.0000000000
   12      H      -0.0003690000    -1.3947830000    -2.1842670000
   13      C       0.0037700000    -6.1879870000    -2.2697190000
   14      C       0.0007670000    -3.7981640000    -3.0111520000
   15      N       0.0024650000    -5.1700030000    -3.2546170000
   16      C       0.0014330000    -4.4249870000     3.2757750000
   17      C      -0.0005760000    -2.0366270000     2.5279510000
   18      N       0.0004000000    -3.0491560000     3.5131040000
   19      O       0.0066230000    -7.3531310000    -2.6610460000
   20      O      -0.0001720000    -2.9868540000    -3.9344100000
   21      O       0.0021510000    -5.2489460000     4.1880590000
   22      O      -0.0020060000    -0.8788290000     2.9408450000
   23      C       0.0035090000    -5.5637990000    -4.6672060000
   24      H       0.0046580000    -6.6640850000    -4.7124230000
   25      H       0.8976100000    -5.1471010000    -5.1692310000
   26      H      -0.8909350000    -5.1487850000    -5.1699920000
   27      C      -0.0000390000    -2.5874870000     4.9042290000
   28      H       0.0010220000    -3.4833290000     5.5468330000
   29      H      -0.8945450000    -1.9649720000     5.0959980000
   30      H       0.8930710000    -1.9629320000     5.0958580000
   31      H       0.0017970000    -7.8223180000     0.0709740000
   32      C       0.0000000000     0.0000000000     0.0000000000
   33      S       0.2710910000     0.7454050000     1.5805300000
   34      C       0.8311980000     2.2843630000     0.9049110000
   35      C       0.3411750000     0.9378610000    -0.9854000000
   36      C       0.7926310000     2.1785160000    -0.4935280000
   37      H       0.2606010000     0.7164170000    -2.0599340000
   38      H       1.0938600000     3.0063470000    -1.1525930000
   39      H       1.1323300000     3.1119610000     1.5560250000
 ----------------------------------------------------------------

   10   -1570.6384374357      9.54e-07  Convergence criterion met
 Total energy in the final basis set =    -1570.6384374357
        RIMP2         total energy =     -1575.2789765573 a.u.

                    Orbital Energies (a.u.)
 --------------------------------------------------------------

 Alpha MOs
 -- Occupied --
-91.9756 -20.5606 -20.5590 -20.5571 -20.5540 -15.6326 -15.6316 -11.4009
-11.4002 -11.3919 -11.3913 -11.3221 -11.3023 -11.3012 -11.2985 -11.2949
-11.2932 -11.2880 -11.2878 -11.2831 -11.2790 -11.2784 -11.2691 -11.2658
-11.2649 -11.2623 -11.2427  -8.9753  -6.6558  -6.6541  -6.6532  -1.4359
 -1.4253  -1.4082  -1.4047  -1.2705  -1.2668  -1.2171  -1.1728  -1.1422
 -1.1167  -1.0616  -1.0497  -0.9934  -0.9903  -0.9809  -0.9596  -0.9467
 -0.8979  -0.8806  -0.8781  -0.8637  -0.7932  -0.7793  -0.7776  -0.7599
 -0.7324  -0.7290  -0.7027  -0.6932  -0.6896  -0.6746  -0.6687  -0.6636
 -0.6576  -0.6414  -0.6388  -0.6367  -0.6270  -0.6149  -0.5847  -0.5835
 -0.5813  -0.5765  -0.5715  -0.5652  -0.5624  -0.5568  -0.5563  -0.5494
 -0.5329  -0.5263  -0.5215  -0.5180  -0.4900  -0.4730  -0.4677  -0.4634
 -0.4570  -0.4329  -0.4209  -0.4101  -0.3836  -0.3754  -0.3413  -0.3373
 -0.2949

          Ground-State Mulliken Net Atomic Charges

     Atom                 Charge (a.u.)
  ----------------------------------------
      1 C                    -0.148549
      2 C                    -0.111730
      3 C                    -0.027524
      4 C                    -0.003141
      5 H                     0.187889
      6 C                     0.003655
      7 C                     0.080613
      8 C                     0.003994
      9 C                    -0.093031
     10 C                    -0.131697
     11 C                     0.064659
     12 H                     0.182902
     13 C                     0.359104
     14 C                     0.362618
     15 N                    -0.101828
     16 C                     0.358675
     17 C                     0.379356
     18 N                    -0.091528
     19 O                    -0.463686
     20 O                    -0.476950
     21 O                    -0.482438
     22 O                    -0.439349
     23 C                    -0.201173
     24 H                     0.141285
     25 H                     0.112380
     26 H                     0.112435
     27 C                    -0.198988
     28 H                     0.135468
     29 H                     0.113623
     30 H                     0.113540
     31 H                     0.212286
     32 C                     0.007293
     33 S                     0.100817
     34 C                    -0.231759
     35 C                    -0.172387
     36 C                    -0.232915
     37 H                     0.187019
     38 H                     0.183717
     39 H                     0.205343
  ----------------------------------------
  Sum of atomic charges =     0.000000

                    Cartesian Multipole Moments
 -----------------------------------------------------------------
    Charge (ESU x 10^10)
                 0.0000
    Dipole Moment (Debye)
         X       0.6064      Y       1.1075      Z      -0.1425
       Tot       1.2706
    Quadrupole Moments (Debye-Ang)
        XX    -162.9615     XY       3.1327     YY    -171.9780
        XZ       0.4114     YZ       0.2534     ZZ    -175.5559

 Total job time:  269.77s(wall), 8232.39s(cpu)
        *  Thank you very much for using Q-Chem.  Have a nice day.  *
