 Q-Chem 5.4, Q-Chem, Inc., Pleasanton, CA (2021)
 Q-Chem 5.4.0 for Intel X86 EM64T Linux

User input:
--------------------------------------------------------------
$molecule
0 1
C	-0.046070	-6.741404	-0.252767
C	-0.272935	-6.155638	-1.538656
C	0.141739	-5.791452	0.814966
C	-0.321083	-4.803786	-1.813042
H	-0.425592	-6.821518	-2.403318
C	0.091779	-4.378638	0.527566
C	-0.138909	-3.838032	-0.782769
C	0.273808	-3.413062	1.556632
C	-0.188483	-2.426473	-1.067868
C	0.226610	-2.059348	1.285436
C	0.000000	-1.478216	0.000000
H	0.379657	-1.394783	2.151019
C	0.390420	-6.187987	2.235891
C	0.522125	-3.798164	2.965540
N	0.562731	-5.170003	3.205600
C	-0.570244	-4.424987	-3.225760
C	-0.438407	-2.036627	-2.489646
N	-0.610438	-3.049156	-3.459662
O	0.455563	-7.353131	2.621768
O	0.683373	-2.986854	3.874608
O	-0.729367	-5.248946	-4.124059
O	-0.508697	-0.878829	-2.896516
C	0.806996	-5.563799	4.596910
H	0.813717	-6.664085	4.641640
H	0.013655	-5.147101	5.246567
H	1.775159	-5.148785	4.936739
C	-0.851572	-2.587487	-4.829729
H	-0.964204	-3.483329	-5.462387
H	-0.003956	-1.964972	-5.173914
H	-1.764390	-1.962932	-4.863360
H	-0.014094	-7.822318	-0.069584
C	0.000000	0.000000	0.000000
S	0.137535	0.781156	1.580530
C	0.421895	2.393994	0.904911
C	0.173134	0.982857	-0.985400
C	0.402294	2.283058	-0.493528
H	0.132237	0.750786	-2.059934
H	0.555196	3.150621	-1.152593
H	0.574741	3.261310	1.556025
$end

$rem
JOBTYPE		SP
EXCHANGE	HF
CORRELATION	pRIMP2
BASIS		cc-pvtz
METHOD		rimp2
AUX_BASIS	rimp2-cc-pvtz
SOLVENT_METHOD	PCM
PURECART	11111
SYMMETRY	false
MEM_TOTAL	110000
SCF_CONVERGENCE = 6
THRESH=10
GUI = 2
$end

$solvent
dielectric 4.90
$end
--------------------------------------------------------------

             Standard Nuclear Orientation (Angstroms)
    I     Atom           X                Y                Z
 ----------------------------------------------------------------
    1      C      -0.0460700000    -6.7414040000    -0.2527670000
    2      C      -0.2729350000    -6.1556380000    -1.5386560000
    3      C       0.1417390000    -5.7914520000     0.8149660000
    4      C      -0.3210830000    -4.8037860000    -1.8130420000
    5      H      -0.4255920000    -6.8215180000    -2.4033180000
    6      C       0.0917790000    -4.3786380000     0.5275660000
    7      C      -0.1389090000    -3.8380320000    -0.7827690000
    8      C       0.2738080000    -3.4130620000     1.5566320000
    9      C      -0.1884830000    -2.4264730000    -1.0678680000
   10      C       0.2266100000    -2.0593480000     1.2854360000
   11      C       0.0000000000    -1.4782160000     0.0000000000
   12      H       0.3796570000    -1.3947830000     2.1510190000
   13      C       0.3904200000    -6.1879870000     2.2358910000
   14      C       0.5221250000    -3.7981640000     2.9655400000
   15      N       0.5627310000    -5.1700030000     3.2056000000
   16      C      -0.5702440000    -4.4249870000    -3.2257600000
   17      C      -0.4384070000    -2.0366270000    -2.4896460000
   18      N      -0.6104380000    -3.0491560000    -3.4596620000
   19      O       0.4555630000    -7.3531310000     2.6217680000
   20      O       0.6833730000    -2.9868540000     3.8746080000
   21      O      -0.7293670000    -5.2489460000    -4.1240590000
   22      O      -0.5086970000    -0.8788290000    -2.8965160000
   23      C       0.8069960000    -5.5637990000     4.5969100000
   24      H       0.8137170000    -6.6640850000     4.6416400000
   25      H       0.0136550000    -5.1471010000     5.2465670000
   26      H       1.7751590000    -5.1487850000     4.9367390000
   27      C      -0.8515720000    -2.5874870000    -4.8297290000
   28      H      -0.9642040000    -3.4833290000    -5.4623870000
   29      H      -0.0039560000    -1.9649720000    -5.1739140000
   30      H      -1.7643900000    -1.9629320000    -4.8633600000
   31      H      -0.0140940000    -7.8223180000    -0.0695840000
   32      C       0.0000000000     0.0000000000     0.0000000000
   33      S       0.1375350000     0.7811560000     1.5805300000
   34      C       0.4218950000     2.3939940000     0.9049110000
   35      C       0.1731340000     0.9828570000    -0.9854000000
   36      C       0.4022940000     2.2830580000    -0.4935280000
   37      H       0.1322370000     0.7507860000    -2.0599340000
   38      H       0.5551960000     3.1506210000    -1.1525930000
   39      H       0.5747410000     3.2613100000     1.5560250000
 ----------------------------------------------------------------

   10   -1570.6849358461      7.88e-07  Convergence criterion met
 Total energy in the final basis set =    -1570.6849358461
        RIMP2         total energy =     -1575.3129296968 a.u.

                    Orbital Energies (a.u.)
 --------------------------------------------------------------

 Alpha MOs
 -- Occupied --
-91.9933 -20.5585 -20.5565 -20.5558 -20.5536 -15.6312 -15.6306 -11.3998
-11.3970 -11.3914 -11.3908 -11.3198 -11.3021 -11.3003 -11.2986 -11.2954
-11.2943 -11.2917 -11.2905 -11.2874 -11.2834 -11.2791 -11.2782 -11.2649
-11.2644 -11.2546 -11.2503  -8.9932  -6.6741  -6.6735  -6.6729  -1.4253
 -1.4248  -1.4042  -1.4039  -1.2675  -1.2653  -1.2171  -1.1779  -1.1441
 -1.1164  -1.0638  -1.0495  -0.9926  -0.9904  -0.9874  -0.9588  -0.9474
 -0.8973  -0.8792  -0.8788  -0.8615  -0.7967  -0.7801  -0.7731  -0.7623
 -0.7359  -0.7224  -0.7035  -0.6943  -0.6822  -0.6741  -0.6665  -0.6623
 -0.6561  -0.6416  -0.6373  -0.6338  -0.6282  -0.6130  -0.5911  -0.5838
 -0.5795  -0.5715  -0.5662  -0.5636  -0.5619  -0.5561  -0.5538  -0.5472
 -0.5364  -0.5257  -0.5246  -0.5154  -0.4821  -0.4693  -0.4658  -0.4619
 -0.4586  -0.4515  -0.4292  -0.4191  -0.4099  -0.3771  -0.3554  -0.3366
 -0.2998

          Ground-State Mulliken Net Atomic Charges

     Atom                 Charge (a.u.)
  ----------------------------------------
      1 C                    -0.143659
      2 C                    -0.111307
      3 C                    -0.029406
      4 C                    -0.003881
      5 H                     0.188044
      6 C                     0.004240
      7 C                     0.071705
      8 C                     0.053321
      9 C                    -0.073385
     10 C                    -0.174488
     11 C                     0.045450
     12 H                     0.169270
     13 C                     0.358119
     14 C                     0.363799
     15 N                    -0.101480
     16 C                     0.359424
     17 C                     0.382179
     18 N                    -0.092632
     19 O                    -0.464166
     20 O                    -0.476640
     21 O                    -0.483133
     22 O                    -0.480033
     23 C                    -0.201179
     24 H                     0.141136
     25 H                     0.112562
     26 H                     0.112469
     27 C                    -0.197931
     28 H                     0.134442
     29 H                     0.112298
     30 H                     0.112966
     31 H                     0.212745
     32 C                    -0.005218
     33 S                     0.005024
     34 C                    -0.179153
     35 C                    -0.112097
     36 C                    -0.247282
     37 H                     0.226863
     38 H                     0.191758
     39 H                     0.219258
  ----------------------------------------
  Sum of atomic charges =     0.000000

                    Cartesian Multipole Moments
 -----------------------------------------------------------------
    Charge (ESU x 10^10)
                -0.0000
    Dipole Moment (Debye)
         X       0.4865      Y       2.1349      Z      -0.8003
       Tot       2.3313
    Quadrupole Moments (Debye-Ang)
        XX    -164.2616     XY       1.8993     YY    -167.9531
        XZ      -3.4092     YZ       0.5825     ZZ    -177.4787

 Total job time:  426.80s(wall), 15792.66s(cpu)
        *  Thank you very much for using Q-Chem.  Have a nice day.  *
