 Q-Chem 5.4, Q-Chem, Inc., Pleasanton, CA (2021)
 Q-Chem 5.4.0 for Intel X86 EM64T Linux

User input:
--------------------------------------------------------------
$molecule
0 1
C	0.241938	-6.741404	0.086486
C	1.468983	-6.155638	0.532960
C	-0.776651	-5.791452	-0.284733
C	1.730681	-4.803786	0.628455
H	2.294130	-6.821518	0.833086
C	-0.502775	-4.378638	-0.184300
C	0.747353	-3.838032	0.271086
C	-1.484986	-3.413062	-0.541191
C	1.019042	-2.426473	0.370703
C	-1.226525	-2.059348	-0.446468
C	0.000000	-1.478216	0.000000
H	-2.052666	-1.394783	-0.746717
C	-2.131549	-6.187987	-0.779832
C	-2.829295	-3.798164	-1.030596
N	-3.057496	-5.170003	-1.115461
C	3.078712	-4.424987	1.119034
C	2.375300	-2.036627	0.865151
N	3.301374	-3.049156	1.201176
O	-2.498300	-7.353131	-0.916355
O	-3.697195	-2.986854	-1.345486
O	3.936224	-5.248946	1.430379
O	2.762805	-0.878829	1.007714
C	-4.384539	-5.563799	-1.599576
H	-4.426636	-6.664085	-1.616121
H	-4.550487	-5.147101	-2.611458
H	-5.162921	-5.148785	-0.931037
C	4.608454	-2.587487	1.677382
H	5.212668	-3.483329	1.896168
H	4.482719	-1.964972	2.583531
H	5.093988	-1.962932	0.903674
H	0.067309	-7.822318	0.022586
C	0.000000	0.000000	0.000000
S	0.396411	0.687007	1.580530
C	1.215245	2.105322	0.904911
C	0.498850	0.864369	-0.985400
C	1.158885	2.007781	-0.493528
H	0.381046	0.660280	-2.059934
H	1.599289	2.770727	-1.152593
H	1.655514	2.868056	1.556025
$end

$rem
JOBTYPE		SP
EXCHANGE	HF
CORRELATION	pRIMP2
BASIS		cc-pvtz
METHOD		rimp2
AUX_BASIS	rimp2-cc-pvtz
SOLVENT_METHOD	PCM
PURECART	11111
SYMMETRY	false
MEM_TOTAL	110000
SCF_CONVERGENCE = 6
THRESH=10
GUI = 2
$end

$solvent
dielectric 4.90
$end
--------------------------------------------------------------

             Standard Nuclear Orientation (Angstroms)
    I     Atom           X                Y                Z
 ----------------------------------------------------------------
    1      C       0.2419380000    -6.7414040000     0.0864860000
    2      C       1.4689830000    -6.1556380000     0.5329600000
    3      C      -0.7766510000    -5.7914520000    -0.2847330000
    4      C       1.7306810000    -4.8037860000     0.6284550000
    5      H       2.2941300000    -6.8215180000     0.8330860000
    6      C      -0.5027750000    -4.3786380000    -0.1843000000
    7      C       0.7473530000    -3.8380320000     0.2710860000
    8      C      -1.4849860000    -3.4130620000    -0.5411910000
    9      C       1.0190420000    -2.4264730000     0.3707030000
   10      C      -1.2265250000    -2.0593480000    -0.4464680000
   11      C       0.0000000000    -1.4782160000     0.0000000000
   12      H      -2.0526660000    -1.3947830000    -0.7467170000
   13      C      -2.1315490000    -6.1879870000    -0.7798320000
   14      C      -2.8292950000    -3.7981640000    -1.0305960000
   15      N      -3.0574960000    -5.1700030000    -1.1154610000
   16      C       3.0787120000    -4.4249870000     1.1190340000
   17      C       2.3753000000    -2.0366270000     0.8651510000
   18      N       3.3013740000    -3.0491560000     1.2011760000
   19      O      -2.4983000000    -7.3531310000    -0.9163550000
   20      O      -3.6971950000    -2.9868540000    -1.3454860000
   21      O       3.9362240000    -5.2489460000     1.4303790000
   22      O       2.7628050000    -0.8788290000     1.0077140000
   23      C      -4.3845390000    -5.5637990000    -1.5995760000
   24      H      -4.4266360000    -6.6640850000    -1.6161210000
   25      H      -4.5504870000    -5.1471010000    -2.6114580000
   26      H      -5.1629210000    -5.1487850000    -0.9310370000
   27      C       4.6084540000    -2.5874870000     1.6773820000
   28      H       5.2126680000    -3.4833290000     1.8961680000
   29      H       4.4827190000    -1.9649720000     2.5835310000
   30      H       5.0939880000    -1.9629320000     0.9036740000
   31      H       0.0673090000    -7.8223180000     0.0225860000
   32      C       0.0000000000     0.0000000000     0.0000000000
   33      S       0.3964110000     0.6870070000     1.5805300000
   34      C       1.2152450000     2.1053220000     0.9049110000
   35      C       0.4988500000     0.8643690000    -0.9854000000
   36      C       1.1588850000     2.0077810000    -0.4935280000
   37      H       0.3810460000     0.6602800000    -2.0599340000
   38      H       1.5992890000     2.7707270000    -1.1525930000
   39      H       1.6555140000     2.8680560000     1.5560250000
 ----------------------------------------------------------------

   10   -1570.6684506616      8.11e-07  Convergence criterion met
 Total energy in the final basis set =    -1570.6684506616
        RIMP2         total energy =     -1575.2998628569 a.u.

                    Orbital Energies (a.u.)
 --------------------------------------------------------------

 Alpha MOs
 -- Occupied --
-91.9847 -20.5583 -20.5557 -20.5542 -20.5534 -15.6308 -15.6296 -11.3998
-11.3939 -11.3918 -11.3898 -11.3141 -11.3042 -11.3023 -11.3002 -11.2977
-11.2975 -11.2859 -11.2857 -11.2845 -11.2817 -11.2800 -11.2748 -11.2643
-11.2642 -11.2617 -11.2482  -8.9843  -6.6651  -6.6645  -6.6641  -1.4245
 -1.4228  -1.4038  -1.4019  -1.2669  -1.2643  -1.2167  -1.1742  -1.1429
 -1.1166  -1.0616  -1.0489  -0.9925  -0.9881  -0.9821  -0.9587  -0.9481
 -0.8959  -0.8791  -0.8750  -0.8607  -0.7929  -0.7762  -0.7729  -0.7594
 -0.7348  -0.7184  -0.7047  -0.6943  -0.6798  -0.6719  -0.6657  -0.6616
 -0.6564  -0.6420  -0.6367  -0.6341  -0.6290  -0.6119  -0.5850  -0.5835
 -0.5766  -0.5725  -0.5663  -0.5637  -0.5616  -0.5548  -0.5526  -0.5481
 -0.5368  -0.5258  -0.5203  -0.5061  -0.4813  -0.4697  -0.4639  -0.4587
 -0.4555  -0.4494  -0.4273  -0.4180  -0.4085  -0.3564  -0.3435  -0.3337
 -0.3193

          Ground-State Mulliken Net Atomic Charges

     Atom                 Charge (a.u.)
  ----------------------------------------
      1 C                    -0.133408
      2 C                    -0.108336
      3 C                    -0.042113
      4 C                    -0.001036
      5 H                     0.188491
      6 C                    -0.007470
      7 C                     0.067724
      8 C                     0.015215
      9 C                    -0.004049
     10 C                    -0.150526
     11 C                     0.070586
     12 H                     0.179732
     13 C                     0.360872
     14 C                     0.366037
     15 N                    -0.101642
     16 C                     0.357244
     17 C                     0.369406
     18 N                    -0.094304
     19 O                    -0.465124
     20 O                    -0.476324
     21 O                    -0.481699
     22 O                    -0.455779
     23 C                    -0.201107
     24 H                     0.140928
     25 H                     0.112136
     26 H                     0.112493
     27 C                    -0.196524
     28 H                     0.133618
     29 H                     0.112431
     30 H                     0.112508
     31 H                     0.214036
     32 C                    -0.064529
     33 S                     0.034650
     34 C                    -0.178152
     35 C                    -0.167844
     36 C                    -0.208817
     37 H                     0.189454
     38 H                     0.190717
     39 H                     0.210506
  ----------------------------------------
  Sum of atomic charges =     0.000000

                    Cartesian Multipole Moments
 -----------------------------------------------------------------
    Charge (ESU x 10^10)
                 0.0000
    Dipole Moment (Debye)
         X       1.4897      Y       1.1333      Z      -0.8245
       Tot       2.0453
    Quadrupole Moments (Debye-Ang)
        XX    -179.4196     XY       4.6194     YY    -168.9398
        XZ      -5.7460     YZ       0.3078     ZZ    -159.7662

 Total job time:  263.17s(wall), 8165.80s(cpu)
        *  Thank you very much for using Q-Chem.  Have a nice day.  *
