 Q-Chem 5.4, Q-Chem, Inc., Pleasanton, CA (2021)
 Q-Chem 5.4.0 for Intel X86 EM64T Linux

User input:
--------------------------------------------------------------
$molecule
0 1
C	0.001478	-6.741404	0.256927
C	0.001603	-6.155638	1.562675
C	0.001931	-5.791452	-0.827197
C	0.001374	-4.803786	1.841253
H	0.001794	-6.821518	2.440709
C	0.001227	-4.378638	-0.535488
C	0.000872	-3.838032	0.794999
C	0.000658	-3.413062	-1.580529
C	0.000186	-2.426473	1.084374
C	0.000046	-2.059348	-1.305258
C	0.000000	-1.478216	0.000000
H	-0.000369	-1.394783	-2.184267
C	0.003770	-6.187987	-2.269719
C	0.000767	-3.798164	-3.011152
N	0.002465	-5.170003	-3.254617
C	0.001433	-4.424987	3.275775
C	-0.000576	-2.036627	2.527951
N	0.000400	-3.049156	3.513104
O	0.006623	-7.353131	-2.661046
O	-0.000172	-2.986854	-3.934410
O	0.002151	-5.248946	4.188059
O	-0.002006	-0.878829	2.940845
C	0.003509	-5.563799	-4.667206
H	0.004658	-6.664085	-4.712423
H	0.897610	-5.147101	-5.169231
H	-0.890935	-5.148785	-5.169992
C	-0.000039	-2.587487	4.904229
H	0.001022	-3.483329	5.546833
H	-0.894545	-1.964972	5.095998
H	0.893071	-1.962932	5.095858
H	0.001797	-7.822318	0.070974
C	0.000000	0.000000	0.000000
S	0.396411	0.687007	1.580530
C	1.215245	2.105322	0.904911
C	0.498850	0.864369	-0.985400
C	1.158885	2.007781	-0.493528
H	0.381046	0.660280	-2.059934
H	1.599289	2.770727	-1.152593
H	1.655514	2.868056	1.556025
$end

$rem
JOBTYPE		SP
EXCHANGE	HF
CORRELATION	pRIMP2
BASIS		cc-pvtz
METHOD		rimp2
AUX_BASIS	rimp2-cc-pvtz
SOLVENT_METHOD	PCM
PURECART	11111
SYMMETRY	false
MEM_TOTAL	110000
SCF_CONVERGENCE = 6
THRESH=10
GUI = 2
$end

$solvent
dielectric 4.90
$end
--------------------------------------------------------------

             Standard Nuclear Orientation (Angstroms)
    I     Atom           X                Y                Z
 ----------------------------------------------------------------
    1      C       0.0014780000    -6.7414040000     0.2569270000
    2      C       0.0016030000    -6.1556380000     1.5626750000
    3      C       0.0019310000    -5.7914520000    -0.8271970000
    4      C       0.0013740000    -4.8037860000     1.8412530000
    5      H       0.0017940000    -6.8215180000     2.4407090000
    6      C       0.0012270000    -4.3786380000    -0.5354880000
    7      C       0.0008720000    -3.8380320000     0.7949990000
    8      C       0.0006580000    -3.4130620000    -1.5805290000
    9      C       0.0001860000    -2.4264730000     1.0843740000
   10      C       0.0000460000    -2.0593480000    -1.3052580000
   11      C       0.0000000000    -1.4782160000     0.0000000000
   12      H      -0.0003690000    -1.3947830000    -2.1842670000
   13      C       0.0037700000    -6.1879870000    -2.2697190000
   14      C       0.0007670000    -3.7981640000    -3.0111520000
   15      N       0.0024650000    -5.1700030000    -3.2546170000
   16      C       0.0014330000    -4.4249870000     3.2757750000
   17      C      -0.0005760000    -2.0366270000     2.5279510000
   18      N       0.0004000000    -3.0491560000     3.5131040000
   19      O       0.0066230000    -7.3531310000    -2.6610460000
   20      O      -0.0001720000    -2.9868540000    -3.9344100000
   21      O       0.0021510000    -5.2489460000     4.1880590000
   22      O      -0.0020060000    -0.8788290000     2.9408450000
   23      C       0.0035090000    -5.5637990000    -4.6672060000
   24      H       0.0046580000    -6.6640850000    -4.7124230000
   25      H       0.8976100000    -5.1471010000    -5.1692310000
   26      H      -0.8909350000    -5.1487850000    -5.1699920000
   27      C      -0.0000390000    -2.5874870000     4.9042290000
   28      H       0.0010220000    -3.4833290000     5.5468330000
   29      H      -0.8945450000    -1.9649720000     5.0959980000
   30      H       0.8930710000    -1.9629320000     5.0958580000
   31      H       0.0017970000    -7.8223180000     0.0709740000
   32      C       0.0000000000     0.0000000000     0.0000000000
   33      S       0.3964110000     0.6870070000     1.5805300000
   34      C       1.2152450000     2.1053220000     0.9049110000
   35      C       0.4988500000     0.8643690000    -0.9854000000
   36      C       1.1588850000     2.0077810000    -0.4935280000
   37      H       0.3810460000     0.6602800000    -2.0599340000
   38      H       1.5992890000     2.7707270000    -1.1525930000
   39      H       1.6555140000     2.8680560000     1.5560250000
 ----------------------------------------------------------------

   11   -1570.6251152367      4.93e-07  Convergence criterion met
 Total energy in the final basis set =    -1570.6251152367
        RIMP2         total energy =     -1575.2685889045 a.u.

                    Orbital Energies (a.u.)
 --------------------------------------------------------------

 Alpha MOs
 -- Occupied --
-91.9760 -20.5607 -20.5588 -20.5569 -20.5534 -15.6322 -15.6314 -11.4003
-11.3999 -11.3913 -11.3910 -11.3222 -11.3018 -11.3005 -11.2958 -11.2935
-11.2918 -11.2872 -11.2849 -11.2819 -11.2782 -11.2772 -11.2719 -11.2656
-11.2649 -11.2647 -11.2430  -8.9758  -6.6563  -6.6546  -6.6537  -1.4368
 -1.4251  -1.4080  -1.4045  -1.2703  -1.2665  -1.2165  -1.1743  -1.1416
 -1.1158  -1.0610  -1.0489  -0.9929  -0.9908  -0.9824  -0.9592  -0.9463
 -0.8975  -0.8800  -0.8771  -0.8632  -0.7925  -0.7795  -0.7772  -0.7605
 -0.7325  -0.7287  -0.7027  -0.6929  -0.6897  -0.6744  -0.6685  -0.6634
 -0.6573  -0.6412  -0.6383  -0.6363  -0.6263  -0.6147  -0.5852  -0.5836
 -0.5813  -0.5767  -0.5716  -0.5650  -0.5633  -0.5568  -0.5561  -0.5492
 -0.5329  -0.5273  -0.5211  -0.5163  -0.4899  -0.4734  -0.4653  -0.4627
 -0.4567  -0.4329  -0.4207  -0.4097  -0.3828  -0.3751  -0.3389  -0.3362
 -0.2947

          Ground-State Mulliken Net Atomic Charges

     Atom                 Charge (a.u.)
  ----------------------------------------
      1 C                    -0.152071
      2 C                    -0.111317
      3 C                    -0.025745
      4 C                    -0.004755
      5 H                     0.187581
      6 C                     0.000392
      7 C                     0.079354
      8 C                     0.005973
      9 C                    -0.104425
     10 C                    -0.128974
     11 C                     0.066768
     12 H                     0.181866
     13 C                     0.359206
     14 C                     0.362198
     15 N                    -0.101767
     16 C                     0.358107
     17 C                     0.383363
     18 N                    -0.091012
     19 O                    -0.463694
     20 O                    -0.477287
     21 O                    -0.483295
     22 O                    -0.437257
     23 C                    -0.201241
     24 H                     0.141247
     25 H                     0.112269
     26 H                     0.112362
     27 C                    -0.199016
     28 H                     0.135423
     29 H                     0.113403
     30 H                     0.113331
     31 H                     0.211757
     32 C                    -0.005043
     33 S                     0.103437
     34 C                    -0.223705
     35 C                    -0.162872
     36 C                    -0.232908
     37 H                     0.188890
     38 H                     0.184111
     39 H                     0.205345
  ----------------------------------------
  Sum of atomic charges =     0.000000

                    Cartesian Multipole Moments
 -----------------------------------------------------------------
    Charge (ESU x 10^10)
                 0.0000
    Dipole Moment (Debye)
         X       0.9805      Y       1.3778      Z      -0.1449
       Tot       1.6973
    Quadrupole Moments (Debye-Ang)
        XX    -161.5839     XY       4.2797     YY    -174.5884
        XZ       0.6524     YZ       0.4575     ZZ    -175.6109

 Total job time:  281.86s(wall), 8852.92s(cpu)
        *  Thank you very much for using Q-Chem.  Have a nice day.  *
