 Q-Chem 5.4, Q-Chem, Inc., Pleasanton, CA (2021)
 Q-Chem 5.4.0 for Intel X86 EM64T Linux

User input:
--------------------------------------------------------------
$molecule
0 1
C	-0.043160	-6.741404	0.253280
C	-0.269777	-6.155638	1.539213
C	0.145543	-5.791452	-0.814295
C	-0.318377	-4.803786	1.813519
H	-0.422058	-6.821518	2.403941
C	0.094194	-4.378638	-0.527140
C	-0.137191	-3.838032	0.783072
C	0.275104	-3.413062	-1.556403
C	-0.188116	-2.426473	1.067932
C	0.226701	-2.059348	-1.285420
C	-0.000000	-1.478216	-0.000000
H	0.378931	-1.394783	-2.151147
C	0.397845	-6.187987	-2.234582
C	0.523637	-3.798164	-2.965273
N	0.567586	-5.170003	-3.204744
C	-0.567421	-4.424987	3.226257
C	-0.439541	-2.036627	2.489446
N	-0.609650	-3.049156	3.459801
O	0.468608	-7.353131	-2.619468
O	0.683034	-2.986854	-3.874668
O	-0.725131	-5.248946	4.124806
O	-0.512648	-0.878829	2.895819
C	0.813908	-5.563799	-4.595691
H	0.822891	-6.664085	-4.640022
H	1.781600	-5.147101	-4.934830
H	0.020360	-5.148785	-5.246157
C	-0.851649	-2.587487	4.829716
H	-0.962191	-3.483329	5.462742
H	-1.765865	-1.964972	4.863242
H	-0.005383	-1.962932	5.173521
H	-0.010555	-7.822318	0.070208
C	0.000000	0.000000	0.000000
S	0.335026	0.718942	1.580530
C	1.027130	2.203226	0.904911
C	0.421617	0.904557	-0.985400
C	0.979485	2.101144	-0.493528
H	0.322049	0.690978	-2.059934
H	1.351718	2.899571	-1.152593
H	1.399246	3.001430	1.556025
$end

$rem
JOBTYPE		SP
EXCHANGE	HF
CORRELATION	pRIMP2
BASIS		cc-pvtz
METHOD		rimp2
AUX_BASIS	rimp2-cc-pvtz
SOLVENT_METHOD	PCM
PURECART	11111
SYMMETRY	false
MEM_TOTAL	110000
SCF_CONVERGENCE = 6
THRESH=10
GUI = 2
$end

$solvent
dielectric 4.90
$end
--------------------------------------------------------------

             Standard Nuclear Orientation (Angstroms)
    I     Atom           X                Y                Z
 ----------------------------------------------------------------
    1      C      -0.0431600000    -6.7414040000     0.2532800000
    2      C      -0.2697770000    -6.1556380000     1.5392130000
    3      C       0.1455430000    -5.7914520000    -0.8142950000
    4      C      -0.3183770000    -4.8037860000     1.8135190000
    5      H      -0.4220580000    -6.8215180000     2.4039410000
    6      C       0.0941940000    -4.3786380000    -0.5271400000
    7      C      -0.1371910000    -3.8380320000     0.7830720000
    8      C       0.2751040000    -3.4130620000    -1.5564030000
    9      C      -0.1881160000    -2.4264730000     1.0679320000
   10      C       0.2267010000    -2.0593480000    -1.2854200000
   11      C       0.0000000000    -1.4782160000     0.0000000000
   12      H       0.3789310000    -1.3947830000    -2.1511470000
   13      C       0.3978450000    -6.1879870000    -2.2345820000
   14      C       0.5236370000    -3.7981640000    -2.9652730000
   15      N       0.5675860000    -5.1700030000    -3.2047440000
   16      C      -0.5674210000    -4.4249870000     3.2262570000
   17      C      -0.4395410000    -2.0366270000     2.4894460000
   18      N      -0.6096500000    -3.0491560000     3.4598010000
   19      O       0.4686080000    -7.3531310000    -2.6194680000
   20      O       0.6830340000    -2.9868540000    -3.8746680000
   21      O      -0.7251310000    -5.2489460000     4.1248060000
   22      O      -0.5126480000    -0.8788290000     2.8958190000
   23      C       0.8139080000    -5.5637990000    -4.5956910000
   24      H       0.8228910000    -6.6640850000    -4.6400220000
   25      H       1.7816000000    -5.1471010000    -4.9348300000
   26      H       0.0203600000    -5.1487850000    -5.2461570000
   27      C      -0.8516490000    -2.5874870000     4.8297160000
   28      H      -0.9621910000    -3.4833290000     5.4627420000
   29      H      -1.7658650000    -1.9649720000     4.8632420000
   30      H      -0.0053830000    -1.9629320000     5.1735210000
   31      H      -0.0105550000    -7.8223180000     0.0702080000
   32      C       0.0000000000     0.0000000000     0.0000000000
   33      S       0.3350260000     0.7189420000     1.5805300000
   34      C       1.0271300000     2.2032260000     0.9049110000
   35      C       0.4216170000     0.9045570000    -0.9854000000
   36      C       0.9794850000     2.1011440000    -0.4935280000
   37      H       0.3220490000     0.6909780000    -2.0599340000
   38      H       1.3517180000     2.8995710000    -1.1525930000
   39      H       1.3992460000     3.0014300000     1.5560250000
 ----------------------------------------------------------------

   10   -1570.6510255532      9.23e-07  Convergence criterion met
 Total energy in the final basis set =    -1570.6510255532
        RIMP2         total energy =     -1575.2890775498 a.u.

                    Orbital Energies (a.u.)
 --------------------------------------------------------------

 Alpha MOs
 -- Occupied --
-91.9785 -20.5588 -20.5587 -20.5569 -20.5535 -15.6314 -15.6314 -11.3999
-11.3987 -11.3913 -11.3911 -11.3214 -11.3020 -11.3005 -11.2973 -11.2944
-11.2930 -11.2876 -11.2872 -11.2826 -11.2787 -11.2777 -11.2758 -11.2651
-11.2649 -11.2648 -11.2454  -8.9781  -6.6586  -6.6573  -6.6565  -1.4316
 -1.4251  -1.4067  -1.4045  -1.2689  -1.2664  -1.2167  -1.1748  -1.1424
 -1.1162  -1.0616  -1.0491  -0.9928  -0.9899  -0.9831  -0.9590  -0.9467
 -0.8970  -0.8798  -0.8774  -0.8626  -0.7931  -0.7781  -0.7764  -0.7616
 -0.7320  -0.7246  -0.7032  -0.6932  -0.6890  -0.6746  -0.6676  -0.6631
 -0.6570  -0.6404  -0.6378  -0.6361  -0.6267  -0.6145  -0.5839  -0.5837
 -0.5817  -0.5750  -0.5709  -0.5650  -0.5643  -0.5562  -0.5558  -0.5490
 -0.5328  -0.5264  -0.5204  -0.5170  -0.4899  -0.4736  -0.4649  -0.4630
 -0.4569  -0.4323  -0.4212  -0.4101  -0.3958  -0.3753  -0.3464  -0.3371
 -0.2963

          Ground-State Mulliken Net Atomic Charges

     Atom                 Charge (a.u.)
  ----------------------------------------
      1 C                    -0.148783
      2 C                    -0.111366
      3 C                    -0.027052
      4 C                    -0.004778
      5 H                     0.187832
      6 C                     0.001755
      7 C                     0.079898
      8 C                     0.008012
      9 C                    -0.089634
     10 C                    -0.132017
     11 C                     0.064616
     12 H                     0.179993
     13 C                     0.358691
     14 C                     0.363024
     15 N                    -0.101793
     16 C                     0.358315
     17 C                     0.374973
     18 N                    -0.092411
     19 O                    -0.463826
     20 O                    -0.477576
     21 O                    -0.483111
     22 O                    -0.457809
     23 C                    -0.201308
     24 H                     0.141304
     25 H                     0.112316
     26 H                     0.112374
     27 C                    -0.198203
     28 H                     0.134889
     29 H                     0.113297
     30 H                     0.113281
     31 H                     0.212187
     32 C                     0.019000
     33 S                     0.105772
     34 C                    -0.225028
     35 C                    -0.192266
     36 C                    -0.217128
     37 H                     0.188077
     38 H                     0.186569
     39 H                     0.207913
  ----------------------------------------
  Sum of atomic charges =     0.000000

                    Cartesian Multipole Moments
 -----------------------------------------------------------------
    Charge (ESU x 10^10)
                 0.0000
    Dipole Moment (Debye)
         X       0.7655      Y       1.5333      Z      -0.3935
       Tot       1.7584
    Quadrupole Moments (Debye-Ang)
        XX    -162.8480     XY       3.9587     YY    -172.5643
        XZ       3.6706     YZ       0.6245     ZZ    -175.6899

 Total job time:  287.73s(wall), 9196.44s(cpu)
        *  Thank you very much for using Q-Chem.  Have a nice day.  *
