 Q-Chem 5.4, Q-Chem, Inc., Pleasanton, CA (2021)
 Q-Chem 5.4.0 for Intel X86 EM64T Linux

User input:
--------------------------------------------------------------
$molecule
0 1
C	0.256927	-6.741404	-0.001478
C	1.562675	-6.155638	-0.001603
C	-0.827197	-5.791452	-0.001931
C	1.841253	-4.803786	-0.001374
H	2.440709	-6.821518	-0.001794
C	-0.535488	-4.378638	-0.001227
C	0.794999	-3.838032	-0.000872
C	-1.580529	-3.413062	-0.000658
C	1.084374	-2.426473	-0.000186
C	-1.305258	-2.059348	-0.000046
C	0.000000	-1.478216	0.000000
H	-2.184267	-1.394783	0.000369
C	-2.269719	-6.187987	-0.003770
C	-3.011152	-3.798164	-0.000767
N	-3.254617	-5.170003	-0.002465
C	3.275775	-4.424987	-0.001433
C	2.527951	-2.036627	0.000576
N	3.513104	-3.049156	-0.000400
O	-2.661046	-7.353131	-0.006623
O	-3.934410	-2.986854	0.000172
O	4.188059	-5.248946	-0.002151
O	2.940845	-0.878829	0.002006
C	-4.667206	-5.563799	-0.003509
H	-4.712423	-6.664085	-0.004658
H	-5.169231	-5.147101	-0.897610
H	-5.169992	-5.148785	0.890935
C	4.904229	-2.587487	0.000039
H	5.546833	-3.483329	-0.001022
H	5.095998	-1.964972	0.894545
H	5.095858	-1.962932	-0.893071
H	0.070974	-7.822318	-0.001797
C	0.000000	0.000000	0.000000
S	0.068929	0.790170	1.580530
C	0.211639	2.421655	0.904911
C	0.086813	0.994207	-0.985400
C	0.201782	2.309433	-0.493528
H	0.066299	0.759454	-2.059934
H	0.278488	3.187020	-1.152593
H	0.288312	3.298992	1.556025
$end

$rem
JOBTYPE		SP
EXCHANGE	HF
CORRELATION	pRIMP2
BASIS		cc-pvtz
METHOD		rimp2
AUX_BASIS	rimp2-cc-pvtz
SOLVENT_METHOD	PCM
PURECART	11111
SYMMETRY	false
MEM_TOTAL	110000
SCF_CONVERGENCE = 6
THRESH=10
GUI = 2
$end

$solvent
dielectric 4.90
$end
--------------------------------------------------------------

             Standard Nuclear Orientation (Angstroms)
    I     Atom           X                Y                Z
 ----------------------------------------------------------------
    1      C       0.2569270000    -6.7414040000    -0.0014780000
    2      C       1.5626750000    -6.1556380000    -0.0016030000
    3      C      -0.8271970000    -5.7914520000    -0.0019310000
    4      C       1.8412530000    -4.8037860000    -0.0013740000
    5      H       2.4407090000    -6.8215180000    -0.0017940000
    6      C      -0.5354880000    -4.3786380000    -0.0012270000
    7      C       0.7949990000    -3.8380320000    -0.0008720000
    8      C      -1.5805290000    -3.4130620000    -0.0006580000
    9      C       1.0843740000    -2.4264730000    -0.0001860000
   10      C      -1.3052580000    -2.0593480000    -0.0000460000
   11      C       0.0000000000    -1.4782160000     0.0000000000
   12      H      -2.1842670000    -1.3947830000     0.0003690000
   13      C      -2.2697190000    -6.1879870000    -0.0037700000
   14      C      -3.0111520000    -3.7981640000    -0.0007670000
   15      N      -3.2546170000    -5.1700030000    -0.0024650000
   16      C       3.2757750000    -4.4249870000    -0.0014330000
   17      C       2.5279510000    -2.0366270000     0.0005760000
   18      N       3.5131040000    -3.0491560000    -0.0004000000
   19      O      -2.6610460000    -7.3531310000    -0.0066230000
   20      O      -3.9344100000    -2.9868540000     0.0001720000
   21      O       4.1880590000    -5.2489460000    -0.0021510000
   22      O       2.9408450000    -0.8788290000     0.0020060000
   23      C      -4.6672060000    -5.5637990000    -0.0035090000
   24      H      -4.7124230000    -6.6640850000    -0.0046580000
   25      H      -5.1692310000    -5.1471010000    -0.8976100000
   26      H      -5.1699920000    -5.1487850000     0.8909350000
   27      C       4.9042290000    -2.5874870000     0.0000390000
   28      H       5.5468330000    -3.4833290000    -0.0010220000
   29      H       5.0959980000    -1.9649720000     0.8945450000
   30      H       5.0958580000    -1.9629320000    -0.8930710000
   31      H       0.0709740000    -7.8223180000    -0.0017970000
   32      C       0.0000000000     0.0000000000     0.0000000000
   33      S       0.0689290000     0.7901700000     1.5805300000
   34      C       0.2116390000     2.4216550000     0.9049110000
   35      C       0.0868130000     0.9942070000    -0.9854000000
   36      C       0.2017820000     2.3094330000    -0.4935280000
   37      H       0.0662990000     0.7594540000    -2.0599340000
   38      H       0.2784880000     3.1870200000    -1.1525930000
   39      H       0.2883120000     3.2989920000     1.5560250000
 ----------------------------------------------------------------

   10   -1570.6897732533      7.00e-07  Convergence criterion met
 Total energy in the final basis set =    -1570.6897732533
        RIMP2         total energy =     -1575.3132221772 a.u.

                    Orbital Energies (a.u.)
 --------------------------------------------------------------

 Alpha MOs
 -- Occupied --
-91.9916 -20.5589 -20.5576 -20.5564 -20.5559 -15.6315 -15.6315 -11.4006
-11.3976 -11.3935 -11.3908 -11.3157 -11.3090 -11.3035 -11.3018 -11.3002
-11.2998 -11.2929 -11.2877 -11.2864 -11.2813 -11.2803 -11.2789 -11.2649
-11.2647 -11.2546 -11.2497  -8.9908  -6.6716  -6.6711  -6.6705  -1.4252
 -1.4247  -1.4044  -1.4038  -1.2680  -1.2657  -1.2185  -1.1741  -1.1447
 -1.1186  -1.0637  -1.0509  -0.9936  -0.9894  -0.9823  -0.9597  -0.9490
 -0.8978  -0.8802  -0.8783  -0.8619  -0.7959  -0.7779  -0.7735  -0.7592
 -0.7374  -0.7194  -0.7054  -0.6956  -0.6811  -0.6732  -0.6668  -0.6626
 -0.6576  -0.6429  -0.6381  -0.6346  -0.6308  -0.6129  -0.5856  -0.5848
 -0.5783  -0.5729  -0.5663  -0.5645  -0.5620  -0.5555  -0.5531  -0.5489
 -0.5350  -0.5270  -0.5193  -0.5170  -0.4838  -0.4711  -0.4668  -0.4610
 -0.4598  -0.4539  -0.4287  -0.4185  -0.4093  -0.3540  -0.3510  -0.3335
 -0.3250

          Ground-State Mulliken Net Atomic Charges

     Atom                 Charge (a.u.)
  ----------------------------------------
      1 C                    -0.128680
      2 C                    -0.107401
      3 C                    -0.044518
      4 C                    -0.000051
      5 H                     0.189077
      6 C                    -0.003003
      7 C                     0.071908
      8 C                     0.004072
      9 C                    -0.004702
     10 C                    -0.122260
     11 C                     0.058928
     12 H                     0.180909
     13 C                     0.361179
     14 C                     0.370035
     15 N                    -0.101979
     16 C                     0.359520
     17 C                     0.360062
     18 N                    -0.097261
     19 O                    -0.464806
     20 O                    -0.476294
     21 O                    -0.479244
     22 O                    -0.457370
     23 C                    -0.200927
     24 H                     0.141069
     25 H                     0.112403
     26 H                     0.112631
     27 C                    -0.195858
     28 H                     0.133880
     29 H                     0.113677
     30 H                     0.113082
     31 H                     0.214897
     32 C                    -0.047805
     33 S                     0.032092
     34 C                    -0.211836
     35 C                    -0.173995
     36 C                    -0.201771
     37 H                     0.188468
     38 H                     0.191040
     39 H                     0.210832
  ----------------------------------------
  Sum of atomic charges =     0.000000

                    Cartesian Multipole Moments
 -----------------------------------------------------------------
    Charge (ESU x 10^10)
                 0.0000
    Dipole Moment (Debye)
         X       0.2970      Y       0.5989      Z      -0.9376
       Tot       1.1515
    Quadrupole Moments (Debye-Ang)
        XX    -184.1823     XY      -0.2911     YY    -163.2754
        XZ       0.1006     YZ       0.6262     ZZ    -157.5523

 Total job time:  441.03s(wall), 8386.48s(cpu)
        *  Thank you very much for using Q-Chem.  Have a nice day.  *
