 Q-Chem 5.4, Q-Chem, Inc., Pleasanton, CA (2021)
 Q-Chem 5.4.0 for Intel X86 EM64T Linux

User input:
--------------------------------------------------------------
$molecule
0 1
C	0.223244	-6.741404	0.127184
C	1.354118	-6.155638	0.779949
C	-0.715408	-5.791452	-0.415271
C	1.595259	-4.803786	0.919437
H	2.114613	-6.821518	1.218801
C	-0.463133	-4.378638	-0.268806
C	0.688925	-3.838032	0.396744
C	-1.368449	-3.413062	-0.790835
C	0.939189	-2.426473	0.542026
C	-1.130363	-2.059348	-0.652669
C	-0.000000	-1.478216	-0.000000
H	-1.891815	-1.394783	-1.091814
C	-1.963749	-6.187987	-1.138124
C	-2.607351	-3.798164	-1.506241
N	-2.817348	-5.170003	-1.629443
C	2.837621	-4.424987	1.636646
C	2.188982	-2.036627	1.264474
N	3.042637	-3.049156	1.756205
O	-2.301222	-7.353131	-1.336258
O	-3.407386	-2.986854	-1.967056
O	3.628041	-5.248946	2.092167
O	2.545844	-0.878829	1.472160
C	-4.040164	-5.563799	-2.336642
H	-4.078749	-6.664085	-2.360245
H	-4.027880	-5.147101	-3.361968
H	-4.922811	-5.148785	-1.813424
C	4.247167	-2.587487	2.452149
H	4.804209	-3.483329	2.772531
H	3.965991	-1.964972	3.322697
H	4.859678	-1.962932	1.774507
H	0.062364	-7.822318	0.033931
C	0.000000	0.000000	0.000000
S	0.335026	0.718942	1.580530
C	1.027130	2.203226	0.904911
C	0.421617	0.904557	-0.985400
C	0.979485	2.101144	-0.493528
H	0.322049	0.690978	-2.059934
H	1.351718	2.899571	-1.152593
H	1.399246	3.001430	1.556025
$end

$rem
JOBTYPE		SP
EXCHANGE	HF
CORRELATION	pRIMP2
BASIS		cc-pvtz
METHOD		rimp2
AUX_BASIS	rimp2-cc-pvtz
SOLVENT_METHOD	PCM
PURECART	11111
SYMMETRY	false
MEM_TOTAL	110000
SCF_CONVERGENCE = 6
THRESH=10
GUI = 2
$end

$solvent
dielectric 4.90
$end
--------------------------------------------------------------

             Standard Nuclear Orientation (Angstroms)
    I     Atom           X                Y                Z
 ----------------------------------------------------------------
    1      C       0.2232440000    -6.7414040000     0.1271840000
    2      C       1.3541180000    -6.1556380000     0.7799490000
    3      C      -0.7154080000    -5.7914520000    -0.4152710000
    4      C       1.5952590000    -4.8037860000     0.9194370000
    5      H       2.1146130000    -6.8215180000     1.2188010000
    6      C      -0.4631330000    -4.3786380000    -0.2688060000
    7      C       0.6889250000    -3.8380320000     0.3967440000
    8      C      -1.3684490000    -3.4130620000    -0.7908350000
    9      C       0.9391890000    -2.4264730000     0.5420260000
   10      C      -1.1303630000    -2.0593480000    -0.6526690000
   11      C       0.0000000000    -1.4782160000     0.0000000000
   12      H      -1.8918150000    -1.3947830000    -1.0918140000
   13      C      -1.9637490000    -6.1879870000    -1.1381240000
   14      C      -2.6073510000    -3.7981640000    -1.5062410000
   15      N      -2.8173480000    -5.1700030000    -1.6294430000
   16      C       2.8376210000    -4.4249870000     1.6366460000
   17      C       2.1889820000    -2.0366270000     1.2644740000
   18      N       3.0426370000    -3.0491560000     1.7562050000
   19      O      -2.3012220000    -7.3531310000    -1.3362580000
   20      O      -3.4073860000    -2.9868540000    -1.9670560000
   21      O       3.6280410000    -5.2489460000     2.0921670000
   22      O       2.5458440000    -0.8788290000     1.4721600000
   23      C      -4.0401640000    -5.5637990000    -2.3366420000
   24      H      -4.0787490000    -6.6640850000    -2.3602450000
   25      H      -4.0278800000    -5.1471010000    -3.3619680000
   26      H      -4.9228110000    -5.1487850000    -1.8134240000
   27      C       4.2471670000    -2.5874870000     2.4521490000
   28      H       4.8042090000    -3.4833290000     2.7725310000
   29      H       3.9659910000    -1.9649720000     3.3226970000
   30      H       4.8596780000    -1.9629320000     1.7745070000
   31      H       0.0623640000    -7.8223180000     0.0339310000
   32      C       0.0000000000     0.0000000000     0.0000000000
   33      S       0.3350260000     0.7189420000     1.5805300000
   34      C       1.0271300000     2.2032260000     0.9049110000
   35      C       0.4216170000     0.9045570000    -0.9854000000
   36      C       0.9794850000     2.1011440000    -0.4935280000
   37      H       0.3220490000     0.6909780000    -2.0599340000
   38      H       1.3517180000     2.8995710000    -1.1525930000
   39      H       1.3992460000     3.0014300000     1.5560250000
 ----------------------------------------------------------------

   10   -1570.6685429824      7.86e-07  Convergence criterion met
 Total energy in the final basis set =    -1570.6685429824
        RIMP2         total energy =     -1575.3003730463 a.u.

                    Orbital Energies (a.u.)
 --------------------------------------------------------------

 Alpha MOs
 -- Occupied --
-91.9831 -20.5585 -20.5560 -20.5542 -20.5523 -15.6310 -15.6297 -11.4000
-11.3943 -11.3918 -11.3902 -11.3153 -11.3040 -11.3024 -11.3005 -11.2976
-11.2973 -11.2856 -11.2852 -11.2849 -11.2841 -11.2800 -11.2758 -11.2645
-11.2642 -11.2612 -11.2475  -8.9829  -6.6635  -6.6629  -6.6626  -1.4247
 -1.4232  -1.4040  -1.4023  -1.2671  -1.2645  -1.2169  -1.1736  -1.1431
 -1.1168  -1.0619  -1.0492  -0.9926  -0.9881  -0.9817  -0.9588  -0.9480
 -0.8960  -0.8793  -0.8758  -0.8611  -0.7931  -0.7765  -0.7733  -0.7595
 -0.7342  -0.7187  -0.7045  -0.6942  -0.6808  -0.6726  -0.6659  -0.6617
 -0.6565  -0.6419  -0.6370  -0.6344  -0.6291  -0.6123  -0.5849  -0.5834
 -0.5770  -0.5717  -0.5664  -0.5639  -0.5632  -0.5551  -0.5531  -0.5482
 -0.5364  -0.5256  -0.5207  -0.5089  -0.4817  -0.4699  -0.4639  -0.4580
 -0.4562  -0.4506  -0.4274  -0.4180  -0.4087  -0.3602  -0.3391  -0.3350
 -0.3141

          Ground-State Mulliken Net Atomic Charges

     Atom                 Charge (a.u.)
  ----------------------------------------
      1 C                    -0.134882
      2 C                    -0.108189
      3 C                    -0.040961
      4 C                    -0.002097
      5 H                     0.188543
      6 C                    -0.008559
      7 C                     0.071776
      8 C                     0.014461
      9 C                    -0.019804
     10 C                    -0.154414
     11 C                     0.080015
     12 H                     0.180473
     13 C                     0.361010
     14 C                     0.366567
     15 N                    -0.101443
     16 C                     0.357827
     17 C                     0.381401
     18 N                    -0.095264
     19 O                    -0.464943
     20 O                    -0.476365
     21 O                    -0.481570
     22 O                    -0.458443
     23 C                    -0.201055
     24 H                     0.141020
     25 H                     0.112190
     26 H                     0.112458
     27 C                    -0.196218
     28 H                     0.133726
     29 H                     0.112459
     30 H                     0.112615
     31 H                     0.213827
     32 C                    -0.066888
     33 S                     0.043926
     34 C                    -0.183536
     35 C                    -0.167581
     36 C                    -0.214270
     37 H                     0.191408
     38 H                     0.190580
     39 H                     0.210200
  ----------------------------------------
  Sum of atomic charges =     0.000000

                    Cartesian Multipole Moments
 -----------------------------------------------------------------
    Charge (ESU x 10^10)
                 0.0000
    Dipole Moment (Debye)
         X       1.2877      Y       1.1194      Z      -0.7012
       Tot       1.8447
    Quadrupole Moments (Debye-Ang)
        XX    -177.4744     XY       4.1489     YY    -168.3875
        XZ      -7.9076     YZ       0.3070     ZZ    -162.3313

 Total job time:  314.42s(wall), 9763.37s(cpu)
        *  Thank you very much for using Q-Chem.  Have a nice day.  *
