 Q-Chem 5.4, Q-Chem, Inc., Pleasanton, CA (2021)
 Q-Chem 5.4.0 for Intel X86 EM64T Linux

User input:
--------------------------------------------------------------
$molecule
0 1
C	-0.256927	-6.741404	0.001478
C	-1.562675	-6.155638	0.001603
C	0.827197	-5.791452	0.001931
C	-1.841253	-4.803786	0.001374
H	-2.440709	-6.821518	0.001794
C	0.535488	-4.378638	0.001227
C	-0.794999	-3.838032	0.000872
C	1.580529	-3.413062	0.000658
C	-1.084374	-2.426473	0.000186
C	1.305258	-2.059348	0.000046
C	-0.000000	-1.478216	-0.000000
H	2.184267	-1.394783	-0.000369
C	2.269719	-6.187987	0.003770
C	3.011152	-3.798164	0.000767
N	3.254617	-5.170003	0.002465
C	-3.275775	-4.424987	0.001433
C	-2.527951	-2.036627	-0.000576
N	-3.513104	-3.049156	0.000400
O	2.661046	-7.353131	0.006623
O	3.934410	-2.986854	-0.000172
O	-4.188059	-5.248946	0.002151
O	-2.940845	-0.878829	-0.002006
C	4.667206	-5.563799	0.003509
H	4.712423	-6.664085	0.004658
H	5.169231	-5.147101	0.897610
H	5.169992	-5.148785	-0.890935
C	-4.904229	-2.587487	-0.000039
H	-5.546833	-3.483329	0.001022
H	-5.095998	-1.964972	-0.894545
H	-5.095858	-1.962932	0.893071
H	-0.070974	-7.822318	0.001797
C	0.000000	0.000000	0.000000
S	0.607475	0.509994	1.580530
C	1.862020	1.562717	0.904911
C	0.764397	0.641624	-0.985400
C	1.775697	1.490335	-0.493528
H	0.583895	0.490135	-2.059934
H	2.450484	2.056643	-1.152593
H	2.536607	2.128872	1.556025
$end

$rem
JOBTYPE		SP
EXCHANGE	HF
CORRELATION	pRIMP2
BASIS		cc-pvtz
METHOD		rimp2
AUX_BASIS	rimp2-cc-pvtz
SOLVENT_METHOD	PCM
PURECART	11111
SYMMETRY	false
MEM_TOTAL	110000
SCF_CONVERGENCE = 6
THRESH=10
GUI = 2
$end

$solvent
dielectric 4.90
$end
--------------------------------------------------------------

             Standard Nuclear Orientation (Angstroms)
    I     Atom           X                Y                Z
 ----------------------------------------------------------------
    1      C      -0.2569270000    -6.7414040000     0.0014780000
    2      C      -1.5626750000    -6.1556380000     0.0016030000
    3      C       0.8271970000    -5.7914520000     0.0019310000
    4      C      -1.8412530000    -4.8037860000     0.0013740000
    5      H      -2.4407090000    -6.8215180000     0.0017940000
    6      C       0.5354880000    -4.3786380000     0.0012270000
    7      C      -0.7949990000    -3.8380320000     0.0008720000
    8      C       1.5805290000    -3.4130620000     0.0006580000
    9      C      -1.0843740000    -2.4264730000     0.0001860000
   10      C       1.3052580000    -2.0593480000     0.0000460000
   11      C       0.0000000000    -1.4782160000     0.0000000000
   12      H       2.1842670000    -1.3947830000    -0.0003690000
   13      C       2.2697190000    -6.1879870000     0.0037700000
   14      C       3.0111520000    -3.7981640000     0.0007670000
   15      N       3.2546170000    -5.1700030000     0.0024650000
   16      C      -3.2757750000    -4.4249870000     0.0014330000
   17      C      -2.5279510000    -2.0366270000    -0.0005760000
   18      N      -3.5131040000    -3.0491560000     0.0004000000
   19      O       2.6610460000    -7.3531310000     0.0066230000
   20      O       3.9344100000    -2.9868540000    -0.0001720000
   21      O      -4.1880590000    -5.2489460000     0.0021510000
   22      O      -2.9408450000    -0.8788290000    -0.0020060000
   23      C       4.6672060000    -5.5637990000     0.0035090000
   24      H       4.7124230000    -6.6640850000     0.0046580000
   25      H       5.1692310000    -5.1471010000     0.8976100000
   26      H       5.1699920000    -5.1487850000    -0.8909350000
   27      C      -4.9042290000    -2.5874870000    -0.0000390000
   28      H      -5.5468330000    -3.4833290000     0.0010220000
   29      H      -5.0959980000    -1.9649720000    -0.8945450000
   30      H      -5.0958580000    -1.9629320000     0.8930710000
   31      H      -0.0709740000    -7.8223180000     0.0017970000
   32      C       0.0000000000     0.0000000000     0.0000000000
   33      S       0.6074750000     0.5099940000     1.5805300000
   34      C       1.8620200000     1.5627170000     0.9049110000
   35      C       0.7643970000     0.6416240000    -0.9854000000
   36      C       1.7756970000     1.4903350000    -0.4935280000
   37      H       0.5838950000     0.4901350000    -2.0599340000
   38      H       2.4504840000     2.0566430000    -1.1525930000
   39      H       2.5366070000     2.1288720000     1.5560250000
 ----------------------------------------------------------------

   10   -1570.6510769403      9.73e-07  Convergence criterion met
 Total energy in the final basis set =    -1570.6510769403
        RIMP2         total energy =     -1575.2850001512 a.u.

                    Orbital Energies (a.u.)
 --------------------------------------------------------------

 Alpha MOs
 -- Occupied --
-91.9948 -20.5577 -20.5550 -20.5547 -20.5540 -15.6304 -15.6295 -11.3991
-11.3947 -11.3914 -11.3894 -11.3153 -11.3008 -11.2991 -11.2976 -11.2973
-11.2957 -11.2956 -11.2841 -11.2829 -11.2793 -11.2779 -11.2762 -11.2680
-11.2643 -11.2637 -11.2553  -8.9945  -6.6752  -6.6746  -6.6742  -1.4240
 -1.4225  -1.4033  -1.4016  -1.2664  -1.2640  -1.2171  -1.1858  -1.1416
 -1.1153  -1.0621  -1.0477  -0.9928  -0.9916  -0.9911  -0.9582  -0.9461
 -0.8959  -0.8777  -0.8747  -0.8576  -0.7945  -0.7762  -0.7732  -0.7639
 -0.7365  -0.7178  -0.7063  -0.6933  -0.6816  -0.6738  -0.6653  -0.6612
 -0.6557  -0.6420  -0.6367  -0.6328  -0.6281  -0.6120  -0.5853  -0.5845
 -0.5779  -0.5769  -0.5674  -0.5632  -0.5616  -0.5546  -0.5524  -0.5473
 -0.5391  -0.5265  -0.5179  -0.4997  -0.4821  -0.4749  -0.4659  -0.4597
 -0.4592  -0.4523  -0.4267  -0.4174  -0.4070  -0.3721  -0.3338  -0.3315
 -0.3286

          Ground-State Mulliken Net Atomic Charges

     Atom                 Charge (a.u.)
  ----------------------------------------
      1 C                    -0.137925
      2 C                    -0.113406
      3 C                    -0.037454
      4 C                     0.002603
      5 H                     0.187791
      6 C                    -0.003789
      7 C                     0.081074
      8 C                    -0.018648
      9 C                    -0.031386
     10 C                    -0.106211
     11 C                     0.007856
     12 H                     0.186583
     13 C                     0.359543
     14 C                     0.361189
     15 N                    -0.101049
     16 C                     0.358220
     17 C                     0.367461
     18 N                    -0.097046
     19 O                    -0.466052
     20 O                    -0.479645
     21 O                    -0.481071
     22 O                    -0.458148
     23 C                    -0.201695
     24 H                     0.141033
     25 H                     0.112127
     26 H                     0.111938
     27 C                    -0.196975
     28 H                     0.133407
     29 H                     0.112676
     30 H                     0.112920
     31 H                     0.213215
     32 C                    -0.040968
     33 S                     0.044717
     34 C                    -0.164735
     35 C                    -0.148288
     36 C                    -0.209988
     37 H                     0.191118
     38 H                     0.194406
     39 H                     0.214607
  ----------------------------------------
  Sum of atomic charges =     0.000000

                    Cartesian Multipole Moments
 -----------------------------------------------------------------
    Charge (ESU x 10^10)
                 0.0000
    Dipole Moment (Debye)
         X       2.2841      Y       1.4389      Z      -0.8605
       Tot       2.8333
    Quadrupole Moments (Debye-Ang)
        XX    -178.2549     XY       7.2483     YY    -174.5828
        XZ       0.8071     YZ       0.6937     ZZ    -156.7356

 Total job time:  255.19s(wall), 7944.00s(cpu)
        *  Thank you very much for using Q-Chem.  Have a nice day.  *
