 Q-Chem 5.4, Q-Chem, Inc., Pleasanton, CA (2021)
 Q-Chem 5.4.0 for Intel X86 EM64T Linux

User input:
--------------------------------------------------------------
$molecule
0 1
C	0.127184	-6.741404	-0.223244
C	0.779949	-6.155638	-1.354118
C	-0.415271	-5.791452	0.715408
C	0.919437	-4.803786	-1.595259
H	1.218801	-6.821518	-2.114613
C	-0.268806	-4.378638	0.463133
C	0.396744	-3.838032	-0.688925
C	-0.790835	-3.413062	1.368449
C	0.542026	-2.426473	-0.939189
C	-0.652669	-2.059348	1.130363
C	-0.000000	-1.478216	-0.000000
H	-1.091814	-1.394783	1.891815
C	-1.138124	-6.187987	1.963749
C	-1.506241	-3.798164	2.607351
N	-1.629443	-5.170003	2.817348
C	1.636646	-4.424987	-2.837621
C	1.264474	-2.036627	-2.188982
N	1.756205	-3.049156	-3.042637
O	-1.336258	-7.353131	2.301222
O	-1.967056	-2.986854	3.407386
O	2.092167	-5.248946	-3.628041
O	1.472160	-0.878829	-2.545844
C	-2.336642	-5.563799	4.040164
H	-2.360245	-6.664085	4.078749
H	-3.361968	-5.147101	4.027880
H	-1.813424	-5.148785	4.922811
C	2.452149	-2.587487	-4.247167
H	2.772531	-3.483329	-4.804209
H	3.322697	-1.964972	-3.965991
H	1.774507	-1.962932	-4.859678
H	0.033931	-7.822318	-0.062364
C	0.000000	0.000000	0.000000
S	0.607475	0.509994	1.580530
C	1.862020	1.562717	0.904911
C	0.764397	0.641624	-0.985400
C	1.775697	1.490335	-0.493528
H	0.583895	0.490135	-2.059934
H	2.450484	2.056643	-1.152593
H	2.536607	2.128872	1.556025
$end

$rem
JOBTYPE		SP
EXCHANGE	HF
CORRELATION	pRIMP2
BASIS		cc-pvtz
METHOD		rimp2
AUX_BASIS	rimp2-cc-pvtz
SOLVENT_METHOD	PCM
PURECART	11111
SYMMETRY	false
MEM_TOTAL	110000
SCF_CONVERGENCE = 6
THRESH=10
GUI = 2
$end

$solvent
dielectric 4.90
$end
--------------------------------------------------------------

             Standard Nuclear Orientation (Angstroms)
    I     Atom           X                Y                Z
 ----------------------------------------------------------------
    1      C       0.1271840000    -6.7414040000    -0.2232440000
    2      C       0.7799490000    -6.1556380000    -1.3541180000
    3      C      -0.4152710000    -5.7914520000     0.7154080000
    4      C       0.9194370000    -4.8037860000    -1.5952590000
    5      H       1.2188010000    -6.8215180000    -2.1146130000
    6      C      -0.2688060000    -4.3786380000     0.4631330000
    7      C       0.3967440000    -3.8380320000    -0.6889250000
    8      C      -0.7908350000    -3.4130620000     1.3684490000
    9      C       0.5420260000    -2.4264730000    -0.9391890000
   10      C      -0.6526690000    -2.0593480000     1.1303630000
   11      C       0.0000000000    -1.4782160000     0.0000000000
   12      H      -1.0918140000    -1.3947830000     1.8918150000
   13      C      -1.1381240000    -6.1879870000     1.9637490000
   14      C      -1.5062410000    -3.7981640000     2.6073510000
   15      N      -1.6294430000    -5.1700030000     2.8173480000
   16      C       1.6366460000    -4.4249870000    -2.8376210000
   17      C       1.2644740000    -2.0366270000    -2.1889820000
   18      N       1.7562050000    -3.0491560000    -3.0426370000
   19      O      -1.3362580000    -7.3531310000     2.3012220000
   20      O      -1.9670560000    -2.9868540000     3.4073860000
   21      O       2.0921670000    -5.2489460000    -3.6280410000
   22      O       1.4721600000    -0.8788290000    -2.5458440000
   23      C      -2.3366420000    -5.5637990000     4.0401640000
   24      H      -2.3602450000    -6.6640850000     4.0787490000
   25      H      -3.3619680000    -5.1471010000     4.0278800000
   26      H      -1.8134240000    -5.1487850000     4.9228110000
   27      C       2.4521490000    -2.5874870000    -4.2471670000
   28      H       2.7725310000    -3.4833290000    -4.8042090000
   29      H       3.3226970000    -1.9649720000    -3.9659910000
   30      H       1.7745070000    -1.9629320000    -4.8596780000
   31      H       0.0339310000    -7.8223180000    -0.0623640000
   32      C       0.0000000000     0.0000000000     0.0000000000
   33      S       0.6074750000     0.5099940000     1.5805300000
   34      C       1.8620200000     1.5627170000     0.9049110000
   35      C       0.7643970000     0.6416240000    -0.9854000000
   36      C       1.7756970000     1.4903350000    -0.4935280000
   37      H       0.5838950000     0.4901350000    -2.0599340000
   38      H       2.4504840000     2.0566430000    -1.1525930000
   39      H       2.5366070000     2.1288720000     1.5560250000
 ----------------------------------------------------------------

   11   -1570.6233974653      5.54e-07  Convergence criterion met
 Total energy in the final basis set =    -1570.6233974653
        RIMP2         total energy =     -1575.2586530435 a.u.

                    Orbital Energies (a.u.)
 --------------------------------------------------------------

 Alpha MOs
 -- Occupied --
-91.9902 -20.5574 -20.5549 -20.5522 -20.5512 -15.6302 -15.6298 -11.3983
-11.3976 -11.3898 -11.3890 -11.3190 -11.3069 -11.2998 -11.2971 -11.2898
-11.2887 -11.2883 -11.2842 -11.2791 -11.2760 -11.2732 -11.2663 -11.2651
-11.2650 -11.2636 -11.2496  -8.9905  -6.6713  -6.6706  -6.6701  -1.4277
 -1.4235  -1.4046  -1.4028  -1.2671  -1.2647  -1.2148  -1.1828  -1.1411
 -1.1128  -1.0609  -1.0461  -0.9943  -0.9908  -0.9892  -0.9577  -0.9461
 -0.8954  -0.8774  -0.8731  -0.8601  -0.7942  -0.7766  -0.7732  -0.7658
 -0.7351  -0.7308  -0.7020  -0.6916  -0.6795  -0.6719  -0.6659  -0.6616
 -0.6542  -0.6400  -0.6369  -0.6336  -0.6252  -0.6115  -0.5887  -0.5855
 -0.5787  -0.5749  -0.5647  -0.5622  -0.5577  -0.5551  -0.5529  -0.5460
 -0.5329  -0.5216  -0.5194  -0.5134  -0.4796  -0.4686  -0.4649  -0.4606
 -0.4549  -0.4428  -0.4282  -0.4182  -0.4072  -0.3760  -0.3446  -0.3347
 -0.2981

          Ground-State Mulliken Net Atomic Charges

     Atom                 Charge (a.u.)
  ----------------------------------------
      1 C                    -0.160006
      2 C                    -0.109802
      3 C                    -0.026084
      4 C                    -0.006410
      5 H                     0.186560
      6 C                    -0.016674
      7 C                     0.085943
      8 C                     0.010026
      9 C                    -0.097696
     10 C                    -0.144125
     11 C                     0.084358
     12 H                     0.168602
     13 C                     0.359936
     14 C                     0.364746
     15 N                    -0.101270
     16 C                     0.357507
     17 C                     0.401525
     18 N                    -0.090008
     19 O                    -0.464748
     20 O                    -0.477268
     21 O                    -0.484833
     22 O                    -0.481856
     23 C                    -0.201582
     24 H                     0.140832
     25 H                     0.112201
     26 H                     0.112107
     27 C                    -0.199677
     28 H                     0.134984
     29 H                     0.112073
     30 H                     0.112395
     31 H                     0.210559
     32 C                    -0.120257
     33 S                     0.028375
     34 C                    -0.138531
     35 C                    -0.063271
     36 C                    -0.230399
     37 H                     0.220096
     38 H                     0.192522
     39 H                     0.219150
  ----------------------------------------
  Sum of atomic charges =     0.000000

                    Cartesian Multipole Moments
 -----------------------------------------------------------------
    Charge (ESU x 10^10)
                 0.0000
    Dipole Moment (Debye)
         X       2.6668      Y       2.8466      Z      -1.1216
       Tot       4.0587
    Quadrupole Moments (Debye-Ang)
        XX    -161.4509     XY       6.9823     YY    -180.4096
        XZ       9.9357     YZ      -0.0015     ZZ    -172.9148

 Total job time:  274.83s(wall), 8585.73s(cpu)
        *  Thank you very much for using Q-Chem.  Have a nice day.  *
