 Q-Chem 5.4, Q-Chem, Inc., Pleasanton, CA (2021)
 Q-Chem 5.4.0 for Intel X86 EM64T Linux

User input:
--------------------------------------------------------------
$molecule
0 1
C	0.001478	-6.741404	0.256927
C	0.001603	-6.155638	1.562675
C	0.001931	-5.791452	-0.827197
C	0.001374	-4.803786	1.841253
H	0.001794	-6.821518	2.440709
C	0.001227	-4.378638	-0.535488
C	0.000872	-3.838032	0.794999
C	0.000658	-3.413062	-1.580529
C	0.000186	-2.426473	1.084374
C	0.000046	-2.059348	-1.305258
C	0.000000	-1.478216	0.000000
H	-0.000369	-1.394783	-2.184267
C	0.003770	-6.187987	-2.269719
C	0.000767	-3.798164	-3.011152
N	0.002465	-5.170003	-3.254617
C	0.001433	-4.424987	3.275775
C	-0.000576	-2.036627	2.527951
N	0.000400	-3.049156	3.513104
O	0.006623	-7.353131	-2.661046
O	-0.000172	-2.986854	-3.934410
O	0.002151	-5.248946	4.188059
O	-0.002006	-0.878829	2.940845
C	0.003509	-5.563799	-4.667206
H	0.004658	-6.664085	-4.712423
H	0.897610	-5.147101	-5.169231
H	-0.890935	-5.148785	-5.169992
C	-0.000039	-2.587487	4.904229
H	0.001022	-3.483329	5.546833
H	-0.894545	-1.964972	5.095998
H	0.893071	-1.962932	5.095858
H	0.001797	-7.822318	0.070974
C	0.000000	0.000000	0.000000
S	0.205093	0.766196	1.580530
C	0.628939	2.348114	0.904911
C	0.258137	0.964028	-0.985400
C	0.599745	2.239309	-0.493528
H	0.197169	0.736404	-2.059934
H	0.827678	3.090243	-1.152593
H	0.856796	3.198808	1.556025
$end

$rem
JOBTYPE		SP
EXCHANGE	HF
CORRELATION	pRIMP2
BASIS		cc-pvtz
METHOD		rimp2
AUX_BASIS	rimp2-cc-pvtz
SOLVENT_METHOD	PCM
PURECART	11111
SYMMETRY	false
MEM_TOTAL	110000
SCF_CONVERGENCE = 6
THRESH=10
GUI = 2
$end

$solvent
dielectric 4.90
$end
--------------------------------------------------------------

             Standard Nuclear Orientation (Angstroms)
    I     Atom           X                Y                Z
 ----------------------------------------------------------------
    1      C       0.0014780000    -6.7414040000     0.2569270000
    2      C       0.0016030000    -6.1556380000     1.5626750000
    3      C       0.0019310000    -5.7914520000    -0.8271970000
    4      C       0.0013740000    -4.8037860000     1.8412530000
    5      H       0.0017940000    -6.8215180000     2.4407090000
    6      C       0.0012270000    -4.3786380000    -0.5354880000
    7      C       0.0008720000    -3.8380320000     0.7949990000
    8      C       0.0006580000    -3.4130620000    -1.5805290000
    9      C       0.0001860000    -2.4264730000     1.0843740000
   10      C       0.0000460000    -2.0593480000    -1.3052580000
   11      C       0.0000000000    -1.4782160000     0.0000000000
   12      H      -0.0003690000    -1.3947830000    -2.1842670000
   13      C       0.0037700000    -6.1879870000    -2.2697190000
   14      C       0.0007670000    -3.7981640000    -3.0111520000
   15      N       0.0024650000    -5.1700030000    -3.2546170000
   16      C       0.0014330000    -4.4249870000     3.2757750000
   17      C      -0.0005760000    -2.0366270000     2.5279510000
   18      N       0.0004000000    -3.0491560000     3.5131040000
   19      O       0.0066230000    -7.3531310000    -2.6610460000
   20      O      -0.0001720000    -2.9868540000    -3.9344100000
   21      O       0.0021510000    -5.2489460000     4.1880590000
   22      O      -0.0020060000    -0.8788290000     2.9408450000
   23      C       0.0035090000    -5.5637990000    -4.6672060000
   24      H       0.0046580000    -6.6640850000    -4.7124230000
   25      H       0.8976100000    -5.1471010000    -5.1692310000
   26      H      -0.8909350000    -5.1487850000    -5.1699920000
   27      C      -0.0000390000    -2.5874870000     4.9042290000
   28      H       0.0010220000    -3.4833290000     5.5468330000
   29      H      -0.8945450000    -1.9649720000     5.0959980000
   30      H       0.8930710000    -1.9629320000     5.0958580000
   31      H       0.0017970000    -7.8223180000     0.0709740000
   32      C       0.0000000000     0.0000000000     0.0000000000
   33      S       0.2050930000     0.7661960000     1.5805300000
   34      C       0.6289390000     2.3481140000     0.9049110000
   35      C       0.2581370000     0.9640280000    -0.9854000000
   36      C       0.5997450000     2.2393090000    -0.4935280000
   37      H       0.1971690000     0.7364040000    -2.0599340000
   38      H       0.8276780000     3.0902430000    -1.1525930000
   39      H       0.8567960000     3.1988080000     1.5560250000
 ----------------------------------------------------------------

   10   -1570.6430050004      9.10e-07  Convergence criterion met
 Total energy in the final basis set =    -1570.6430050004
        RIMP2         total energy =     -1575.2824869181 a.u.

                    Orbital Energies (a.u.)
 --------------------------------------------------------------

 Alpha MOs
 -- Occupied --
-91.9754 -20.5606 -20.5591 -20.5572 -20.5542 -15.6327 -15.6317 -11.4011
-11.4003 -11.3921 -11.3914 -11.3221 -11.3025 -11.3015 -11.2995 -11.2954
-11.2937 -11.2891 -11.2879 -11.2834 -11.2792 -11.2788 -11.2681 -11.2658
-11.2649 -11.2614 -11.2425  -8.9751  -6.6556  -6.6540  -6.6531  -1.4357
 -1.4254  -1.4083  -1.4048  -1.2706  -1.2669  -1.2173  -1.1723  -1.1423
 -1.1170  -1.0618  -1.0499  -0.9935  -0.9901  -0.9804  -0.9597  -0.9468
 -0.8981  -0.8808  -0.8784  -0.8638  -0.7935  -0.7792  -0.7777  -0.7597
 -0.7324  -0.7291  -0.7026  -0.6934  -0.6896  -0.6747  -0.6687  -0.6637
 -0.6578  -0.6414  -0.6390  -0.6368  -0.6273  -0.6149  -0.5847  -0.5835
 -0.5813  -0.5765  -0.5715  -0.5653  -0.5620  -0.5568  -0.5564  -0.5495
 -0.5330  -0.5258  -0.5216  -0.5187  -0.4900  -0.4727  -0.4688  -0.4636
 -0.4571  -0.4329  -0.4210  -0.4103  -0.3839  -0.3755  -0.3421  -0.3375
 -0.2949

          Ground-State Mulliken Net Atomic Charges

     Atom                 Charge (a.u.)
  ----------------------------------------
      1 C                    -0.147398
      2 C                    -0.111800
      3 C                    -0.028055
      4 C                    -0.002282
      5 H                     0.187997
      6 C                     0.004330
      7 C                     0.081312
      8 C                     0.002591
      9 C                    -0.087523
     10 C                    -0.132589
     11 C                     0.065025
     12 H                     0.183287
     13 C                     0.359053
     14 C                     0.363081
     15 N                    -0.101848
     16 C                     0.358939
     17 C                     0.377324
     18 N                    -0.091549
     19 O                    -0.463670
     20 O                    -0.476821
     21 O                    -0.482156
     22 O                    -0.439974
     23 C                    -0.201152
     24 H                     0.141299
     25 H                     0.112426
     26 H                     0.112467
     27 C                    -0.198988
     28 H                     0.135482
     29 H                     0.113707
     30 H                     0.113625
     31 H                     0.212466
     32 C                     0.004823
     33 S                     0.099449
     34 C                    -0.233143
     35 C                    -0.169326
     36 C                    -0.235995
     37 H                     0.186825
     38 H                     0.183303
     39 H                     0.205461
  ----------------------------------------
  Sum of atomic charges =     0.000000

                    Cartesian Multipole Moments
 -----------------------------------------------------------------
    Charge (ESU x 10^10)
                 0.0000
    Dipole Moment (Debye)
         X       0.4400      Y       1.0034      Z      -0.1412
       Tot       1.1047
    Quadrupole Moments (Debye-Ang)
        XX    -163.4663     XY       2.4344     YY    -171.0249
        XZ       0.3016     YZ       0.1805     ZZ    -175.5307

 Total job time:  259.47s(wall), 7627.76s(cpu)
        *  Thank you very much for using Q-Chem.  Have a nice day.  *
