 Q-Chem 5.4, Q-Chem, Inc., Pleasanton, CA (2021)
 Q-Chem 5.4.0 for Intel X86 EM64T Linux

User input:
--------------------------------------------------------------
$molecule
0 1
C	0.241938	-6.741404	0.086486
C	1.468983	-6.155638	0.532960
C	-0.776651	-5.791452	-0.284733
C	1.730681	-4.803786	0.628455
H	2.294130	-6.821518	0.833086
C	-0.502775	-4.378638	-0.184300
C	0.747353	-3.838032	0.271086
C	-1.484986	-3.413062	-0.541191
C	1.019042	-2.426473	0.370703
C	-1.226525	-2.059348	-0.446468
C	-0.000000	-1.478216	-0.000000
H	-2.052666	-1.394783	-0.746717
C	-2.131549	-6.187987	-0.779832
C	-2.829295	-3.798164	-1.030596
N	-3.057496	-5.170003	-1.115461
C	3.078712	-4.424987	1.119034
C	2.375300	-2.036627	0.865151
N	3.301374	-3.049156	1.201176
O	-2.498300	-7.353131	-0.916355
O	-3.697195	-2.986854	-1.345486
O	3.936224	-5.248946	1.430379
O	2.762805	-0.878829	1.007714
C	-4.384539	-5.563799	-1.599576
H	-4.426636	-6.664085	-1.616121
H	-4.550487	-5.147101	-2.611458
H	-5.162921	-5.148785	-0.931037
C	4.608454	-2.587487	1.677382
H	5.212668	-3.483329	1.896168
H	4.482719	-1.964972	2.583531
H	5.093988	-1.962932	0.903674
H	0.067309	-7.822318	0.022586
C	0.000000	0.000000	0.000000
S	0.686805	0.396760	1.580530
C	2.105095	1.215640	0.904911
C	0.864201	0.499140	-0.985400
C	2.007514	1.159347	-0.493528
H	0.660136	0.381296	-2.059934
H	2.770388	1.599875	-1.152593
H	2.867745	1.656053	1.556025
$end

$rem
JOBTYPE		SP
EXCHANGE	HF
CORRELATION	pRIMP2
BASIS		cc-pvtz
METHOD		rimp2
AUX_BASIS	rimp2-cc-pvtz
SOLVENT_METHOD	PCM
PURECART	11111
SYMMETRY	false
MEM_TOTAL	110000
SCF_CONVERGENCE = 6
THRESH=10
GUI = 2
$end

$solvent
dielectric 4.90
$end
--------------------------------------------------------------

             Standard Nuclear Orientation (Angstroms)
    I     Atom           X                Y                Z
 ----------------------------------------------------------------
    1      C       0.2419380000    -6.7414040000     0.0864860000
    2      C       1.4689830000    -6.1556380000     0.5329600000
    3      C      -0.7766510000    -5.7914520000    -0.2847330000
    4      C       1.7306810000    -4.8037860000     0.6284550000
    5      H       2.2941300000    -6.8215180000     0.8330860000
    6      C      -0.5027750000    -4.3786380000    -0.1843000000
    7      C       0.7473530000    -3.8380320000     0.2710860000
    8      C      -1.4849860000    -3.4130620000    -0.5411910000
    9      C       1.0190420000    -2.4264730000     0.3707030000
   10      C      -1.2265250000    -2.0593480000    -0.4464680000
   11      C       0.0000000000    -1.4782160000     0.0000000000
   12      H      -2.0526660000    -1.3947830000    -0.7467170000
   13      C      -2.1315490000    -6.1879870000    -0.7798320000
   14      C      -2.8292950000    -3.7981640000    -1.0305960000
   15      N      -3.0574960000    -5.1700030000    -1.1154610000
   16      C       3.0787120000    -4.4249870000     1.1190340000
   17      C       2.3753000000    -2.0366270000     0.8651510000
   18      N       3.3013740000    -3.0491560000     1.2011760000
   19      O      -2.4983000000    -7.3531310000    -0.9163550000
   20      O      -3.6971950000    -2.9868540000    -1.3454860000
   21      O       3.9362240000    -5.2489460000     1.4303790000
   22      O       2.7628050000    -0.8788290000     1.0077140000
   23      C      -4.3845390000    -5.5637990000    -1.5995760000
   24      H      -4.4266360000    -6.6640850000    -1.6161210000
   25      H      -4.5504870000    -5.1471010000    -2.6114580000
   26      H      -5.1629210000    -5.1487850000    -0.9310370000
   27      C       4.6084540000    -2.5874870000     1.6773820000
   28      H       5.2126680000    -3.4833290000     1.8961680000
   29      H       4.4827190000    -1.9649720000     2.5835310000
   30      H       5.0939880000    -1.9629320000     0.9036740000
   31      H       0.0673090000    -7.8223180000     0.0225860000
   32      C       0.0000000000     0.0000000000     0.0000000000
   33      S       0.6868050000     0.3967600000     1.5805300000
   34      C       2.1050950000     1.2156400000     0.9049110000
   35      C       0.8642010000     0.4991400000    -0.9854000000
   36      C       2.0075140000     1.1593470000    -0.4935280000
   37      H       0.6601360000     0.3812960000    -2.0599340000
   38      H       2.7703880000     1.5998750000    -1.1525930000
   39      H       2.8677450000     1.6560530000     1.5560250000
 ----------------------------------------------------------------

   11   -1570.5798272059      7.53e-07  Convergence criterion met
 Total energy in the final basis set =    -1570.5798272059
        RIMP2         total energy =     -1575.2293375111 a.u.

                    Orbital Energies (a.u.)
 --------------------------------------------------------------

 Alpha MOs
 -- Occupied --
-91.9734 -20.5573 -20.5543 -20.5519 -20.5482 -15.6294 -15.6285 -11.3985
-11.3917 -11.3896 -11.3880 -11.3122 -11.3073 -11.3004 -11.2971 -11.2925
-11.2921 -11.2920 -11.2816 -11.2814 -11.2775 -11.2774 -11.2664 -11.2649
-11.2635 -11.2504 -11.2386  -8.9747  -6.6553  -6.6546  -6.6543  -1.4257
 -1.4232  -1.4037  -1.4025  -1.2662  -1.2642  -1.2144  -1.1799  -1.1396
 -1.1129  -1.0594  -1.0453  -0.9916  -0.9879  -0.9846  -0.9575  -0.9485
 -0.8953  -0.8771  -0.8679  -0.8574  -0.7894  -0.7775  -0.7709  -0.7620
 -0.7337  -0.7172  -0.7032  -0.6945  -0.6828  -0.6702  -0.6647  -0.6611
 -0.6549  -0.6492  -0.6365  -0.6345  -0.6262  -0.6097  -0.5866  -0.5823
 -0.5782  -0.5730  -0.5667  -0.5633  -0.5555  -0.5540  -0.5531  -0.5476
 -0.5408  -0.5235  -0.5173  -0.4957  -0.4773  -0.4698  -0.4613  -0.4558
 -0.4530  -0.4276  -0.4214  -0.4180  -0.4074  -0.3549  -0.3369  -0.3297
 -0.3047

          Ground-State Mulliken Net Atomic Charges

     Atom                 Charge (a.u.)
  ----------------------------------------
      1 C                    -0.146848
      2 C                    -0.110551
      3 C                    -0.034954
      4 C                     0.002933
      5 H                     0.186974
      6 C                    -0.013044
      7 C                     0.069326
      8 C                     0.008061
      9 C                    -0.073561
     10 C                    -0.138109
     11 C                     0.085107
     12 H                     0.179588
     13 C                     0.359951
     14 C                     0.364586
     15 N                    -0.101303
     16 C                     0.352109
     17 C                     0.402806
     18 N                    -0.092608
     19 O                    -0.465421
     20 O                    -0.476389
     21 O                    -0.486266
     22 O                    -0.465115
     23 C                    -0.201599
     24 H                     0.140611
     25 H                     0.111816
     26 H                     0.112268
     27 C                    -0.197019
     28 H                     0.135160
     29 H                     0.110831
     30 H                     0.110452
     31 H                     0.212149
     32 C                    -0.177664
     33 S                    -0.007235
     34 C                    -0.003828
     35 C                    -0.077396
     36 C                    -0.259266
     37 H                     0.193243
     38 H                     0.183062
     39 H                     0.207144
  ----------------------------------------
  Sum of atomic charges =     0.000000

                    Cartesian Multipole Moments
 -----------------------------------------------------------------
    Charge (ESU x 10^10)
                 0.0000
    Dipole Moment (Debye)
         X       3.8800      Y       1.4852      Z      -0.7168
       Tot       4.2159
    Quadrupole Moments (Debye-Ang)
        XX    -171.3663     XY       6.0844     YY    -181.0819
        XZ      -4.3805     YZ       0.3946     ZZ    -159.5726

 Total job time:  292.16s(wall), 8426.37s(cpu)
        *  Thank you very much for using Q-Chem.  Have a nice day.  *
