 Q-Chem 5.4, Q-Chem, Inc., Pleasanton, CA (2021)
 Q-Chem 5.4.0 for Intel X86 EM64T Linux

User input:
--------------------------------------------------------------
$molecule
0 1
C	-0.241938	-6.741404	-0.086486
C	-1.468983	-6.155638	-0.532960
C	0.776651	-5.791452	0.284733
C	-1.730681	-4.803786	-0.628455
H	-2.294130	-6.821518	-0.833086
C	0.502775	-4.378638	0.184300
C	-0.747353	-3.838032	-0.271086
C	1.484986	-3.413062	0.541191
C	-1.019042	-2.426473	-0.370703
C	1.226525	-2.059348	0.446468
C	-0.000000	-1.478216	-0.000000
H	2.052666	-1.394783	0.746717
C	2.131549	-6.187987	0.779832
C	2.829295	-3.798164	1.030596
N	3.057496	-5.170003	1.115461
C	-3.078712	-4.424987	-1.119034
C	-2.375300	-2.036627	-0.865151
N	-3.301374	-3.049156	-1.201176
O	2.498300	-7.353131	0.916355
O	3.697195	-2.986854	1.345486
O	-3.936224	-5.248946	-1.430379
O	-2.762805	-0.878829	-1.007714
C	4.384539	-5.563799	1.599576
H	4.426636	-6.664085	1.616121
H	4.550487	-5.147101	2.611458
H	5.162921	-5.148785	0.931037
C	-4.608454	-2.587487	-1.677382
H	-5.212668	-3.483329	-1.896168
H	-4.482719	-1.964972	-2.583531
H	-5.093988	-1.962932	-0.903674
H	-0.067309	-7.822318	-0.022586
C	0.000000	0.000000	0.000000
S	0.686805	0.396760	1.580530
C	2.105095	1.215640	0.904911
C	0.864201	0.499140	-0.985400
C	2.007514	1.159347	-0.493528
H	0.660136	0.381296	-2.059934
H	2.770388	1.599875	-1.152593
H	2.867745	1.656053	1.556025
$end

$rem
JOBTYPE		SP
EXCHANGE	HF
CORRELATION	pRIMP2
BASIS		cc-pvtz
METHOD		rimp2
AUX_BASIS	rimp2-cc-pvtz
SOLVENT_METHOD	PCM
PURECART	11111
SYMMETRY	false
MEM_TOTAL	110000
SCF_CONVERGENCE = 6
THRESH=10
GUI = 2
$end

$solvent
dielectric 4.90
$end
--------------------------------------------------------------

             Standard Nuclear Orientation (Angstroms)
    I     Atom           X                Y                Z
 ----------------------------------------------------------------
    1      C      -0.2419380000    -6.7414040000    -0.0864860000
    2      C      -1.4689830000    -6.1556380000    -0.5329600000
    3      C       0.7766510000    -5.7914520000     0.2847330000
    4      C      -1.7306810000    -4.8037860000    -0.6284550000
    5      H      -2.2941300000    -6.8215180000    -0.8330860000
    6      C       0.5027750000    -4.3786380000     0.1843000000
    7      C      -0.7473530000    -3.8380320000    -0.2710860000
    8      C       1.4849860000    -3.4130620000     0.5411910000
    9      C      -1.0190420000    -2.4264730000    -0.3707030000
   10      C       1.2265250000    -2.0593480000     0.4464680000
   11      C       0.0000000000    -1.4782160000     0.0000000000
   12      H       2.0526660000    -1.3947830000     0.7467170000
   13      C       2.1315490000    -6.1879870000     0.7798320000
   14      C       2.8292950000    -3.7981640000     1.0305960000
   15      N       3.0574960000    -5.1700030000     1.1154610000
   16      C      -3.0787120000    -4.4249870000    -1.1190340000
   17      C      -2.3753000000    -2.0366270000    -0.8651510000
   18      N      -3.3013740000    -3.0491560000    -1.2011760000
   19      O       2.4983000000    -7.3531310000     0.9163550000
   20      O       3.6971950000    -2.9868540000     1.3454860000
   21      O      -3.9362240000    -5.2489460000    -1.4303790000
   22      O      -2.7628050000    -0.8788290000    -1.0077140000
   23      C       4.3845390000    -5.5637990000     1.5995760000
   24      H       4.4266360000    -6.6640850000     1.6161210000
   25      H       4.5504870000    -5.1471010000     2.6114580000
   26      H       5.1629210000    -5.1487850000     0.9310370000
   27      C      -4.6084540000    -2.5874870000    -1.6773820000
   28      H      -5.2126680000    -3.4833290000    -1.8961680000
   29      H      -4.4827190000    -1.9649720000    -2.5835310000
   30      H      -5.0939880000    -1.9629320000    -0.9036740000
   31      H      -0.0673090000    -7.8223180000    -0.0225860000
   32      C       0.0000000000     0.0000000000     0.0000000000
   33      S       0.6868050000     0.3967600000     1.5805300000
   34      C       2.1050950000     1.2156400000     0.9049110000
   35      C       0.8642010000     0.4991400000    -0.9854000000
   36      C       2.0075140000     1.1593470000    -0.4935280000
   37      H       0.6601360000     0.3812960000    -2.0599340000
   38      H       2.7703880000     1.5998750000    -1.1525930000
   39      H       2.8677450000     1.6560530000     1.5560250000
 ----------------------------------------------------------------

   11   -1570.6253921605      4.46e-07  Convergence criterion met
 Total energy in the final basis set =    -1570.6253921605
        RIMP2         total energy =     -1575.2654391271 a.u.

                    Orbital Energies (a.u.)
 --------------------------------------------------------------

 Alpha MOs
 -- Occupied --
-91.9937 -20.5567 -20.5540 -20.5526 -20.5523 -15.6295 -15.6280 -11.3981
-11.3925 -11.3899 -11.3882 -11.3165 -11.3065 -11.2990 -11.2953 -11.2935
-11.2927 -11.2926 -11.2817 -11.2801 -11.2800 -11.2757 -11.2739 -11.2734
-11.2639 -11.2630 -11.2591  -8.9943  -6.6749  -6.6741  -6.6739  -1.4231
 -1.4209  -1.4024  -1.4000  -1.2654  -1.2626  -1.2181  -1.1921  -1.1397
 -1.1132  -1.0622  -1.0459  -0.9981  -0.9938  -0.9903  -0.9571  -0.9448
 -0.8945  -0.8763  -0.8729  -0.8558  -0.7958  -0.7775  -0.7719  -0.7651
 -0.7370  -0.7174  -0.7071  -0.6926  -0.6814  -0.6735  -0.6643  -0.6602
 -0.6544  -0.6436  -0.6355  -0.6312  -0.6266  -0.6111  -0.5888  -0.5840
 -0.5796  -0.5772  -0.5675  -0.5623  -0.5600  -0.5543  -0.5522  -0.5466
 -0.5437  -0.5255  -0.5148  -0.4884  -0.4810  -0.4747  -0.4654  -0.4617
 -0.4580  -0.4509  -0.4256  -0.4167  -0.4058  -0.3787  -0.3410  -0.3295
 -0.3177

          Ground-State Mulliken Net Atomic Charges

     Atom                 Charge (a.u.)
  ----------------------------------------
      1 C                    -0.144554
      2 C                    -0.115863
      3 C                    -0.032260
      4 C                     0.002938
      5 H                     0.186864
      6 C                    -0.005475
      7 C                     0.075359
      8 C                    -0.008035
      9 C                    -0.039145
     10 C                    -0.146184
     11 C                     0.045123
     12 H                     0.185015
     13 C                     0.358493
     14 C                     0.359385
     15 N                    -0.100639
     16 C                     0.357041
     17 C                     0.368089
     18 N                    -0.096377
     19 O                    -0.466963
     20 O                    -0.482930
     21 O                    -0.482916
     22 O                    -0.462456
     23 C                    -0.202006
     24 H                     0.140925
     25 H                     0.111789
     26 H                     0.111622
     27 C                    -0.197581
     28 H                     0.133002
     29 H                     0.111910
     30 H                     0.112804
     31 H                     0.212080
     32 C                    -0.100025
     33 S                     0.045455
     34 C                    -0.144761
     35 C                    -0.073253
     36 C                    -0.224413
     37 H                     0.196163
     38 H                     0.194431
     39 H                     0.217346
  ----------------------------------------
  Sum of atomic charges =     0.000000

                    Cartesian Multipole Moments
 -----------------------------------------------------------------
    Charge (ESU x 10^10)
                 0.0000
    Dipole Moment (Debye)
         X       3.1668      Y       2.0255      Z      -0.8209
       Tot       3.8477
    Quadrupole Moments (Debye-Ang)
        XX    -173.9074     XY       6.5114     YY    -180.6330
        XZ      -6.1566     YZ       0.5679     ZZ    -158.8667

 Total job time:  283.15s(wall), 8234.42s(cpu)
        *  Thank you very much for using Q-Chem.  Have a nice day.  *
