 Q-Chem 5.4, Q-Chem, Inc., Pleasanton, CA (2021)
 Q-Chem 5.4.0 for Intel X86 EM64T Linux

User input:
--------------------------------------------------------------
$molecule
0 1
C	-0.256927	-6.741404	0.001478
C	-1.562675	-6.155638	0.001603
C	0.827197	-5.791452	0.001931
C	-1.841253	-4.803786	0.001374
H	-2.440709	-6.821518	0.001794
C	0.535488	-4.378638	0.001227
C	-0.794999	-3.838032	0.000872
C	1.580529	-3.413062	0.000658
C	-1.084374	-2.426473	0.000186
C	1.305258	-2.059348	0.000046
C	-0.000000	-1.478216	-0.000000
H	2.184267	-1.394783	-0.000369
C	2.269719	-6.187987	0.003770
C	3.011152	-3.798164	0.000767
N	3.254617	-5.170003	0.002465
C	-3.275775	-4.424987	0.001433
C	-2.527951	-2.036627	-0.000576
N	-3.513104	-3.049156	0.000400
O	2.661046	-7.353131	0.006623
O	3.934410	-2.986854	-0.000172
O	-4.188059	-5.248946	0.002151
O	-2.940845	-0.878829	-0.002006
C	4.667206	-5.563799	0.003509
H	4.712423	-6.664085	0.004658
H	5.169231	-5.147101	0.897610
H	5.169992	-5.148785	-0.890935
C	-4.904229	-2.587487	-0.000039
H	-5.546833	-3.483329	0.001022
H	-5.095998	-1.964972	-0.894545
H	-5.095858	-1.962932	0.893071
H	-0.070974	-7.822318	0.001797
C	0.000000	0.000000	0.000000
S	0.271091	0.745405	1.580530
C	0.831198	2.284363	0.904911
C	0.341175	0.937861	-0.985400
C	0.792631	2.178516	-0.493528
H	0.260601	0.716417	-2.059934
H	1.093860	3.006347	-1.152593
H	1.132330	3.111961	1.556025
$end

$rem
JOBTYPE		SP
EXCHANGE	HF
CORRELATION	pRIMP2
BASIS		cc-pvtz
METHOD		rimp2
AUX_BASIS	rimp2-cc-pvtz
SOLVENT_METHOD	PCM
PURECART	11111
SYMMETRY	false
MEM_TOTAL	110000
SCF_CONVERGENCE = 6
THRESH=10
GUI = 2
$end

$solvent
dielectric 4.90
$end
--------------------------------------------------------------

             Standard Nuclear Orientation (Angstroms)
    I     Atom           X                Y                Z
 ----------------------------------------------------------------
    1      C      -0.2569270000    -6.7414040000     0.0014780000
    2      C      -1.5626750000    -6.1556380000     0.0016030000
    3      C       0.8271970000    -5.7914520000     0.0019310000
    4      C      -1.8412530000    -4.8037860000     0.0013740000
    5      H      -2.4407090000    -6.8215180000     0.0017940000
    6      C       0.5354880000    -4.3786380000     0.0012270000
    7      C      -0.7949990000    -3.8380320000     0.0008720000
    8      C       1.5805290000    -3.4130620000     0.0006580000
    9      C      -1.0843740000    -2.4264730000     0.0001860000
   10      C       1.3052580000    -2.0593480000     0.0000460000
   11      C       0.0000000000    -1.4782160000     0.0000000000
   12      H       2.1842670000    -1.3947830000    -0.0003690000
   13      C       2.2697190000    -6.1879870000     0.0037700000
   14      C       3.0111520000    -3.7981640000     0.0007670000
   15      N       3.2546170000    -5.1700030000     0.0024650000
   16      C      -3.2757750000    -4.4249870000     0.0014330000
   17      C      -2.5279510000    -2.0366270000    -0.0005760000
   18      N      -3.5131040000    -3.0491560000     0.0004000000
   19      O       2.6610460000    -7.3531310000     0.0066230000
   20      O       3.9344100000    -2.9868540000    -0.0001720000
   21      O      -4.1880590000    -5.2489460000     0.0021510000
   22      O      -2.9408450000    -0.8788290000    -0.0020060000
   23      C       4.6672060000    -5.5637990000     0.0035090000
   24      H       4.7124230000    -6.6640850000     0.0046580000
   25      H       5.1692310000    -5.1471010000     0.8976100000
   26      H       5.1699920000    -5.1487850000    -0.8909350000
   27      C      -4.9042290000    -2.5874870000    -0.0000390000
   28      H      -5.5468330000    -3.4833290000     0.0010220000
   29      H      -5.0959980000    -1.9649720000    -0.8945450000
   30      H      -5.0958580000    -1.9629320000     0.8930710000
   31      H      -0.0709740000    -7.8223180000     0.0017970000
   32      C       0.0000000000     0.0000000000     0.0000000000
   33      S       0.2710910000     0.7454050000     1.5805300000
   34      C       0.8311980000     2.2843630000     0.9049110000
   35      C       0.3411750000     0.9378610000    -0.9854000000
   36      C       0.7926310000     2.1785160000    -0.4935280000
   37      H       0.2606010000     0.7164170000    -2.0599340000
   38      H       1.0938600000     3.0063470000    -1.1525930000
   39      H       1.1323300000     3.1119610000     1.5560250000
 ----------------------------------------------------------------

   10   -1570.6857459804      7.17e-07  Convergence criterion met
 Total energy in the final basis set =    -1570.6857459804
        RIMP2         total energy =     -1575.3101427577 a.u.

                    Orbital Energies (a.u.)
 --------------------------------------------------------------

 Alpha MOs
 -- Occupied --
-91.9925 -20.5587 -20.5580 -20.5562 -20.5558 -15.6315 -15.6314 -11.4004
-11.3978 -11.3934 -11.3907 -11.3162 -11.3075 -11.3031 -11.3011 -11.2997
-11.2992 -11.2932 -11.2873 -11.2862 -11.2820 -11.2808 -11.2794 -11.2648
-11.2647 -11.2561 -11.2509  -8.9918  -6.6726  -6.6721  -6.6715  -1.4251
 -1.4248  -1.4043  -1.4039  -1.2680  -1.2657  -1.2184  -1.1765  -1.1443
 -1.1183  -1.0636  -1.0506  -0.9934  -0.9903  -0.9839  -0.9596  -0.9484
 -0.8979  -0.8799  -0.8783  -0.8610  -0.7960  -0.7778  -0.7735  -0.7603
 -0.7372  -0.7193  -0.7056  -0.6953  -0.6817  -0.6738  -0.6668  -0.6626
 -0.6574  -0.6426  -0.6382  -0.6346  -0.6306  -0.6130  -0.5855  -0.5848
 -0.5783  -0.5735  -0.5669  -0.5645  -0.5624  -0.5555  -0.5533  -0.5487
 -0.5353  -0.5270  -0.5214  -0.5138  -0.4839  -0.4716  -0.4674  -0.4611
 -0.4606  -0.4540  -0.4286  -0.4185  -0.4090  -0.3606  -0.3451  -0.3337
 -0.3257

          Ground-State Mulliken Net Atomic Charges

     Atom                 Charge (a.u.)
  ----------------------------------------
      1 C                    -0.129252
      2 C                    -0.109375
      3 C                    -0.044343
      4 C                     0.001911
      5 H                     0.189024
      6 C                     0.002280
      7 C                     0.072877
      8 C                    -0.001783
      9 C                    -0.006101
     10 C                    -0.087583
     11 C                    -0.000739
     12 H                     0.188925
     13 C                     0.360912
     14 C                     0.364054
     15 N                    -0.101717
     16 C                     0.359918
     17 C                     0.353367
     18 N                    -0.099048
     19 O                    -0.464990
     20 O                    -0.476344
     21 O                    -0.479087
     22 O                    -0.457663
     23 C                    -0.201084
     24 H                     0.141091
     25 H                     0.112558
     26 H                     0.112358
     27 C                    -0.195738
     28 H                     0.133841
     29 H                     0.113188
     30 H                     0.113608
     31 H                     0.214656
     32 C                     0.006371
     33 S                     0.030820
     34 C                    -0.214485
     35 C                    -0.205590
     36 C                    -0.188957
     37 H                     0.188502
     38 H                     0.192563
     39 H                     0.211055
  ----------------------------------------
  Sum of atomic charges =     0.000000

                    Cartesian Multipole Moments
 -----------------------------------------------------------------
    Charge (ESU x 10^10)
                 0.0000
    Dipole Moment (Debye)
         X       0.6572      Y       0.6605      Z      -0.9300
       Tot       1.3165
    Quadrupole Moments (Debye-Ang)
        XX    -183.0057     XY       4.9445     YY    -165.0485
        XZ       0.2060     YZ       0.7320     ZZ    -157.4466

 Total job time:  260.73s(wall), 8152.53s(cpu)
        *  Thank you very much for using Q-Chem.  Have a nice day.  *
