 Q-Chem 5.4, Q-Chem, Inc., Pleasanton, CA (2021)
 Q-Chem 5.4.0 for Intel X86 EM64T Linux

User input:
--------------------------------------------------------------
$molecule
0 1
C	0.252767	-6.741404	-0.046070
C	1.538656	-6.155638	-0.272935
C	-0.814966	-5.791452	0.141739
C	1.813042	-4.803786	-0.321083
H	2.403318	-6.821518	-0.425592
C	-0.527566	-4.378638	0.091779
C	0.782769	-3.838032	-0.138909
C	-1.556632	-3.413062	0.273808
C	1.067868	-2.426473	-0.188483
C	-1.285436	-2.059348	0.226610
C	0.000000	-1.478216	0.000000
H	-2.151019	-1.394783	0.379657
C	-2.235891	-6.187987	0.390420
C	-2.965540	-3.798164	0.522125
N	-3.205600	-5.170003	0.562731
C	3.225760	-4.424987	-0.570244
C	2.489646	-2.036627	-0.438407
N	3.459662	-3.049156	-0.610438
O	-2.621768	-7.353131	0.455563
O	-3.874608	-2.986854	0.683373
O	4.124059	-5.248946	-0.729367
O	2.896516	-0.878829	-0.508697
C	-4.596910	-5.563799	0.806996
H	-4.641640	-6.664085	0.813717
H	-5.246567	-5.147101	0.013655
H	-4.936739	-5.148785	1.775159
C	4.829729	-2.587487	-0.851572
H	5.462387	-3.483329	-0.964204
H	5.173914	-1.964972	-0.003956
H	4.863360	-1.962932	-1.764390
H	0.069584	-7.822318	-0.014094
C	0.000000	0.000000	0.000000
S	0.509686	0.607733	1.580530
C	1.562368	1.862312	0.904911
C	0.641367	0.764613	-0.985400
C	1.489926	1.776040	-0.493528
H	0.489914	0.584081	-2.059934
H	2.056124	2.450920	-1.152593
H	2.128395	2.537007	1.556025
$end

$rem
JOBTYPE		SP
EXCHANGE	HF
CORRELATION	pRIMP2
BASIS		cc-pvtz
METHOD		rimp2
AUX_BASIS	rimp2-cc-pvtz
SOLVENT_METHOD	PCM
PURECART	11111
SYMMETRY	false
MEM_TOTAL	110000
SCF_CONVERGENCE = 6
THRESH=10
GUI = 2
$end

$solvent
dielectric 4.90
$end
--------------------------------------------------------------

             Standard Nuclear Orientation (Angstroms)
    I     Atom           X                Y                Z
 ----------------------------------------------------------------
    1      C       0.2527670000    -6.7414040000    -0.0460700000
    2      C       1.5386560000    -6.1556380000    -0.2729350000
    3      C      -0.8149660000    -5.7914520000     0.1417390000
    4      C       1.8130420000    -4.8037860000    -0.3210830000
    5      H       2.4033180000    -6.8215180000    -0.4255920000
    6      C      -0.5275660000    -4.3786380000     0.0917790000
    7      C       0.7827690000    -3.8380320000    -0.1389090000
    8      C      -1.5566320000    -3.4130620000     0.2738080000
    9      C       1.0678680000    -2.4264730000    -0.1884830000
   10      C      -1.2854360000    -2.0593480000     0.2266100000
   11      C       0.0000000000    -1.4782160000     0.0000000000
   12      H      -2.1510190000    -1.3947830000     0.3796570000
   13      C      -2.2358910000    -6.1879870000     0.3904200000
   14      C      -2.9655400000    -3.7981640000     0.5221250000
   15      N      -3.2056000000    -5.1700030000     0.5627310000
   16      C       3.2257600000    -4.4249870000    -0.5702440000
   17      C       2.4896460000    -2.0366270000    -0.4384070000
   18      N       3.4596620000    -3.0491560000    -0.6104380000
   19      O      -2.6217680000    -7.3531310000     0.4555630000
   20      O      -3.8746080000    -2.9868540000     0.6833730000
   21      O       4.1240590000    -5.2489460000    -0.7293670000
   22      O       2.8965160000    -0.8788290000    -0.5086970000
   23      C      -4.5969100000    -5.5637990000     0.8069960000
   24      H      -4.6416400000    -6.6640850000     0.8137170000
   25      H      -5.2465670000    -5.1471010000     0.0136550000
   26      H      -4.9367390000    -5.1487850000     1.7751590000
   27      C       4.8297290000    -2.5874870000    -0.8515720000
   28      H       5.4623870000    -3.4833290000    -0.9642040000
   29      H       5.1739140000    -1.9649720000    -0.0039560000
   30      H       4.8633600000    -1.9629320000    -1.7643900000
   31      H       0.0695840000    -7.8223180000    -0.0140940000
   32      C       0.0000000000     0.0000000000     0.0000000000
   33      S       0.5096860000     0.6077330000     1.5805300000
   34      C       1.5623680000     1.8623120000     0.9049110000
   35      C       0.6413670000     0.7646130000    -0.9854000000
   36      C       1.4899260000     1.7760400000    -0.4935280000
   37      H       0.4899140000     0.5840810000    -2.0599340000
   38      H       2.0561240000     2.4509200000    -1.1525930000
   39      H       2.1283950000     2.5370070000     1.5560250000
 ----------------------------------------------------------------

   10   -1570.6585047751      9.50e-07  Convergence criterion met
 Total energy in the final basis set =    -1570.6585047751
        RIMP2         total energy =     -1575.2912090908 a.u.

                    Orbital Energies (a.u.)
 --------------------------------------------------------------

 Alpha MOs
 -- Occupied --
-91.9894 -20.5579 -20.5550 -20.5541 -20.5528 -15.6303 -15.6294 -11.3994
-11.3937 -11.3916 -11.3891 -11.3122 -11.3018 -11.3016 -11.2992 -11.2967
-11.2965 -11.2901 -11.2850 -11.2832 -11.2795 -11.2723 -11.2720 -11.2644
-11.2640 -11.2629 -11.2473  -8.9890  -6.6698  -6.6692  -6.6686  -1.4240
 -1.4225  -1.4032  -1.4016  -1.2664  -1.2641  -1.2159  -1.1756  -1.1420
 -1.1155  -1.0605  -1.0480  -0.9921  -0.9877  -0.9838  -0.9583  -0.9477
 -0.8954  -0.8784  -0.8731  -0.8597  -0.7922  -0.7754  -0.7721  -0.7592
 -0.7357  -0.7174  -0.7044  -0.6940  -0.6791  -0.6703  -0.6654  -0.6613
 -0.6557  -0.6419  -0.6362  -0.6338  -0.6281  -0.6111  -0.5847  -0.5834
 -0.5756  -0.5744  -0.5656  -0.5632  -0.5583  -0.5543  -0.5517  -0.5480
 -0.5361  -0.5258  -0.5192  -0.5045  -0.4810  -0.4698  -0.4635  -0.4590
 -0.4551  -0.4486  -0.4268  -0.4174  -0.4077  -0.3569  -0.3435  -0.3315
 -0.3217

          Ground-State Mulliken Net Atomic Charges

     Atom                 Charge (a.u.)
  ----------------------------------------
      1 C                    -0.135281
      2 C                    -0.108338
      3 C                    -0.041437
      4 C                    -0.001503
      5 H                     0.188011
      6 C                    -0.009903
      7 C                     0.071200
      8 C                     0.020613
      9 C                    -0.012166
     10 C                    -0.157184
     11 C                     0.072956
     12 H                     0.180697
     13 C                     0.360832
     14 C                     0.364984
     15 N                    -0.101342
     16 C                     0.357423
     17 C                     0.368103
     18 N                    -0.092627
     19 O                    -0.465389
     20 O                    -0.476481
     21 O                    -0.482052
     22 O                    -0.457683
     23 C                    -0.201331
     24 H                     0.140838
     25 H                     0.112157
     26 H                     0.112301
     27 C                    -0.196838
     28 H                     0.133852
     29 H                     0.112669
     30 H                     0.111484
     31 H                     0.213698
     32 C                    -0.091788
     33 S                     0.027395
     34 C                    -0.181840
     35 C                    -0.154490
     36 C                    -0.167444
     37 H                     0.187151
     38 H                     0.186479
     39 H                     0.212275
  ----------------------------------------
  Sum of atomic charges =     0.000000

                    Cartesian Multipole Moments
 -----------------------------------------------------------------
    Charge (ESU x 10^10)
                 0.0000
    Dipole Moment (Debye)
         X       2.0425      Y       1.3767      Z      -1.0868
       Tot       2.6922
    Quadrupole Moments (Debye-Ang)
        XX    -179.1927     XY       5.4874     YY    -171.6874
        XZ       4.1216     YZ       0.7199     ZZ    -157.9747

 Total job time:  266.00s(wall), 7937.88s(cpu)
        *  Thank you very much for using Q-Chem.  Have a nice day.  *
