 Q-Chem 5.4, Q-Chem, Inc., Pleasanton, CA (2021)
 Q-Chem 5.4.0 for Intel X86 EM64T Linux

User input:
--------------------------------------------------------------
$molecule
0 1
C	0.166281	-6.741404	0.195868
C	1.005696	-6.155638	1.196048
C	-0.530233	-5.791452	-0.634911
C	1.184587	-4.803786	1.409599
H	1.570232	-6.821518	1.868538
C	-0.343266	-4.378638	-0.410996
C	0.511683	-3.838032	0.608444
C	-1.015440	-3.413062	-1.211179
C	0.697165	-2.426473	0.830559
C	-0.838968	-2.059348	-0.999915
C	-0.000000	-1.478216	-0.000000
H	-1.404302	-1.394783	-1.673009
C	-1.456059	-6.187987	-1.741129
C	-1.934944	-3.798164	-2.307170
N	-2.090139	-5.170003	-2.494766
C	2.106725	-4.424987	2.508468
C	1.624494	-2.036627	1.936893
N	2.258486	-3.049156	2.690936
O	-1.705414	-7.353131	-2.042736
O	-2.529122	-2.986854	-3.013823
O	2.693680	-5.248946	3.206857
O	1.888802	-0.878829	2.254108
C	-2.997334	-5.563799	-3.577543
H	-3.025519	-6.664085	-3.612920
H	-2.635109	-5.147101	-4.536833
H	-4.005702	-5.148785	-3.387762
C	3.152347	-2.587487	3.756883
H	3.566218	-3.483329	4.248464
H	2.590383	-1.964972	4.478763
H	3.959687	-1.962932	3.329599
H	0.046998	-7.822318	0.053215
C	0.000000	0.000000	0.000000
S	-0.000201	0.793171	1.580530
C	-0.000228	2.430885	0.904911
C	-0.000168	0.997990	-0.985400
C	-0.000267	2.318231	-0.493528
H	-0.000145	0.762343	-2.059934
H	-0.000339	3.199164	-1.152593
H	-0.000311	3.311566	1.556025
$end

$rem
JOBTYPE		SP
EXCHANGE	HF
CORRELATION	pRIMP2
BASIS		cc-pvtz
METHOD		rimp2
AUX_BASIS	rimp2-cc-pvtz
SOLVENT_METHOD	PCM
PURECART	11111
SYMMETRY	false
MEM_TOTAL	110000
SCF_CONVERGENCE = 6
THRESH=10
GUI = 2
$end

$solvent
dielectric 4.90
$end
--------------------------------------------------------------

             Standard Nuclear Orientation (Angstroms)
    I     Atom           X                Y                Z
 ----------------------------------------------------------------
    1      C       0.1662810000    -6.7414040000     0.1958680000
    2      C       1.0056960000    -6.1556380000     1.1960480000
    3      C      -0.5302330000    -5.7914520000    -0.6349110000
    4      C       1.1845870000    -4.8037860000     1.4095990000
    5      H       1.5702320000    -6.8215180000     1.8685380000
    6      C      -0.3432660000    -4.3786380000    -0.4109960000
    7      C       0.5116830000    -3.8380320000     0.6084440000
    8      C      -1.0154400000    -3.4130620000    -1.2111790000
    9      C       0.6971650000    -2.4264730000     0.8305590000
   10      C      -0.8389680000    -2.0593480000    -0.9999150000
   11      C       0.0000000000    -1.4782160000     0.0000000000
   12      H      -1.4043020000    -1.3947830000    -1.6730090000
   13      C      -1.4560590000    -6.1879870000    -1.7411290000
   14      C      -1.9349440000    -3.7981640000    -2.3071700000
   15      N      -2.0901390000    -5.1700030000    -2.4947660000
   16      C       2.1067250000    -4.4249870000     2.5084680000
   17      C       1.6244940000    -2.0366270000     1.9368930000
   18      N       2.2584860000    -3.0491560000     2.6909360000
   19      O      -1.7054140000    -7.3531310000    -2.0427360000
   20      O      -2.5291220000    -2.9868540000    -3.0138230000
   21      O       2.6936800000    -5.2489460000     3.2068570000
   22      O       1.8888020000    -0.8788290000     2.2541080000
   23      C      -2.9973340000    -5.5637990000    -3.5775430000
   24      H      -3.0255190000    -6.6640850000    -3.6129200000
   25      H      -2.6351090000    -5.1471010000    -4.5368330000
   26      H      -4.0057020000    -5.1487850000    -3.3877620000
   27      C       3.1523470000    -2.5874870000     3.7568830000
   28      H       3.5662180000    -3.4833290000     4.2484640000
   29      H       2.5903830000    -1.9649720000     4.4787630000
   30      H       3.9596870000    -1.9629320000     3.3295990000
   31      H       0.0469980000    -7.8223180000     0.0532150000
   32      C       0.0000000000     0.0000000000     0.0000000000
   33      S      -0.0002010000     0.7931710000     1.5805300000
   34      C      -0.0002280000     2.4308850000     0.9049110000
   35      C      -0.0001680000     0.9979900000    -0.9854000000
   36      C      -0.0002670000     2.3182310000    -0.4935280000
   37      H      -0.0001450000     0.7623430000    -2.0599340000
   38      H      -0.0003390000     3.1991640000    -1.1525930000
   39      H      -0.0003110000     3.3115660000     1.5560250000
 ----------------------------------------------------------------

   10   -1570.6793296225      7.44e-07  Convergence criterion met
 Total energy in the final basis set =    -1570.6793296225
        RIMP2         total energy =     -1575.3094300694 a.u.

                    Orbital Energies (a.u.)
 --------------------------------------------------------------

 Alpha MOs
 -- Occupied --
-91.9837 -20.5588 -20.5567 -20.5544 -20.5532 -15.6315 -15.6304 -11.4003
-11.3961 -11.3920 -11.3910 -11.3181 -11.3033 -11.3027 -11.3011 -11.2975
-11.2966 -11.2903 -11.2868 -11.2852 -11.2818 -11.2801 -11.2783 -11.2648
-11.2644 -11.2594 -11.2457  -8.9833  -6.6639  -6.6633  -6.6628  -1.4252
 -1.4246  -1.4045  -1.4036  -1.2677  -1.2653  -1.2174  -1.1731  -1.1436
 -1.1173  -1.0626  -1.0499  -0.9930  -0.9884  -0.9817  -0.9591  -0.9478
 -0.8968  -0.8797  -0.8777  -0.8618  -0.7943  -0.7771  -0.7741  -0.7605
 -0.7331  -0.7190  -0.7042  -0.6941  -0.6835  -0.6740  -0.6665  -0.6623
 -0.6569  -0.6411  -0.6374  -0.6343  -0.6289  -0.6134  -0.5843  -0.5832
 -0.5790  -0.5707  -0.5673  -0.5660  -0.5642  -0.5556  -0.5541  -0.5485
 -0.5336  -0.5242  -0.5210  -0.5175  -0.4843  -0.4722  -0.4642  -0.4614
 -0.4575  -0.4451  -0.4276  -0.4178  -0.4092  -0.3690  -0.3408  -0.3366
 -0.3043

          Ground-State Mulliken Net Atomic Charges

     Atom                 Charge (a.u.)
  ----------------------------------------
      1 C                    -0.138563
      2 C                    -0.108692
      3 C                    -0.038481
      4 C                    -0.004508
      5 H                     0.188725
      6 C                     0.000035
      7 C                     0.078351
      8 C                     0.000063
      9 C                    -0.064497
     10 C                    -0.142612
     11 C                     0.108273
     12 H                     0.184520
     13 C                     0.360627
     14 C                     0.367676
     15 N                    -0.101570
     16 C                     0.359794
     17 C                     0.373472
     18 N                    -0.095250
     19 O                    -0.464361
     20 O                    -0.476612
     21 O                    -0.481654
     22 O                    -0.462650
     23 C                    -0.200988
     24 H                     0.141162
     25 H                     0.112217
     26 H                     0.112500
     27 C                    -0.196420
     28 H                     0.133896
     29 H                     0.112914
     30 H                     0.113046
     31 H                     0.213612
     32 C                    -0.054729
     33 S                     0.073147
     34 C                    -0.204575
     35 C                    -0.167606
     36 C                    -0.222969
     37 H                     0.192720
     38 H                     0.188929
     39 H                     0.211055
  ----------------------------------------
  Sum of atomic charges =     0.000000

                    Cartesian Multipole Moments
 -----------------------------------------------------------------
    Charge (ESU x 10^10)
                 0.0000
    Dipole Moment (Debye)
         X       0.2162      Y       1.2071      Z      -0.5549
       Tot       1.3460
    Quadrupole Moments (Debye-Ang)
        XX    -172.5246     XY      -0.0345     YY    -166.8531
        XZ      -9.5678     YZ       0.5579     ZZ    -168.8837

 Total job time:  250.46s(wall), 7743.19s(cpu)
        *  Thank you very much for using Q-Chem.  Have a nice day.  *
