 Q-Chem 5.4, Q-Chem, Inc., Pleasanton, CA (2021)
 Q-Chem 5.4.0 for Intel X86 EM64T Linux

User input:
--------------------------------------------------------------
$molecule
0 1
C	-0.252767	-6.741404	0.046070
C	-1.538656	-6.155638	0.272935
C	0.814966	-5.791452	-0.141739
C	-1.813042	-4.803786	0.321083
H	-2.403318	-6.821518	0.425592
C	0.527566	-4.378638	-0.091779
C	-0.782769	-3.838032	0.138909
C	1.556632	-3.413062	-0.273808
C	-1.067868	-2.426473	0.188483
C	1.285436	-2.059348	-0.226610
C	0.000000	-1.478216	0.000000
H	2.151019	-1.394783	-0.379657
C	2.235891	-6.187987	-0.390420
C	2.965540	-3.798164	-0.522125
N	3.205600	-5.170003	-0.562731
C	-3.225760	-4.424987	0.570244
C	-2.489646	-2.036627	0.438407
N	-3.459662	-3.049156	0.610438
O	2.621768	-7.353131	-0.455563
O	3.874608	-2.986854	-0.683373
O	-4.124059	-5.248946	0.729367
O	-2.896516	-0.878829	0.508697
C	4.596910	-5.563799	-0.806996
H	4.641640	-6.664085	-0.813717
H	5.246567	-5.147101	-0.013655
H	4.936739	-5.148785	-1.775159
C	-4.829729	-2.587487	0.851572
H	-5.462387	-3.483329	0.964204
H	-5.173914	-1.964972	0.003956
H	-4.863360	-1.962932	1.764390
H	-0.069584	-7.822318	0.014094
C	0.000000	0.000000	0.000000
S	0.137535	0.781156	1.580530
C	0.421895	2.393994	0.904911
C	0.173134	0.982857	-0.985400
C	0.402294	2.283058	-0.493528
H	0.132237	0.750786	-2.059934
H	0.555196	3.150621	-1.152593
H	0.574741	3.261310	1.556025
$end

$rem
JOBTYPE		SP
EXCHANGE	HF
CORRELATION	pRIMP2
BASIS		cc-pvtz
METHOD		rimp2
AUX_BASIS	rimp2-cc-pvtz
SOLVENT_METHOD	PCM
PURECART	11111
SYMMETRY	false
MEM_TOTAL	110000
SCF_CONVERGENCE = 6
THRESH=10
GUI = 2
$end

$solvent
dielectric 4.90
$end
--------------------------------------------------------------

             Standard Nuclear Orientation (Angstroms)
    I     Atom           X                Y                Z
 ----------------------------------------------------------------
    1      C      -0.2527670000    -6.7414040000     0.0460700000
    2      C      -1.5386560000    -6.1556380000     0.2729350000
    3      C       0.8149660000    -5.7914520000    -0.1417390000
    4      C      -1.8130420000    -4.8037860000     0.3210830000
    5      H      -2.4033180000    -6.8215180000     0.4255920000
    6      C       0.5275660000    -4.3786380000    -0.0917790000
    7      C      -0.7827690000    -3.8380320000     0.1389090000
    8      C       1.5566320000    -3.4130620000    -0.2738080000
    9      C      -1.0678680000    -2.4264730000     0.1884830000
   10      C       1.2854360000    -2.0593480000    -0.2266100000
   11      C       0.0000000000    -1.4782160000     0.0000000000
   12      H       2.1510190000    -1.3947830000    -0.3796570000
   13      C       2.2358910000    -6.1879870000    -0.3904200000
   14      C       2.9655400000    -3.7981640000    -0.5221250000
   15      N       3.2056000000    -5.1700030000    -0.5627310000
   16      C      -3.2257600000    -4.4249870000     0.5702440000
   17      C      -2.4896460000    -2.0366270000     0.4384070000
   18      N      -3.4596620000    -3.0491560000     0.6104380000
   19      O       2.6217680000    -7.3531310000    -0.4555630000
   20      O       3.8746080000    -2.9868540000    -0.6833730000
   21      O      -4.1240590000    -5.2489460000     0.7293670000
   22      O      -2.8965160000    -0.8788290000     0.5086970000
   23      C       4.5969100000    -5.5637990000    -0.8069960000
   24      H       4.6416400000    -6.6640850000    -0.8137170000
   25      H       5.2465670000    -5.1471010000    -0.0136550000
   26      H       4.9367390000    -5.1487850000    -1.7751590000
   27      C      -4.8297290000    -2.5874870000     0.8515720000
   28      H      -5.4623870000    -3.4833290000     0.9642040000
   29      H      -5.1739140000    -1.9649720000     0.0039560000
   30      H      -4.8633600000    -1.9629320000     1.7643900000
   31      H      -0.0695840000    -7.8223180000     0.0140940000
   32      C       0.0000000000     0.0000000000     0.0000000000
   33      S       0.1375350000     0.7811560000     1.5805300000
   34      C       0.4218950000     2.3939940000     0.9049110000
   35      C       0.1731340000     0.9828570000    -0.9854000000
   36      C       0.4022940000     2.2830580000    -0.4935280000
   37      H       0.1322370000     0.7507860000    -2.0599340000
   38      H       0.5551960000     3.1506210000    -1.1525930000
   39      H       0.5747410000     3.2613100000     1.5560250000
 ----------------------------------------------------------------

   10   -1570.6898792312      7.00e-07  Convergence criterion met
 Total energy in the final basis set =    -1570.6898792312
        RIMP2         total energy =     -1575.3133655894 a.u.

                    Orbital Energies (a.u.)
 --------------------------------------------------------------

 Alpha MOs
 -- Occupied --
-91.9915 -20.5589 -20.5579 -20.5565 -20.5559 -15.6316 -15.6316 -11.4006
-11.3978 -11.3935 -11.3910 -11.3164 -11.3085 -11.3035 -11.3018 -11.3002
-11.2997 -11.2943 -11.2877 -11.2866 -11.2813 -11.2804 -11.2796 -11.2649
-11.2648 -11.2552 -11.2501  -8.9907  -6.6715  -6.6710  -6.6704  -1.4253
 -1.4249  -1.4045  -1.4040  -1.2682  -1.2659  -1.2187  -1.1751  -1.1447
 -1.1187  -1.0639  -1.0510  -0.9937  -0.9898  -0.9829  -0.9597  -0.9488
 -0.8980  -0.8802  -0.8787  -0.8616  -0.7961  -0.7780  -0.7737  -0.7601
 -0.7367  -0.7196  -0.7056  -0.6955  -0.6817  -0.6739  -0.6669  -0.6627
 -0.6577  -0.6428  -0.6383  -0.6346  -0.6308  -0.6132  -0.5855  -0.5850
 -0.5785  -0.5730  -0.5667  -0.5646  -0.5629  -0.5556  -0.5534  -0.5489
 -0.5342  -0.5268  -0.5201  -0.5174  -0.4840  -0.4715  -0.4673  -0.4612
 -0.4598  -0.4541  -0.4288  -0.4186  -0.4094  -0.3573  -0.3492  -0.3349
 -0.3231

          Ground-State Mulliken Net Atomic Charges

     Atom                 Charge (a.u.)
  ----------------------------------------
      1 C                    -0.128886
      2 C                    -0.108326
      3 C                    -0.044406
      4 C                     0.000493
      5 H                     0.189135
      6 C                     0.000338
      7 C                     0.072025
      8 C                     0.002885
      9 C                    -0.010399
     10 C                    -0.101358
     11 C                     0.025485
     12 H                     0.185354
     13 C                     0.360990
     14 C                     0.366499
     15 N                    -0.101909
     16 C                     0.360128
     17 C                     0.353499
     18 N                    -0.098525
     19 O                    -0.464660
     20 O                    -0.476267
     21 O                    -0.479258
     22 O                    -0.457056
     23 C                    -0.201025
     24 H                     0.141144
     25 H                     0.112646
     26 H                     0.112375
     27 C                    -0.195673
     28 H                     0.133695
     29 H                     0.113390
     30 H                     0.113700
     31 H                     0.214839
     32 C                    -0.014648
     33 S                     0.032902
     34 C                    -0.213451
     35 C                    -0.190302
     36 C                    -0.197709
     37 H                     0.189789
     38 H                     0.191804
     39 H                     0.210742
  ----------------------------------------
  Sum of atomic charges =     0.000000

                    Cartesian Multipole Moments
 -----------------------------------------------------------------
    Charge (ESU x 10^10)
                 0.0000
    Dipole Moment (Debye)
         X       0.2610      Y       0.5926      Z      -0.9069
       Tot       1.1143
    Quadrupole Moments (Debye-Ang)
        XX    -183.2699     XY       3.1491     YY    -163.6450
        XZ       3.4785     YZ       0.5221     ZZ    -158.1203

 Total job time:  277.34s(wall), 8657.03s(cpu)
        *  Thank you very much for using Q-Chem.  Have a nice day.  *
