 Q-Chem 5.4, Q-Chem, Inc., Pleasanton, CA (2021)
 Q-Chem 5.4.0 for Intel X86 EM64T Linux

User input:
--------------------------------------------------------------
$molecule
0 1
C	0.240927	-6.741404	-0.089263
C	1.467886	-6.155638	-0.535973
C	-0.777972	-5.791452	0.281103
C	1.729742	-4.803786	-0.631036
H	2.292903	-6.821518	-0.836458
C	-0.503614	-4.378638	0.181995
C	0.746756	-3.838032	-0.272725
C	-1.485437	-3.413062	0.539954
C	1.018915	-2.426473	-0.371053
C	-1.226557	-2.059348	0.446381
C	-0.000000	-1.478216	-0.000000
H	-2.052413	-1.394783	0.747410
C	-2.134128	-6.187987	0.772747
C	-2.829820	-3.798164	1.029154
N	-3.059182	-5.170003	1.110828
C	3.077731	-4.424987	-1.121728
C	2.375694	-2.036627	-0.864069
N	3.301101	-3.049156	-1.201928
O	-2.502830	-7.353131	0.903908
O	-3.697078	-2.986854	1.345809
O	3.934752	-5.248946	-1.434422
O	2.764177	-0.878829	-1.003943
C	-4.386939	-5.563799	1.592981
H	-4.429822	-6.664085	1.607367
H	-5.164489	-5.147101	0.924504
H	-4.553486	-5.148785	2.605446
C	4.608481	-2.587487	-1.677308
H	5.211969	-3.483329	-1.898089
H	5.094624	-1.964972	-0.902337
H	4.483092	-1.962932	-2.582098
H	0.066080	-7.822318	-0.025963
C	0.000000	0.000000	0.000000
S	0.607475	0.509994	1.580530
C	1.862020	1.562717	0.904911
C	0.764397	0.641624	-0.985400
C	1.775697	1.490335	-0.493528
H	0.583895	0.490135	-2.059934
H	2.450484	2.056643	-1.152593
H	2.536607	2.128872	1.556025
$end

$rem
JOBTYPE		SP
EXCHANGE	HF
CORRELATION	pRIMP2
BASIS		cc-pvtz
METHOD		rimp2
AUX_BASIS	rimp2-cc-pvtz
SOLVENT_METHOD	PCM
PURECART	11111
SYMMETRY	false
MEM_TOTAL	110000
SCF_CONVERGENCE = 6
THRESH=10
GUI = 2
$end

$solvent
dielectric 4.90
$end
--------------------------------------------------------------

             Standard Nuclear Orientation (Angstroms)
    I     Atom           X                Y                Z
 ----------------------------------------------------------------
    1      C       0.2409270000    -6.7414040000    -0.0892630000
    2      C       1.4678860000    -6.1556380000    -0.5359730000
    3      C      -0.7779720000    -5.7914520000     0.2811030000
    4      C       1.7297420000    -4.8037860000    -0.6310360000
    5      H       2.2929030000    -6.8215180000    -0.8364580000
    6      C      -0.5036140000    -4.3786380000     0.1819950000
    7      C       0.7467560000    -3.8380320000    -0.2727250000
    8      C      -1.4854370000    -3.4130620000     0.5399540000
    9      C       1.0189150000    -2.4264730000    -0.3710530000
   10      C      -1.2265570000    -2.0593480000     0.4463810000
   11      C       0.0000000000    -1.4782160000     0.0000000000
   12      H      -2.0524130000    -1.3947830000     0.7474100000
   13      C      -2.1341280000    -6.1879870000     0.7727470000
   14      C      -2.8298200000    -3.7981640000     1.0291540000
   15      N      -3.0591820000    -5.1700030000     1.1108280000
   16      C       3.0777310000    -4.4249870000    -1.1217280000
   17      C       2.3756940000    -2.0366270000    -0.8640690000
   18      N       3.3011010000    -3.0491560000    -1.2019280000
   19      O      -2.5028300000    -7.3531310000     0.9039080000
   20      O      -3.6970780000    -2.9868540000     1.3458090000
   21      O       3.9347520000    -5.2489460000    -1.4344220000
   22      O       2.7641770000    -0.8788290000    -1.0039430000
   23      C      -4.3869390000    -5.5637990000     1.5929810000
   24      H      -4.4298220000    -6.6640850000     1.6073670000
   25      H      -5.1644890000    -5.1471010000     0.9245040000
   26      H      -4.5534860000    -5.1487850000     2.6054460000
   27      C       4.6084810000    -2.5874870000    -1.6773080000
   28      H       5.2119690000    -3.4833290000    -1.8980890000
   29      H       5.0946240000    -1.9649720000    -0.9023370000
   30      H       4.4830920000    -1.9629320000    -2.5820980000
   31      H       0.0660800000    -7.8223180000    -0.0259630000
   32      C       0.0000000000     0.0000000000     0.0000000000
   33      S       0.6074750000     0.5099940000     1.5805300000
   34      C       1.8620200000     1.5627170000     0.9049110000
   35      C       0.7643970000     0.6416240000    -0.9854000000
   36      C       1.7756970000     1.4903350000    -0.4935280000
   37      H       0.5838950000     0.4901350000    -2.0599340000
   38      H       2.4504840000     2.0566430000    -1.1525930000
   39      H       2.5366070000     2.1288720000     1.5560250000
 ----------------------------------------------------------------

   11   -1570.6355036505      4.35e-07  Convergence criterion met
 Total energy in the final basis set =    -1570.6355036505
        RIMP2         total energy =     -1575.2722492291 a.u.

                    Orbital Energies (a.u.)
 --------------------------------------------------------------

 Alpha MOs
 -- Occupied --
-91.9871 -20.5576 -20.5546 -20.5538 -20.5509 -15.6298 -15.6297 -11.3989
-11.3945 -11.3912 -11.3885 -11.3127 -11.3010 -11.2984 -11.2965 -11.2944
-11.2941 -11.2937 -11.2831 -11.2826 -11.2785 -11.2701 -11.2698 -11.2648
-11.2637 -11.2617 -11.2469  -8.9871  -6.6679  -6.6672  -6.6667  -1.4236
 -1.4234  -1.4028  -1.4025  -1.2663  -1.2642  -1.2151  -1.1783  -1.1409
 -1.1142  -1.0596  -1.0468  -0.9918  -0.9880  -0.9856  -0.9580  -0.9474
 -0.8951  -0.8778  -0.8711  -0.8589  -0.7912  -0.7748  -0.7724  -0.7601
 -0.7351  -0.7179  -0.7033  -0.6932  -0.6809  -0.6703  -0.6652  -0.6612
 -0.6549  -0.6424  -0.6362  -0.6341  -0.6268  -0.6106  -0.5855  -0.5834
 -0.5769  -0.5743  -0.5652  -0.5630  -0.5566  -0.5535  -0.5516  -0.5481
 -0.5366  -0.5250  -0.5183  -0.5029  -0.4806  -0.4697  -0.4628  -0.4594
 -0.4541  -0.4465  -0.4268  -0.4172  -0.4068  -0.3589  -0.3391  -0.3323
 -0.3147

          Ground-State Mulliken Net Atomic Charges

     Atom                 Charge (a.u.)
  ----------------------------------------
      1 C                    -0.142227
      2 C                    -0.108404
      3 C                    -0.036697
      4 C                    -0.003232
      5 H                     0.187541
      6 C                    -0.012357
      7 C                     0.076684
      8 C                     0.015998
      9 C                    -0.050540
     10 C                    -0.150121
     11 C                     0.080137
     12 H                     0.181981
     13 C                     0.360483
     14 C                     0.364495
     15 N                    -0.101267
     16 C                     0.357735
     17 C                     0.384191
     18 N                    -0.092039
     19 O                    -0.465425
     20 O                    -0.476627
     21 O                    -0.482793
     22 O                    -0.467850
     23 C                    -0.201499
     24 H                     0.140682
     25 H                     0.112154
     26 H                     0.112258
     27 C                    -0.196560
     28 H                     0.134491
     29 H                     0.112264
     30 H                     0.111032
     31 H                     0.212806
     32 C                    -0.148467
     33 S                     0.023196
     34 C                    -0.174790
     35 C                    -0.087880
     36 C                    -0.153161
     37 H                     0.190608
     38 H                     0.181147
     39 H                     0.212055
  ----------------------------------------
  Sum of atomic charges =     0.000000

                    Cartesian Multipole Moments
 -----------------------------------------------------------------
    Charge (ESU x 10^10)
                 0.0000
    Dipole Moment (Debye)
         X       2.7697      Y       1.5947      Z      -1.3448
       Tot       3.4674
    Quadrupole Moments (Debye-Ang)
        XX    -174.7163     XY       5.9627     YY    -175.9935
        XZ       7.2326     YZ       0.5349     ZZ    -159.7334

 Total job time:  284.22s(wall), 8819.74s(cpu)
        *  Thank you very much for using Q-Chem.  Have a nice day.  *
