 Q-Chem 5.4, Q-Chem, Inc., Pleasanton, CA (2021)
 Q-Chem 5.4.0 for Intel X86 EM64T Linux

User input:
--------------------------------------------------------------
$molecule
0 1
C	-0.089263	-6.741404	-0.240927
C	-0.535973	-6.155638	-1.467886
C	0.281103	-5.791452	0.777972
C	-0.631036	-4.803786	-1.729742
H	-0.836458	-6.821518	-2.292903
C	0.181995	-4.378638	0.503614
C	-0.272725	-3.838032	-0.746756
C	0.539954	-3.413062	1.485437
C	-0.371053	-2.426473	-1.018915
C	0.446381	-2.059348	1.226557
C	0.000000	-1.478216	0.000000
H	0.747410	-1.394783	2.052413
C	0.772747	-6.187987	2.134128
C	1.029154	-3.798164	2.829820
N	1.110828	-5.170003	3.059182
C	-1.121728	-4.424987	-3.077731
C	-0.864069	-2.036627	-2.375694
N	-1.201928	-3.049156	-3.301101
O	0.903908	-7.353131	2.502830
O	1.345809	-2.986854	3.697078
O	-1.434422	-5.248946	-3.934752
O	-1.003943	-0.878829	-2.764177
C	1.592981	-5.563799	4.386939
H	1.607367	-6.664085	4.429822
H	0.924504	-5.147101	5.164489
H	2.605446	-5.148785	4.553486
C	-1.677308	-2.587487	-4.608481
H	-1.898089	-3.483329	-5.211969
H	-0.902337	-1.964972	-5.094624
H	-2.582098	-1.962932	-4.483092
H	-0.025963	-7.822318	-0.066080
C	0.000000	0.000000	0.000000
S	0.396411	0.687007	1.580530
C	1.215245	2.105322	0.904911
C	0.498850	0.864369	-0.985400
C	1.158885	2.007781	-0.493528
H	0.381046	0.660280	-2.059934
H	1.599289	2.770727	-1.152593
H	1.655514	2.868056	1.556025
$end

$rem
JOBTYPE		SP
EXCHANGE	HF
CORRELATION	pRIMP2
BASIS		cc-pvtz
METHOD		rimp2
AUX_BASIS	rimp2-cc-pvtz
SOLVENT_METHOD	PCM
PURECART	11111
SYMMETRY	false
MEM_TOTAL	110000
SCF_CONVERGENCE = 6
THRESH=10
GUI = 2
$end

$solvent
dielectric 4.90
$end
--------------------------------------------------------------

             Standard Nuclear Orientation (Angstroms)
    I     Atom           X                Y                Z
 ----------------------------------------------------------------
    1      C      -0.0892630000    -6.7414040000    -0.2409270000
    2      C      -0.5359730000    -6.1556380000    -1.4678860000
    3      C       0.2811030000    -5.7914520000     0.7779720000
    4      C      -0.6310360000    -4.8037860000    -1.7297420000
    5      H      -0.8364580000    -6.8215180000    -2.2929030000
    6      C       0.1819950000    -4.3786380000     0.5036140000
    7      C      -0.2727250000    -3.8380320000    -0.7467560000
    8      C       0.5399540000    -3.4130620000     1.4854370000
    9      C      -0.3710530000    -2.4264730000    -1.0189150000
   10      C       0.4463810000    -2.0593480000     1.2265570000
   11      C       0.0000000000    -1.4782160000     0.0000000000
   12      H       0.7474100000    -1.3947830000     2.0524130000
   13      C       0.7727470000    -6.1879870000     2.1341280000
   14      C       1.0291540000    -3.7981640000     2.8298200000
   15      N       1.1108280000    -5.1700030000     3.0591820000
   16      C      -1.1217280000    -4.4249870000    -3.0777310000
   17      C      -0.8640690000    -2.0366270000    -2.3756940000
   18      N      -1.2019280000    -3.0491560000    -3.3011010000
   19      O       0.9039080000    -7.3531310000     2.5028300000
   20      O       1.3458090000    -2.9868540000     3.6970780000
   21      O      -1.4344220000    -5.2489460000    -3.9347520000
   22      O      -1.0039430000    -0.8788290000    -2.7641770000
   23      C       1.5929810000    -5.5637990000     4.3869390000
   24      H       1.6073670000    -6.6640850000     4.4298220000
   25      H       0.9245040000    -5.1471010000     5.1644890000
   26      H       2.6054460000    -5.1487850000     4.5534860000
   27      C      -1.6773080000    -2.5874870000    -4.6084810000
   28      H      -1.8980890000    -3.4833290000    -5.2119690000
   29      H      -0.9023370000    -1.9649720000    -5.0946240000
   30      H      -2.5820980000    -1.9629320000    -4.4830920000
   31      H      -0.0259630000    -7.8223180000    -0.0660800000
   32      C       0.0000000000     0.0000000000     0.0000000000
   33      S       0.3964110000     0.6870070000     1.5805300000
   34      C       1.2152450000     2.1053220000     0.9049110000
   35      C       0.4988500000     0.8643690000    -0.9854000000
   36      C       1.1588850000     2.0077810000    -0.4935280000
   37      H       0.3810460000     0.6602800000    -2.0599340000
   38      H       1.5992890000     2.7707270000    -1.1525930000
   39      H       1.6555140000     2.8680560000     1.5560250000
 ----------------------------------------------------------------

   10   -1570.6699688505      8.52e-07  Convergence criterion met
 Total energy in the final basis set =    -1570.6699688505
        RIMP2         total energy =     -1575.3010288278 a.u.

                    Orbital Energies (a.u.)
 --------------------------------------------------------------

 Alpha MOs
 -- Occupied --
-91.9924 -20.5581 -20.5560 -20.5545 -20.5527 -15.6307 -15.6293 -11.3993
-11.3947 -11.3905 -11.3902 -11.3189 -11.3013 -11.2988 -11.2957 -11.2955
-11.2935 -11.2931 -11.2885 -11.2858 -11.2821 -11.2783 -11.2731 -11.2642
-11.2642 -11.2642 -11.2520  -8.9928  -6.6736  -6.6730  -6.6724  -1.4244
 -1.4232  -1.4038  -1.4021  -1.2667  -1.2641  -1.2162  -1.1814  -1.1428
 -1.1150  -1.0633  -1.0482  -0.9922  -0.9914  -0.9899  -0.9580  -0.9463
 -0.8962  -0.8779  -0.8773  -0.8596  -0.7967  -0.7800  -0.7720  -0.7628
 -0.7351  -0.7191  -0.7039  -0.6946  -0.6806  -0.6736  -0.6657  -0.6615
 -0.6553  -0.6413  -0.6359  -0.6324  -0.6272  -0.6126  -0.5895  -0.5842
 -0.5805  -0.5737  -0.5671  -0.5628  -0.5621  -0.5558  -0.5525  -0.5473
 -0.5396  -0.5255  -0.5234  -0.5090  -0.4822  -0.4673  -0.4661  -0.4607
 -0.4590  -0.4518  -0.4278  -0.4182  -0.4088  -0.3752  -0.3549  -0.3355
 -0.3010

          Ground-State Mulliken Net Atomic Charges

     Atom                 Charge (a.u.)
  ----------------------------------------
      1 C                    -0.146707
      2 C                    -0.109844
      3 C                    -0.028228
      4 C                    -0.005551
      5 H                     0.187847
      6 C                    -0.004832
      7 C                     0.075014
      8 C                     0.053145
      9 C                    -0.075757
     10 C                    -0.176327
     11 C                     0.045862
     12 H                     0.178808
     13 C                     0.358040
     14 C                     0.362419
     15 N                    -0.101423
     16 C                     0.358108
     17 C                     0.372394
     18 N                    -0.094252
     19 O                    -0.464579
     20 O                    -0.477445
     21 O                    -0.484043
     22 O                    -0.480301
     23 C                    -0.201353
     24 H                     0.141013
     25 H                     0.112455
     26 H                     0.112235
     27 C                    -0.197646
     28 H                     0.133944
     29 H                     0.111746
     30 H                     0.112814
     31 H                     0.212305
     32 C                    -0.021318
     33 S                     0.011446
     34 C                    -0.154299
     35 C                    -0.092540
     36 C                    -0.249095
     37 H                     0.215114
     38 H                     0.192847
     39 H                     0.217983
  ----------------------------------------
  Sum of atomic charges =     0.000000

                    Cartesian Multipole Moments
 -----------------------------------------------------------------
    Charge (ESU x 10^10)
                 0.0000
    Dipole Moment (Debye)
         X       1.5693      Y       2.3430      Z      -0.5807
       Tot       2.8792
    Quadrupole Moments (Debye-Ang)
        XX    -163.3618     XY       5.1081     YY    -171.9665
        XZ      -6.4086     YZ       0.4104     ZZ    -176.0026

 Total job time:  261.35s(wall), 8249.11s(cpu)
        *  Thank you very much for using Q-Chem.  Have a nice day.  *
