 Q-Chem 5.4, Q-Chem, Inc., Pleasanton, CA (2021)
 Q-Chem 5.4.0 for Intel X86 EM64T Linux

User input:
--------------------------------------------------------------
$molecule
0 1
C	0.166281	-6.741404	0.195868
C	1.005696	-6.155638	1.196048
C	-0.530233	-5.791452	-0.634911
C	1.184587	-4.803786	1.409599
H	1.570232	-6.821518	1.868538
C	-0.343266	-4.378638	-0.410996
C	0.511683	-3.838032	0.608444
C	-1.015440	-3.413062	-1.211179
C	0.697165	-2.426473	0.830559
C	-0.838968	-2.059348	-0.999915
C	-0.000000	-1.478216	-0.000000
H	-1.404302	-1.394783	-1.673009
C	-1.456059	-6.187987	-1.741129
C	-1.934944	-3.798164	-2.307170
N	-2.090139	-5.170003	-2.494766
C	2.106725	-4.424987	2.508468
C	1.624494	-2.036627	1.936893
N	2.258486	-3.049156	2.690936
O	-1.705414	-7.353131	-2.042736
O	-2.529122	-2.986854	-3.013823
O	2.693680	-5.248946	3.206857
O	1.888802	-0.878829	2.254108
C	-2.997334	-5.563799	-3.577543
H	-3.025519	-6.664085	-3.612920
H	-2.635109	-5.147101	-4.536833
H	-4.005702	-5.148785	-3.387762
C	3.152347	-2.587487	3.756883
H	3.566218	-3.483329	4.248464
H	2.590383	-1.964972	4.478763
H	3.959687	-1.962932	3.329599
H	0.046998	-7.822318	0.053215
C	0.000000	0.000000	0.000000
S	0.335026	0.718942	1.580530
C	1.027130	2.203226	0.904911
C	0.421617	0.904557	-0.985400
C	0.979485	2.101144	-0.493528
H	0.322049	0.690978	-2.059934
H	1.351718	2.899571	-1.152593
H	1.399246	3.001430	1.556025
$end

$rem
JOBTYPE		SP
EXCHANGE	HF
CORRELATION	pRIMP2
BASIS		cc-pvtz
METHOD		rimp2
AUX_BASIS	rimp2-cc-pvtz
SOLVENT_METHOD	PCM
PURECART	11111
SYMMETRY	false
MEM_TOTAL	110000
SCF_CONVERGENCE = 6
THRESH=10
GUI = 2
$end

$solvent
dielectric 4.90
$end
--------------------------------------------------------------

             Standard Nuclear Orientation (Angstroms)
    I     Atom           X                Y                Z
 ----------------------------------------------------------------
    1      C       0.1662810000    -6.7414040000     0.1958680000
    2      C       1.0056960000    -6.1556380000     1.1960480000
    3      C      -0.5302330000    -5.7914520000    -0.6349110000
    4      C       1.1845870000    -4.8037860000     1.4095990000
    5      H       1.5702320000    -6.8215180000     1.8685380000
    6      C      -0.3432660000    -4.3786380000    -0.4109960000
    7      C       0.5116830000    -3.8380320000     0.6084440000
    8      C      -1.0154400000    -3.4130620000    -1.2111790000
    9      C       0.6971650000    -2.4264730000     0.8305590000
   10      C      -0.8389680000    -2.0593480000    -0.9999150000
   11      C       0.0000000000    -1.4782160000     0.0000000000
   12      H      -1.4043020000    -1.3947830000    -1.6730090000
   13      C      -1.4560590000    -6.1879870000    -1.7411290000
   14      C      -1.9349440000    -3.7981640000    -2.3071700000
   15      N      -2.0901390000    -5.1700030000    -2.4947660000
   16      C       2.1067250000    -4.4249870000     2.5084680000
   17      C       1.6244940000    -2.0366270000     1.9368930000
   18      N       2.2584860000    -3.0491560000     2.6909360000
   19      O      -1.7054140000    -7.3531310000    -2.0427360000
   20      O      -2.5291220000    -2.9868540000    -3.0138230000
   21      O       2.6936800000    -5.2489460000     3.2068570000
   22      O       1.8888020000    -0.8788290000     2.2541080000
   23      C      -2.9973340000    -5.5637990000    -3.5775430000
   24      H      -3.0255190000    -6.6640850000    -3.6129200000
   25      H      -2.6351090000    -5.1471010000    -4.5368330000
   26      H      -4.0057020000    -5.1487850000    -3.3877620000
   27      C       3.1523470000    -2.5874870000     3.7568830000
   28      H       3.5662180000    -3.4833290000     4.2484640000
   29      H       2.5903830000    -1.9649720000     4.4787630000
   30      H       3.9596870000    -1.9629320000     3.3295990000
   31      H       0.0469980000    -7.8223180000     0.0532150000
   32      C       0.0000000000     0.0000000000     0.0000000000
   33      S       0.3350260000     0.7189420000     1.5805300000
   34      C       1.0271300000     2.2032260000     0.9049110000
   35      C       0.4216170000     0.9045570000    -0.9854000000
   36      C       0.9794850000     2.1011440000    -0.4935280000
   37      H       0.3220490000     0.6909780000    -2.0599340000
   38      H       1.3517180000     2.8995710000    -1.1525930000
   39      H       1.3992460000     3.0014300000     1.5560250000
 ----------------------------------------------------------------

   10   -1570.6413601423      9.16e-07  Convergence criterion met
 Total energy in the final basis set =    -1570.6413601423
        RIMP2         total energy =     -1575.2820021578 a.u.

                    Orbital Energies (a.u.)
 --------------------------------------------------------------

 Alpha MOs
 -- Occupied --
-91.9814 -20.5586 -20.5563 -20.5542 -20.5507 -15.6312 -15.6307 -11.3999
-11.3970 -11.3917 -11.3905 -11.3179 -11.3023 -11.3009 -11.2999 -11.2957
-11.2950 -11.2862 -11.2840 -11.2834 -11.2811 -11.2795 -11.2759 -11.2649
-11.2646 -11.2592 -11.2418  -8.9816  -6.6618  -6.6614  -6.6608  -1.4269
 -1.4249  -1.4051  -1.4042  -1.2679  -1.2658  -1.2165  -1.1723  -1.1422
 -1.1163  -1.0611  -1.0490  -0.9927  -0.9878  -0.9810  -0.9590  -0.9471
 -0.8963  -0.8796  -0.8760  -0.8620  -0.7922  -0.7770  -0.7747  -0.7585
 -0.7325  -0.7209  -0.7031  -0.6927  -0.6854  -0.6731  -0.6664  -0.6624
 -0.6567  -0.6412  -0.6384  -0.6361  -0.6282  -0.6131  -0.5844  -0.5823
 -0.5779  -0.5705  -0.5680  -0.5651  -0.5640  -0.5557  -0.5546  -0.5486
 -0.5351  -0.5244  -0.5211  -0.5140  -0.4827  -0.4705  -0.4635  -0.4618
 -0.4567  -0.4416  -0.4259  -0.4174  -0.4088  -0.3682  -0.3363  -0.3184
 -0.3027

          Ground-State Mulliken Net Atomic Charges

     Atom                 Charge (a.u.)
  ----------------------------------------
      1 C                    -0.142828
      2 C                    -0.108030
      3 C                    -0.035698
      4 C                    -0.005733
      5 H                     0.188205
      6 C                    -0.010011
      7 C                     0.080050
      8 C                     0.008736
      9 C                    -0.078593
     10 C                    -0.160092
     11 C                     0.101229
     12 H                     0.181866
     13 C                     0.360906
     14 C                     0.365617
     15 N                    -0.101356
     16 C                     0.358937
     17 C                     0.414631
     18 N                    -0.095256
     19 O                    -0.464334
     20 O                    -0.476222
     21 O                    -0.481919
     22 O                    -0.457692
     23 C                    -0.201030
     24 H                     0.141080
     25 H                     0.112133
     26 H                     0.112440
     27 C                    -0.196869
     28 H                     0.134313
     29 H                     0.112806
     30 H                     0.112762
     31 H                     0.212960
     32 C                    -0.080673
     33 S                     0.081297
     34 C                    -0.183872
     35 C                    -0.148070
     36 C                    -0.241912
     37 H                     0.192692
     38 H                     0.187956
     39 H                     0.209575
  ----------------------------------------
  Sum of atomic charges =     0.000000

                    Cartesian Multipole Moments
 -----------------------------------------------------------------
    Charge (ESU x 10^10)
                 0.0000
    Dipole Moment (Debye)
         X       1.4254      Y       1.1296      Z      -0.1107
       Tot       1.8221
    Quadrupole Moments (Debye-Ang)
        XX    -170.2275     XY       4.2975     YY    -171.0170
        XZ      -8.3819     YZ       0.5901     ZZ    -168.2429

 Total job time:  267.95s(wall), 8079.84s(cpu)
        *  Thank you very much for using Q-Chem.  Have a nice day.  *
