 Q-Chem 5.4, Q-Chem, Inc., Pleasanton, CA (2021)
 Q-Chem 5.4.0 for Intel X86 EM64T Linux

User input:
--------------------------------------------------------------
$molecule
0 1
C	-0.253280	-6.741404	-0.043160
C	-1.539213	-6.155638	-0.269777
C	0.814295	-5.791452	0.145543
C	-1.813519	-4.803786	-0.318377
H	-2.403941	-6.821518	-0.422058
C	0.527140	-4.378638	0.094194
C	-0.783072	-3.838032	-0.137191
C	1.556403	-3.413062	0.275104
C	-1.067932	-2.426473	-0.188116
C	1.285420	-2.059348	0.226701
C	-0.000000	-1.478216	-0.000000
H	2.151147	-1.394783	0.378931
C	2.234582	-6.187987	0.397845
C	2.965273	-3.798164	0.523637
N	3.204744	-5.170003	0.567586
C	-3.226257	-4.424987	-0.567421
C	-2.489446	-2.036627	-0.439541
N	-3.459801	-3.049156	-0.609650
O	2.619468	-7.353131	0.468608
O	3.874668	-2.986854	0.683034
O	-4.124806	-5.248946	-0.725131
O	-2.895819	-0.878829	-0.512648
C	4.595691	-5.563799	0.813908
H	4.640022	-6.664085	0.822891
H	4.934830	-5.147101	1.781600
H	5.246157	-5.148785	0.020360
C	-4.829716	-2.587487	-0.851649
H	-5.462742	-3.483329	-0.962191
H	-4.863242	-1.964972	-1.765865
H	-5.173521	-1.962932	-0.005383
H	-0.070208	-7.822318	-0.010555
C	0.000000	0.000000	0.000000
S	0.271091	0.745405	1.580530
C	0.831198	2.284363	0.904911
C	0.341175	0.937861	-0.985400
C	0.792631	2.178516	-0.493528
H	0.260601	0.716417	-2.059934
H	1.093860	3.006347	-1.152593
H	1.132330	3.111961	1.556025
$end

$rem
JOBTYPE		SP
EXCHANGE	HF
CORRELATION	pRIMP2
BASIS		cc-pvtz
METHOD		rimp2
AUX_BASIS	rimp2-cc-pvtz
SOLVENT_METHOD	PCM
PURECART	11111
SYMMETRY	false
MEM_TOTAL	110000
SCF_CONVERGENCE = 6
THRESH=10
GUI = 2
$end

$solvent
dielectric 4.90
$end
--------------------------------------------------------------

             Standard Nuclear Orientation (Angstroms)
    I     Atom           X                Y                Z
 ----------------------------------------------------------------
    1      C      -0.2532800000    -6.7414040000    -0.0431600000
    2      C      -1.5392130000    -6.1556380000    -0.2697770000
    3      C       0.8142950000    -5.7914520000     0.1455430000
    4      C      -1.8135190000    -4.8037860000    -0.3183770000
    5      H      -2.4039410000    -6.8215180000    -0.4220580000
    6      C       0.5271400000    -4.3786380000     0.0941940000
    7      C      -0.7830720000    -3.8380320000    -0.1371910000
    8      C       1.5564030000    -3.4130620000     0.2751040000
    9      C      -1.0679320000    -2.4264730000    -0.1881160000
   10      C       1.2854200000    -2.0593480000     0.2267010000
   11      C       0.0000000000    -1.4782160000     0.0000000000
   12      H       2.1511470000    -1.3947830000     0.3789310000
   13      C       2.2345820000    -6.1879870000     0.3978450000
   14      C       2.9652730000    -3.7981640000     0.5236370000
   15      N       3.2047440000    -5.1700030000     0.5675860000
   16      C      -3.2262570000    -4.4249870000    -0.5674210000
   17      C      -2.4894460000    -2.0366270000    -0.4395410000
   18      N      -3.4598010000    -3.0491560000    -0.6096500000
   19      O       2.6194680000    -7.3531310000     0.4686080000
   20      O       3.8746680000    -2.9868540000     0.6830340000
   21      O      -4.1248060000    -5.2489460000    -0.7251310000
   22      O      -2.8958190000    -0.8788290000    -0.5126480000
   23      C       4.5956910000    -5.5637990000     0.8139080000
   24      H       4.6400220000    -6.6640850000     0.8228910000
   25      H       4.9348300000    -5.1471010000     1.7816000000
   26      H       5.2461570000    -5.1487850000     0.0203600000
   27      C      -4.8297160000    -2.5874870000    -0.8516490000
   28      H      -5.4627420000    -3.4833290000    -0.9621910000
   29      H      -4.8632420000    -1.9649720000    -1.7658650000
   30      H      -5.1735210000    -1.9629320000    -0.0053830000
   31      H      -0.0702080000    -7.8223180000    -0.0105550000
   32      C       0.0000000000     0.0000000000     0.0000000000
   33      S       0.2710910000     0.7454050000     1.5805300000
   34      C       0.8311980000     2.2843630000     0.9049110000
   35      C       0.3411750000     0.9378610000    -0.9854000000
   36      C       0.7926310000     2.1785160000    -0.4935280000
   37      H       0.2606010000     0.7164170000    -2.0599340000
   38      H       1.0938600000     3.0063470000    -1.1525930000
   39      H       1.1323300000     3.1119610000     1.5560250000
 ----------------------------------------------------------------

   10   -1570.6855767075      7.13e-07  Convergence criterion met
 Total energy in the final basis set =    -1570.6855767075
        RIMP2         total energy =     -1575.3101435099 a.u.

                    Orbital Energies (a.u.)
 --------------------------------------------------------------

 Alpha MOs
 -- Occupied --
-91.9927 -20.5587 -20.5578 -20.5562 -20.5558 -15.6315 -15.6314 -11.4004
-11.3978 -11.3934 -11.3907 -11.3164 -11.3072 -11.3031 -11.3010 -11.2996
-11.2991 -11.2932 -11.2872 -11.2862 -11.2823 -11.2808 -11.2795 -11.2649
-11.2647 -11.2565 -11.2510  -8.9920  -6.6728  -6.6723  -6.6717  -1.4251
 -1.4248  -1.4043  -1.4039  -1.2680  -1.2657  -1.2184  -1.1767  -1.1444
 -1.1183  -1.0637  -1.0506  -0.9934  -0.9904  -0.9841  -0.9596  -0.9484
 -0.8979  -0.8798  -0.8784  -0.8610  -0.7961  -0.7779  -0.7735  -0.7601
 -0.7378  -0.7190  -0.7057  -0.6953  -0.6815  -0.6737  -0.6668  -0.6626
 -0.6574  -0.6426  -0.6382  -0.6345  -0.6306  -0.6130  -0.5857  -0.5848
 -0.5784  -0.5736  -0.5670  -0.5644  -0.5619  -0.5554  -0.5531  -0.5487
 -0.5366  -0.5272  -0.5214  -0.5130  -0.4839  -0.4714  -0.4674  -0.4616
 -0.4609  -0.4540  -0.4286  -0.4185  -0.4091  -0.3615  -0.3460  -0.3343
 -0.3237

          Ground-State Mulliken Net Atomic Charges

     Atom                 Charge (a.u.)
  ----------------------------------------
      1 C                    -0.129503
      2 C                    -0.109310
      3 C                    -0.043984
      4 C                     0.000855
      5 H                     0.188939
      6 C                     0.002323
      7 C                     0.073015
      8 C                    -0.002665
      9 C                    -0.008176
     10 C                    -0.092152
     11 C                     0.005733
     12 H                     0.189901
     13 C                     0.360959
     14 C                     0.364028
     15 N                    -0.101725
     16 C                     0.360158
     17 C                     0.352791
     18 N                    -0.098790
     19 O                    -0.464902
     20 O                    -0.476285
     21 O                    -0.479252
     22 O                    -0.458327
     23 C                    -0.201106
     24 H                     0.141106
     25 H                     0.112530
     26 H                     0.112407
     27 C                    -0.195743
     28 H                     0.133712
     29 H                     0.113093
     30 H                     0.113706
     31 H                     0.214628
     32 C                     0.002060
     33 S                     0.029024
     34 C                    -0.212505
     35 C                    -0.195255
     36 C                    -0.192931
     37 H                     0.188041
     38 H                     0.192434
     39 H                     0.211166
  ----------------------------------------
  Sum of atomic charges =     0.000000

                    Cartesian Multipole Moments
 -----------------------------------------------------------------
    Charge (ESU x 10^10)
                 0.0000
    Dipole Moment (Debye)
         X       0.6851      Y       0.7243      Z      -0.9477
       Tot       1.3755
    Quadrupole Moments (Debye-Ang)
        XX    -182.4009     XY       4.8645     YY    -165.2206
        XZ      -3.2409     YZ       0.9466     ZZ    -158.0457

 Total job time:  271.63s(wall), 7985.81s(cpu)
        *  Thank you very much for using Q-Chem.  Have a nice day.  *
