 Q-Chem 5.4, Q-Chem, Inc., Pleasanton, CA (2021)
 Q-Chem 5.4.0 for Intel X86 EM64T Linux

User input:
--------------------------------------------------------------
$molecule
0 1
C	-0.129743	-6.741404	-0.221766
C	-0.782726	-6.155638	-1.352515
C	0.411926	-5.791452	0.717339
C	-0.921816	-4.803786	-1.593885
H	-1.221908	-6.821518	-2.112819
C	0.266682	-4.378638	0.464360
C	-0.398255	-3.838032	-0.688053
C	0.789694	-3.413062	1.369108
C	-0.542349	-2.426473	-0.939002
C	0.652589	-2.059348	1.130409
C	0.000000	-1.478216	0.000000
H	1.092453	-1.394783	1.891446
C	1.131595	-6.187987	1.967519
C	1.504912	-3.798164	2.608118
N	1.625174	-5.170003	2.819813
C	-1.639129	-4.424987	-2.836188
C	-1.263477	-2.036627	-2.189558
N	-1.756898	-3.049156	-3.042237
O	1.324787	-7.353131	2.307845
O	1.967354	-2.986854	3.407213
O	-2.095892	-5.248946	-3.625890
O	-1.468685	-0.878829	-2.547850
C	2.330564	-5.563799	4.043674
H	2.352178	-6.664085	4.083407
H	1.807263	-5.147101	4.925490
H	3.356568	-5.148785	4.031877
C	-2.452080	-2.587487	-4.247206
H	-2.774302	-3.483329	-4.803187
H	-1.773301	-1.964972	-4.860536
H	-3.321351	-1.962932	-3.966607
H	-0.037043	-7.822318	-0.060567
C	0.000000	0.000000	0.000000
S	0.396411	0.687007	1.580530
C	1.215245	2.105322	0.904911
C	0.498850	0.864369	-0.985400
C	1.158885	2.007781	-0.493528
H	0.381046	0.660280	-2.059934
H	1.599289	2.770727	-1.152593
H	1.655514	2.868056	1.556025
$end

$rem
JOBTYPE		SP
EXCHANGE	HF
CORRELATION	pRIMP2
BASIS		cc-pvtz
METHOD		rimp2
AUX_BASIS	rimp2-cc-pvtz
SOLVENT_METHOD	PCM
PURECART	11111
SYMMETRY	false
MEM_TOTAL	110000
SCF_CONVERGENCE = 6
THRESH=10
GUI = 2
$end

$solvent
dielectric 4.90
$end
--------------------------------------------------------------

             Standard Nuclear Orientation (Angstroms)
    I     Atom           X                Y                Z
 ----------------------------------------------------------------
    1      C      -0.1297430000    -6.7414040000    -0.2217660000
    2      C      -0.7827260000    -6.1556380000    -1.3525150000
    3      C       0.4119260000    -5.7914520000     0.7173390000
    4      C      -0.9218160000    -4.8037860000    -1.5938850000
    5      H      -1.2219080000    -6.8215180000    -2.1128190000
    6      C       0.2666820000    -4.3786380000     0.4643600000
    7      C      -0.3982550000    -3.8380320000    -0.6880530000
    8      C       0.7896940000    -3.4130620000     1.3691080000
    9      C      -0.5423490000    -2.4264730000    -0.9390020000
   10      C       0.6525890000    -2.0593480000     1.1304090000
   11      C       0.0000000000    -1.4782160000     0.0000000000
   12      H       1.0924530000    -1.3947830000     1.8914460000
   13      C       1.1315950000    -6.1879870000     1.9675190000
   14      C       1.5049120000    -3.7981640000     2.6081180000
   15      N       1.6251740000    -5.1700030000     2.8198130000
   16      C      -1.6391290000    -4.4249870000    -2.8361880000
   17      C      -1.2634770000    -2.0366270000    -2.1895580000
   18      N      -1.7568980000    -3.0491560000    -3.0422370000
   19      O       1.3247870000    -7.3531310000     2.3078450000
   20      O       1.9673540000    -2.9868540000     3.4072130000
   21      O      -2.0958920000    -5.2489460000    -3.6258900000
   22      O      -1.4686850000    -0.8788290000    -2.5478500000
   23      C       2.3305640000    -5.5637990000     4.0436740000
   24      H       2.3521780000    -6.6640850000     4.0834070000
   25      H       1.8072630000    -5.1471010000     4.9254900000
   26      H       3.3565680000    -5.1487850000     4.0318770000
   27      C      -2.4520800000    -2.5874870000    -4.2472060000
   28      H      -2.7743020000    -3.4833290000    -4.8031870000
   29      H      -1.7733010000    -1.9649720000    -4.8605360000
   30      H      -3.3213510000    -1.9629320000    -3.9666070000
   31      H      -0.0370430000    -7.8223180000    -0.0605670000
   32      C       0.0000000000     0.0000000000     0.0000000000
   33      S       0.3964110000     0.6870070000     1.5805300000
   34      C       1.2152450000     2.1053220000     0.9049110000
   35      C       0.4988500000     0.8643690000    -0.9854000000
   36      C       1.1588850000     2.0077810000    -0.4935280000
   37      H       0.3810460000     0.6602800000    -2.0599340000
   38      H       1.5992890000     2.7707270000    -1.1525930000
   39      H       1.6555140000     2.8680560000     1.5560250000
 ----------------------------------------------------------------

   10   -1570.6716367988      8.02e-07  Convergence criterion met
 Total energy in the final basis set =    -1570.6716367988
        RIMP2         total energy =     -1575.3021880981 a.u.

                    Orbital Energies (a.u.)
 --------------------------------------------------------------

 Alpha MOs
 -- Occupied --
-91.9920 -20.5582 -20.5560 -20.5545 -20.5531 -15.6308 -15.6293 -11.3995
-11.3945 -11.3908 -11.3902 -11.3182 -11.3015 -11.2991 -11.2969 -11.2943
-11.2942 -11.2941 -11.2890 -11.2856 -11.2828 -11.2787 -11.2727 -11.2654
-11.2643 -11.2641 -11.2522  -8.9924  -6.6732  -6.6726  -6.6721  -1.4245
 -1.4228  -1.4038  -1.4018  -1.2667  -1.2640  -1.2164  -1.1812  -1.1429
 -1.1153  -1.0633  -1.0483  -0.9921  -0.9913  -0.9896  -0.9581  -0.9464
 -0.8963  -0.8780  -0.8771  -0.8594  -0.7965  -0.7795  -0.7721  -0.7625
 -0.7355  -0.7176  -0.7049  -0.6947  -0.6802  -0.6734  -0.6656  -0.6615
 -0.6555  -0.6415  -0.6360  -0.6321  -0.6277  -0.6125  -0.5879  -0.5844
 -0.5805  -0.5742  -0.5668  -0.5629  -0.5617  -0.5556  -0.5523  -0.5477
 -0.5407  -0.5259  -0.5225  -0.5078  -0.4826  -0.4676  -0.4671  -0.4620
 -0.4593  -0.4522  -0.4276  -0.4180  -0.4085  -0.3729  -0.3536  -0.3357
 -0.3032

          Ground-State Mulliken Net Atomic Charges

     Atom                 Charge (a.u.)
  ----------------------------------------
      1 C                    -0.143709
      2 C                    -0.108867
      3 C                    -0.031411
      4 C                    -0.004900
      5 H                     0.188074
      6 C                    -0.004313
      7 C                     0.074507
      8 C                     0.040399
      9 C                    -0.064099
     10 C                    -0.166764
     11 C                     0.052831
     12 H                     0.182578
     13 C                     0.358439
     14 C                     0.362969
     15 N                    -0.101344
     16 C                     0.358001
     17 C                     0.360265
     18 N                    -0.094719
     19 O                    -0.464725
     20 O                    -0.477092
     21 O                    -0.483347
     22 O                    -0.472382
     23 C                    -0.201353
     24 H                     0.141027
     25 H                     0.112393
     26 H                     0.112260
     27 C                    -0.197333
     28 H                     0.133796
     29 H                     0.111679
     30 H                     0.113036
     31 H                     0.212603
     32 C                    -0.030773
     33 S                     0.011911
     34 C                    -0.156733
     35 C                    -0.092618
     36 C                    -0.244011
     37 H                     0.204750
     38 H                     0.192545
     39 H                     0.216429
  ----------------------------------------
  Sum of atomic charges =     0.000000

                    Cartesian Multipole Moments
 -----------------------------------------------------------------
    Charge (ESU x 10^10)
                 0.0000
    Dipole Moment (Debye)
         X       1.5749      Y       2.0742      Z      -0.6202
       Tot       2.6771
    Quadrupole Moments (Debye-Ang)
        XX    -166.2438     XY       5.1493     YY    -171.1154
        XZ      -8.7635     YZ       0.6509     ZZ    -173.1104

 Total job time:  264.25s(wall), 8036.76s(cpu)
        *  Thank you very much for using Q-Chem.  Have a nice day.  *
