 Q-Chem 5.4, Q-Chem, Inc., Pleasanton, CA (2021)
 Q-Chem 5.4.0 for Intel X86 EM64T Linux

User input:
--------------------------------------------------------------
$molecule
0 1
C	-0.089263	-6.741404	-0.240927
C	-0.535973	-6.155638	-1.467886
C	0.281103	-5.791452	0.777972
C	-0.631036	-4.803786	-1.729742
H	-0.836458	-6.821518	-2.292903
C	0.181995	-4.378638	0.503614
C	-0.272725	-3.838032	-0.746756
C	0.539954	-3.413062	1.485437
C	-0.371053	-2.426473	-1.018915
C	0.446381	-2.059348	1.226557
C	-0.000000	-1.478216	-0.000000
H	0.747410	-1.394783	2.052413
C	0.772747	-6.187987	2.134128
C	1.029154	-3.798164	2.829820
N	1.110828	-5.170003	3.059182
C	-1.121728	-4.424987	-3.077731
C	-0.864069	-2.036627	-2.375694
N	-1.201928	-3.049156	-3.301101
O	0.903908	-7.353131	2.502830
O	1.345809	-2.986854	3.697078
O	-1.434422	-5.248946	-3.934752
O	-1.003943	-0.878829	-2.764177
C	1.592981	-5.563799	4.386939
H	1.607367	-6.664085	4.429822
H	0.924504	-5.147101	5.164489
H	2.605446	-5.148785	4.553486
C	-1.677308	-2.587487	-4.608481
H	-1.898089	-3.483329	-5.211969
H	-0.902337	-1.964972	-5.094624
H	-2.582098	-1.962932	-4.483092
H	-0.025963	-7.822318	-0.066080
C	0.000000	0.000000	0.000000
S	0.607475	0.509994	1.580530
C	1.862020	1.562717	0.904911
C	0.764397	0.641624	-0.985400
C	1.775697	1.490335	-0.493528
H	0.583895	0.490135	-2.059934
H	2.450484	2.056643	-1.152593
H	2.536607	2.128872	1.556025
$end

$rem
JOBTYPE		SP
EXCHANGE	HF
CORRELATION	pRIMP2
BASIS		cc-pvtz
METHOD		rimp2
AUX_BASIS	rimp2-cc-pvtz
SOLVENT_METHOD	PCM
PURECART	11111
SYMMETRY	false
MEM_TOTAL	110000
SCF_CONVERGENCE = 6
THRESH=10
GUI = 2
$end

$solvent
dielectric 4.90
$end
--------------------------------------------------------------

             Standard Nuclear Orientation (Angstroms)
    I     Atom           X                Y                Z
 ----------------------------------------------------------------
    1      C      -0.0892630000    -6.7414040000    -0.2409270000
    2      C      -0.5359730000    -6.1556380000    -1.4678860000
    3      C       0.2811030000    -5.7914520000     0.7779720000
    4      C      -0.6310360000    -4.8037860000    -1.7297420000
    5      H      -0.8364580000    -6.8215180000    -2.2929030000
    6      C       0.1819950000    -4.3786380000     0.5036140000
    7      C      -0.2727250000    -3.8380320000    -0.7467560000
    8      C       0.5399540000    -3.4130620000     1.4854370000
    9      C      -0.3710530000    -2.4264730000    -1.0189150000
   10      C       0.4463810000    -2.0593480000     1.2265570000
   11      C       0.0000000000    -1.4782160000     0.0000000000
   12      H       0.7474100000    -1.3947830000     2.0524130000
   13      C       0.7727470000    -6.1879870000     2.1341280000
   14      C       1.0291540000    -3.7981640000     2.8298200000
   15      N       1.1108280000    -5.1700030000     3.0591820000
   16      C      -1.1217280000    -4.4249870000    -3.0777310000
   17      C      -0.8640690000    -2.0366270000    -2.3756940000
   18      N      -1.2019280000    -3.0491560000    -3.3011010000
   19      O       0.9039080000    -7.3531310000     2.5028300000
   20      O       1.3458090000    -2.9868540000     3.6970780000
   21      O      -1.4344220000    -5.2489460000    -3.9347520000
   22      O      -1.0039430000    -0.8788290000    -2.7641770000
   23      C       1.5929810000    -5.5637990000     4.3869390000
   24      H       1.6073670000    -6.6640850000     4.4298220000
   25      H       0.9245040000    -5.1471010000     5.1644890000
   26      H       2.6054460000    -5.1487850000     4.5534860000
   27      C      -1.6773080000    -2.5874870000    -4.6084810000
   28      H      -1.8980890000    -3.4833290000    -5.2119690000
   29      H      -0.9023370000    -1.9649720000    -5.0946240000
   30      H      -2.5820980000    -1.9629320000    -4.4830920000
   31      H      -0.0259630000    -7.8223180000    -0.0660800000
   32      C       0.0000000000     0.0000000000     0.0000000000
   33      S       0.6074750000     0.5099940000     1.5805300000
   34      C       1.8620200000     1.5627170000     0.9049110000
   35      C       0.7643970000     0.6416240000    -0.9854000000
   36      C       1.7756970000     1.4903350000    -0.4935280000
   37      H       0.5838950000     0.4901350000    -2.0599340000
   38      H       2.4504840000     2.0566430000    -1.1525930000
   39      H       2.5366070000     2.1288720000     1.5560250000
 ----------------------------------------------------------------

   11   -1570.6287037759      4.67e-07  Convergence criterion met
 Total energy in the final basis set =    -1570.6287037759
        RIMP2         total energy =     -1575.2672643321 a.u.

                    Orbital Energies (a.u.)
 --------------------------------------------------------------

 Alpha MOs
 -- Occupied --
-91.9913 -20.5576 -20.5557 -20.5523 -20.5509 -15.6301 -15.6276 -11.3986
-11.3921 -11.3894 -11.3887 -11.3190 -11.3076 -11.2998 -11.2967 -11.2899
-11.2896 -11.2884 -11.2836 -11.2798 -11.2792 -11.2766 -11.2762 -11.2652
-11.2640 -11.2633 -11.2535  -8.9930  -6.6736  -6.6727  -6.6725  -1.4239
 -1.4214  -1.4033  -1.4004  -1.2658  -1.2625  -1.2161  -1.1882  -1.1405
 -1.1126  -1.0631  -1.0465  -0.9983  -0.9922  -0.9900  -0.9569  -0.9442
 -0.8948  -0.8765  -0.8750  -0.8575  -0.7984  -0.7806  -0.7706  -0.7642
 -0.7336  -0.7206  -0.7030  -0.6941  -0.6793  -0.6735  -0.6647  -0.6604
 -0.6541  -0.6421  -0.6344  -0.6315  -0.6254  -0.6121  -0.5899  -0.5872
 -0.5805  -0.5780  -0.5674  -0.5621  -0.5614  -0.5556  -0.5517  -0.5469
 -0.5406  -0.5245  -0.5229  -0.4996  -0.4811  -0.4656  -0.4625  -0.4583
 -0.4578  -0.4504  -0.4264  -0.4173  -0.4076  -0.3753  -0.3512  -0.3335
 -0.3007

          Ground-State Mulliken Net Atomic Charges

     Atom                 Charge (a.u.)
  ----------------------------------------
      1 C                    -0.154919
      2 C                    -0.109191
      3 C                    -0.023659
      4 C                    -0.005672
      5 H                     0.187094
      6 C                    -0.017388
      7 C                     0.071364
      8 C                     0.074705
      9 C                    -0.089409
     10 C                    -0.195031
     11 C                     0.054179
     12 H                     0.185777
     13 C                     0.357470
     14 C                     0.363230
     15 N                    -0.100789
     16 C                     0.356007
     17 C                     0.374550
     18 N                    -0.093889
     19 O                    -0.464811
     20 O                    -0.479369
     21 O                    -0.486439
     22 O                    -0.485991
     23 C                    -0.201597
     24 H                     0.140973
     25 H                     0.112239
     26 H                     0.111830
     27 C                    -0.198178
     28 H                     0.133543
     29 H                     0.111060
     30 H                     0.112504
     31 H                     0.211044
     32 C                    -0.069726
     33 S                     0.028489
     34 C                    -0.130256
     35 C                    -0.057179
     36 C                    -0.258839
     37 H                     0.221818
     38 H                     0.194420
     39 H                     0.220037
  ----------------------------------------
  Sum of atomic charges =     0.000000

                    Cartesian Multipole Moments
 -----------------------------------------------------------------
    Charge (ESU x 10^10)
                 0.0000
    Dipole Moment (Debye)
         X       2.8789      Y       2.7405      Z      -0.2423
       Tot       3.9821
    Quadrupole Moments (Debye-Ang)
        XX    -158.7347     XY       6.0517     YY    -179.5296
        XZ      -6.1705     YZ      -0.4191     ZZ    -176.2861

 Total job time:  275.39s(wall), 8555.27s(cpu)
        *  Thank you very much for using Q-Chem.  Have a nice day.  *
