 Q-Chem 5.4, Q-Chem, Inc., Pleasanton, CA (2021)
 Q-Chem 5.4.0 for Intel X86 EM64T Linux

User input:
--------------------------------------------------------------
$molecule
0 1
C	-0.127184	-6.741404	0.223244
C	-0.779949	-6.155638	1.354118
C	0.415271	-5.791452	-0.715408
C	-0.919437	-4.803786	1.595259
H	-1.218801	-6.821518	2.114613
C	0.268806	-4.378638	-0.463133
C	-0.396744	-3.838032	0.688925
C	0.790835	-3.413062	-1.368449
C	-0.542026	-2.426473	0.939189
C	0.652669	-2.059348	-1.130363
C	0.000000	-1.478216	0.000000
H	1.091814	-1.394783	-1.891815
C	1.138124	-6.187987	-1.963749
C	1.506241	-3.798164	-2.607351
N	1.629443	-5.170003	-2.817348
C	-1.636646	-4.424987	2.837621
C	-1.264474	-2.036627	2.188982
N	-1.756205	-3.049156	3.042637
O	1.336258	-7.353131	-2.301222
O	1.967056	-2.986854	-3.407386
O	-2.092167	-5.248946	3.628041
O	-1.472160	-0.878829	2.545844
C	2.336642	-5.563799	-4.040164
H	2.360245	-6.664085	-4.078749
H	3.361968	-5.147101	-4.027880
H	1.813424	-5.148785	-4.922811
C	-2.452149	-2.587487	4.247167
H	-2.772531	-3.483329	4.804209
H	-3.322697	-1.964972	3.965991
H	-1.774507	-1.962932	4.859678
H	-0.033931	-7.822318	0.062364
C	0.000000	0.000000	0.000000
S	0.137535	0.781156	1.580530
C	0.421895	2.393994	0.904911
C	0.173134	0.982857	-0.985400
C	0.402294	2.283058	-0.493528
H	0.132237	0.750786	-2.059934
H	0.555196	3.150621	-1.152593
H	0.574741	3.261310	1.556025
$end

$rem
JOBTYPE		SP
EXCHANGE	HF
CORRELATION	pRIMP2
BASIS		cc-pvtz
METHOD		rimp2
AUX_BASIS	rimp2-cc-pvtz
SOLVENT_METHOD	PCM
PURECART	11111
SYMMETRY	false
MEM_TOTAL	110000
SCF_CONVERGENCE = 6
THRESH=10
GUI = 2
$end

$solvent
dielectric 4.90
$end
--------------------------------------------------------------

             Standard Nuclear Orientation (Angstroms)
    I     Atom           X                Y                Z
 ----------------------------------------------------------------
    1      C      -0.1271840000    -6.7414040000     0.2232440000
    2      C      -0.7799490000    -6.1556380000     1.3541180000
    3      C       0.4152710000    -5.7914520000    -0.7154080000
    4      C      -0.9194370000    -4.8037860000     1.5952590000
    5      H      -1.2188010000    -6.8215180000     2.1146130000
    6      C       0.2688060000    -4.3786380000    -0.4631330000
    7      C      -0.3967440000    -3.8380320000     0.6889250000
    8      C       0.7908350000    -3.4130620000    -1.3684490000
    9      C      -0.5420260000    -2.4264730000     0.9391890000
   10      C       0.6526690000    -2.0593480000    -1.1303630000
   11      C       0.0000000000    -1.4782160000     0.0000000000
   12      H       1.0918140000    -1.3947830000    -1.8918150000
   13      C       1.1381240000    -6.1879870000    -1.9637490000
   14      C       1.5062410000    -3.7981640000    -2.6073510000
   15      N       1.6294430000    -5.1700030000    -2.8173480000
   16      C      -1.6366460000    -4.4249870000     2.8376210000
   17      C      -1.2644740000    -2.0366270000     2.1889820000
   18      N      -1.7562050000    -3.0491560000     3.0426370000
   19      O       1.3362580000    -7.3531310000    -2.3012220000
   20      O       1.9670560000    -2.9868540000    -3.4073860000
   21      O      -2.0921670000    -5.2489460000     3.6280410000
   22      O      -1.4721600000    -0.8788290000     2.5458440000
   23      C       2.3366420000    -5.5637990000    -4.0401640000
   24      H       2.3602450000    -6.6640850000    -4.0787490000
   25      H       3.3619680000    -5.1471010000    -4.0278800000
   26      H       1.8134240000    -5.1487850000    -4.9228110000
   27      C      -2.4521490000    -2.5874870000     4.2471670000
   28      H      -2.7725310000    -3.4833290000     4.8042090000
   29      H      -3.3226970000    -1.9649720000     3.9659910000
   30      H      -1.7745070000    -1.9629320000     4.8596780000
   31      H      -0.0339310000    -7.8223180000     0.0623640000
   32      C       0.0000000000     0.0000000000     0.0000000000
   33      S       0.1375350000     0.7811560000     1.5805300000
   34      C       0.4218950000     2.3939940000     0.9049110000
   35      C       0.1731340000     0.9828570000    -0.9854000000
   36      C       0.4022940000     2.2830580000    -0.4935280000
   37      H       0.1322370000     0.7507860000    -2.0599340000
   38      H       0.5551960000     3.1506210000    -1.1525930000
   39      H       0.5747410000     3.2613100000     1.5560250000
 ----------------------------------------------------------------

   10   -1570.6770413771      7.54e-07  Convergence criterion met
 Total energy in the final basis set =    -1570.6770413771
        RIMP2         total energy =     -1575.3085480720 a.u.

                    Orbital Energies (a.u.)
 --------------------------------------------------------------

 Alpha MOs
 -- Occupied --
-91.9834 -20.5588 -20.5568 -20.5548 -20.5541 -15.6315 -15.6306 -11.4002
-11.3969 -11.3917 -11.3910 -11.3192 -11.3025 -11.3016 -11.3005 -11.2964
-11.2955 -11.2903 -11.2870 -11.2843 -11.2809 -11.2797 -11.2783 -11.2648
-11.2645 -11.2609 -11.2460  -8.9830  -6.6635  -6.6628  -6.6622  -1.4260
 -1.4252  -1.4046  -1.4045  -1.2678  -1.2656  -1.2171  -1.1738  -1.1433
 -1.1169  -1.0624  -1.0496  -0.9929  -0.9887  -0.9826  -0.9590  -0.9474
 -0.8968  -0.8796  -0.8777  -0.8619  -0.7941  -0.7773  -0.7746  -0.7614
 -0.7325  -0.7195  -0.7040  -0.6938  -0.6852  -0.6743  -0.6667  -0.6625
 -0.6568  -0.6407  -0.6373  -0.6348  -0.6281  -0.6138  -0.5839  -0.5829
 -0.5802  -0.5711  -0.5689  -0.5660  -0.5643  -0.5557  -0.5547  -0.5487
 -0.5329  -0.5231  -0.5217  -0.5190  -0.4861  -0.4730  -0.4638  -0.4632
 -0.4573  -0.4386  -0.4267  -0.4171  -0.4091  -0.3722  -0.3430  -0.3366
 -0.3009

          Ground-State Mulliken Net Atomic Charges

     Atom                 Charge (a.u.)
  ----------------------------------------
      1 C                    -0.142062
      2 C                    -0.109321
      3 C                    -0.034876
      4 C                    -0.004687
      5 H                     0.188573
      6 C                     0.003157
      7 C                     0.082333
      8 C                     0.000756
      9 C                    -0.071245
     10 C                    -0.135766
     11 C                     0.093179
     12 H                     0.182649
     13 C                     0.359610
     14 C                     0.365344
     15 N                    -0.101646
     16 C                     0.359239
     17 C                     0.369702
     18 N                    -0.095553
     19 O                    -0.464265
     20 O                    -0.476864
     21 O                    -0.481997
     22 O                    -0.467465
     23 C                    -0.201162
     24 H                     0.141215
     25 H                     0.112474
     26 H                     0.112300
     27 C                    -0.197010
     28 H                     0.134191
     29 H                     0.113122
     30 H                     0.113071
     31 H                     0.213100
     32 C                    -0.025989
     33 S                     0.086310
     34 C                    -0.211719
     35 C                    -0.180656
     36 C                    -0.217072
     37 H                     0.189902
     38 H                     0.188310
     39 H                     0.210820
  ----------------------------------------
  Sum of atomic charges =     0.000000

                    Cartesian Multipole Moments
 -----------------------------------------------------------------
    Charge (ESU x 10^10)
                 0.0000
    Dipole Moment (Debye)
         X       0.1865      Y       1.3791      Z      -0.5414
       Tot       1.4933
    Quadrupole Moments (Debye-Ang)
        XX    -168.8682     XY       1.9126     YY    -168.2118
        XZ       8.5906     YZ       0.6938     ZZ    -172.0043

 Total job time:  281.01s(wall), 9351.47s(cpu)
        *  Thank you very much for using Q-Chem.  Have a nice day.  *
