 Q-Chem 5.4, Q-Chem, Inc., Pleasanton, CA (2021)
 Q-Chem 5.4.0 for Intel X86 EM64T Linux

User input:
--------------------------------------------------------------
$molecule
0 1
C	0.241938	-6.741404	0.086486
C	1.468983	-6.155638	0.532960
C	-0.776651	-5.791452	-0.284733
C	1.730681	-4.803786	0.628455
H	2.294130	-6.821518	0.833086
C	-0.502775	-4.378638	-0.184300
C	0.747353	-3.838032	0.271086
C	-1.484986	-3.413062	-0.541191
C	1.019042	-2.426473	0.370703
C	-1.226525	-2.059348	-0.446468
C	0.000000	-1.478216	0.000000
H	-2.052666	-1.394783	-0.746717
C	-2.131549	-6.187987	-0.779832
C	-2.829295	-3.798164	-1.030596
N	-3.057496	-5.170003	-1.115461
C	3.078712	-4.424987	1.119034
C	2.375300	-2.036627	0.865151
N	3.301374	-3.049156	1.201176
O	-2.498300	-7.353131	-0.916355
O	-3.697195	-2.986854	-1.345486
O	3.936224	-5.248946	1.430379
O	2.762805	-0.878829	1.007714
C	-4.384539	-5.563799	-1.599576
H	-4.426636	-6.664085	-1.616121
H	-4.550487	-5.147101	-2.611458
H	-5.162921	-5.148785	-0.931037
C	4.608454	-2.587487	1.677382
H	5.212668	-3.483329	1.896168
H	4.482719	-1.964972	2.583531
H	5.093988	-1.962932	0.903674
H	0.067309	-7.822318	0.022586
C	0.000000	0.000000	0.000000
S	0.137535	0.781156	1.580530
C	0.421895	2.393994	0.904911
C	0.173134	0.982857	-0.985400
C	0.402294	2.283058	-0.493528
H	0.132237	0.750786	-2.059934
H	0.555196	3.150621	-1.152593
H	0.574741	3.261310	1.556025
$end

$rem
JOBTYPE		SP
EXCHANGE	HF
CORRELATION	pRIMP2
BASIS		cc-pvtz
METHOD		rimp2
AUX_BASIS	rimp2-cc-pvtz
SOLVENT_METHOD	PCM
PURECART	11111
SYMMETRY	false
MEM_TOTAL	110000
SCF_CONVERGENCE = 6
THRESH=10
GUI = 2
$end

$solvent
dielectric 4.90
$end
--------------------------------------------------------------

             Standard Nuclear Orientation (Angstroms)
    I     Atom           X                Y                Z
 ----------------------------------------------------------------
    1      C       0.2419380000    -6.7414040000     0.0864860000
    2      C       1.4689830000    -6.1556380000     0.5329600000
    3      C      -0.7766510000    -5.7914520000    -0.2847330000
    4      C       1.7306810000    -4.8037860000     0.6284550000
    5      H       2.2941300000    -6.8215180000     0.8330860000
    6      C      -0.5027750000    -4.3786380000    -0.1843000000
    7      C       0.7473530000    -3.8380320000     0.2710860000
    8      C      -1.4849860000    -3.4130620000    -0.5411910000
    9      C       1.0190420000    -2.4264730000     0.3707030000
   10      C      -1.2265250000    -2.0593480000    -0.4464680000
   11      C       0.0000000000    -1.4782160000     0.0000000000
   12      H      -2.0526660000    -1.3947830000    -0.7467170000
   13      C      -2.1315490000    -6.1879870000    -0.7798320000
   14      C      -2.8292950000    -3.7981640000    -1.0305960000
   15      N      -3.0574960000    -5.1700030000    -1.1154610000
   16      C       3.0787120000    -4.4249870000     1.1190340000
   17      C       2.3753000000    -2.0366270000     0.8651510000
   18      N       3.3013740000    -3.0491560000     1.2011760000
   19      O      -2.4983000000    -7.3531310000    -0.9163550000
   20      O      -3.6971950000    -2.9868540000    -1.3454860000
   21      O       3.9362240000    -5.2489460000     1.4303790000
   22      O       2.7628050000    -0.8788290000     1.0077140000
   23      C      -4.3845390000    -5.5637990000    -1.5995760000
   24      H      -4.4266360000    -6.6640850000    -1.6161210000
   25      H      -4.5504870000    -5.1471010000    -2.6114580000
   26      H      -5.1629210000    -5.1487850000    -0.9310370000
   27      C       4.6084540000    -2.5874870000     1.6773820000
   28      H       5.2126680000    -3.4833290000     1.8961680000
   29      H       4.4827190000    -1.9649720000     2.5835310000
   30      H       5.0939880000    -1.9629320000     0.9036740000
   31      H       0.0673090000    -7.8223180000     0.0225860000
   32      C       0.0000000000     0.0000000000     0.0000000000
   33      S       0.1375350000     0.7811560000     1.5805300000
   34      C       0.4218950000     2.3939940000     0.9049110000
   35      C       0.1731340000     0.9828570000    -0.9854000000
   36      C       0.4022940000     2.2830580000    -0.4935280000
   37      H       0.1322370000     0.7507860000    -2.0599340000
   38      H       0.5551960000     3.1506210000    -1.1525930000
   39      H       0.5747410000     3.2613100000     1.5560250000
 ----------------------------------------------------------------

   10   -1570.6865058869      7.12e-07  Convergence criterion met
 Total energy in the final basis set =    -1570.6865058869
        RIMP2         total energy =     -1575.3119089257 a.u.

                    Orbital Energies (a.u.)
 --------------------------------------------------------------

 Alpha MOs
 -- Occupied --
-91.9879 -20.5588 -20.5564 -20.5558 -20.5553 -15.6314 -15.6308 -11.4005
-11.3963 -11.3929 -11.3907 -11.3158 -11.3077 -11.3032 -11.3016 -11.2996
-11.2991 -11.2911 -11.2871 -11.2862 -11.2815 -11.2810 -11.2781 -11.2647
-11.2646 -11.2571 -11.2488  -8.9873  -6.6681  -6.6676  -6.6670  -1.4251
 -1.4240  -1.4044  -1.4031  -1.2678  -1.2653  -1.2181  -1.1736  -1.1443
 -1.1182  -1.0632  -1.0505  -0.9933  -0.9888  -0.9819  -0.9594  -0.9488
 -0.8973  -0.8800  -0.8777  -0.8617  -0.7951  -0.7774  -0.7735  -0.7597
 -0.7357  -0.7192  -0.7052  -0.6952  -0.6810  -0.6732  -0.6665  -0.6623
 -0.6573  -0.6425  -0.6378  -0.6341  -0.6303  -0.6128  -0.5853  -0.5844
 -0.5780  -0.5722  -0.5662  -0.5643  -0.5633  -0.5554  -0.5532  -0.5486
 -0.5350  -0.5264  -0.5205  -0.5137  -0.4831  -0.4708  -0.4659  -0.4602
 -0.4581  -0.4531  -0.4283  -0.4183  -0.4092  -0.3561  -0.3495  -0.3352
 -0.3191

          Ground-State Mulliken Net Atomic Charges

     Atom                 Charge (a.u.)
  ----------------------------------------
      1 C                    -0.130374
      2 C                    -0.108017
      3 C                    -0.043374
      4 C                    -0.001203
      5 H                     0.188994
      6 C                    -0.003768
      7 C                     0.072564
      8 C                     0.007510
      9 C                    -0.012073
     10 C                    -0.134487
     11 C                     0.070868
     12 H                     0.180846
     13 C                     0.361100
     14 C                     0.369429
     15 N                    -0.101889
     16 C                     0.359178
     17 C                     0.366595
     18 N                    -0.095959
     19 O                    -0.464765
     20 O                    -0.476381
     21 O                    -0.480109
     22 O                    -0.455749
     23 C                    -0.200935
     24 H                     0.141053
     25 H                     0.112306
     26 H                     0.112654
     27 C                    -0.196141
     28 H                     0.133630
     29 H                     0.113183
     30 H                     0.113194
     31 H                     0.214637
     32 C                    -0.054773
     33 S                     0.040315
     34 C                    -0.205760
     35 C                    -0.181436
     36 C                    -0.202753
     37 H                     0.190392
     38 H                     0.190963
     39 H                     0.210537
  ----------------------------------------
  Sum of atomic charges =     0.000000

                    Cartesian Multipole Moments
 -----------------------------------------------------------------
    Charge (ESU x 10^10)
                 0.0000
    Dipole Moment (Debye)
         X       0.5276      Y       0.7775      Z      -0.8378
       Tot       1.2589
    Quadrupole Moments (Debye-Ang)
        XX    -181.7186     XY       1.0783     YY    -164.4613
        XZ      -6.1421     YZ       0.2869     ZZ    -159.8483

 Total job time:  289.02s(wall), 8261.50s(cpu)
        *  Thank you very much for using Q-Chem.  Have a nice day.  *
