 Q-Chem 5.4, Q-Chem, Inc., Pleasanton, CA (2021)
 Q-Chem 5.4.0 for Intel X86 EM64T Linux

User input:
--------------------------------------------------------------
$molecule
0 1
C	1.169177	-6.639243	-0.256927
C	1.067337	-6.062399	-1.562675
C	1.003773	-5.703803	0.827197
C	0.832816	-4.731044	-1.841253
H	1.182777	-6.718195	-2.440709
C	0.759135	-4.312330	0.535488
C	0.665608	-3.779876	-0.794999
C	0.592024	-3.361324	1.580529
C	0.421169	-2.389641	-1.084374
C	0.357557	-2.028070	1.305258
C	0.256690	-1.455759	0.000000
H	0.242565	-1.373530	2.184267
C	1.070820	-6.094632	2.269719
C	0.658788	-3.740595	3.011152
N	0.895334	-5.091887	3.254617
C	0.766979	-4.358010	-3.275775
C	0.354224	-2.005586	-2.527951
N	0.529086	-3.002902	-3.513104
O	1.270336	-7.242571	2.661046
O	0.518831	-2.941447	3.934410
O	0.909352	-5.169576	-4.188059
O	0.154583	-0.865129	-2.940845
C	0.962688	-5.479882	4.667206
H	1.152619	-6.563651	4.712423
H	0.009812	-5.224773	5.169231
H	1.771476	-4.915854	5.169992
C	0.449351	-2.548170	-4.904229
H	0.603867	-3.430587	-5.546833
H	1.222168	-1.779783	-5.095998
H	-0.538644	-2.088191	-5.095858
H	1.356562	-7.703791	-0.070974
C	0.000000	0.000000	0.000000
S	-0.000201	0.793171	1.580530
C	-0.000228	2.430885	0.904911
C	-0.000168	0.997990	-0.985400
C	-0.000267	2.318231	-0.493528
H	-0.000145	0.762343	-2.059934
H	-0.000339	3.199164	-1.152593
H	-0.000311	3.311566	1.556025
$end

$rem
JOBTYPE		SP
EXCHANGE	HF
CORRELATION	pRIMP2
BASIS		cc-pvtz
METHOD		rimp2
AUX_BASIS	rimp2-cc-pvtz
SOLVENT_METHOD	PCM
PURECART	11111
SYMMETRY	false
MEM_TOTAL	110000
SCF_CONVERGENCE = 6
THRESH=10
GUI = 2
$end

$solvent
dielectric 4.90
$end
--------------------------------------------------------------

             Standard Nuclear Orientation (Angstroms)
    I     Atom           X                Y                Z
 ----------------------------------------------------------------
    1      C       1.1691770000    -6.6392430000    -0.2569270000
    2      C       1.0673370000    -6.0623990000    -1.5626750000
    3      C       1.0037730000    -5.7038030000     0.8271970000
    4      C       0.8328160000    -4.7310440000    -1.8412530000
    5      H       1.1827770000    -6.7181950000    -2.4407090000
    6      C       0.7591350000    -4.3123300000     0.5354880000
    7      C       0.6656080000    -3.7798760000    -0.7949990000
    8      C       0.5920240000    -3.3613240000     1.5805290000
    9      C       0.4211690000    -2.3896410000    -1.0843740000
   10      C       0.3575570000    -2.0280700000     1.3052580000
   11      C       0.2566900000    -1.4557590000     0.0000000000
   12      H       0.2425650000    -1.3735300000     2.1842670000
   13      C       1.0708200000    -6.0946320000     2.2697190000
   14      C       0.6587880000    -3.7405950000     3.0111520000
   15      N       0.8953340000    -5.0918870000     3.2546170000
   16      C       0.7669790000    -4.3580100000    -3.2757750000
   17      C       0.3542240000    -2.0055860000    -2.5279510000
   18      N       0.5290860000    -3.0029020000    -3.5131040000
   19      O       1.2703360000    -7.2425710000     2.6610460000
   20      O       0.5188310000    -2.9414470000     3.9344100000
   21      O       0.9093520000    -5.1695760000    -4.1880590000
   22      O       0.1545830000    -0.8651290000    -2.9408450000
   23      C       0.9626880000    -5.4798820000     4.6672060000
   24      H       1.1526190000    -6.5636510000     4.7124230000
   25      H       0.0098120000    -5.2247730000     5.1692310000
   26      H       1.7714760000    -4.9158540000     5.1699920000
   27      C       0.4493510000    -2.5481700000    -4.9042290000
   28      H       0.6038670000    -3.4305870000    -5.5468330000
   29      H       1.2221680000    -1.7797830000    -5.0959980000
   30      H      -0.5386440000    -2.0881910000    -5.0958580000
   31      H       1.3565620000    -7.7037910000    -0.0709740000
   32      C       0.0000000000     0.0000000000     0.0000000000
   33      S      -0.0002010000     0.7931710000     1.5805300000
   34      C      -0.0002280000     2.4308850000     0.9049110000
   35      C      -0.0001680000     0.9979900000    -0.9854000000
   36      C      -0.0002670000     2.3182310000    -0.4935280000
   37      H      -0.0001450000     0.7623430000    -2.0599340000
   38      H      -0.0003390000     3.1991640000    -1.1525930000
   39      H      -0.0003110000     3.3115660000     1.5560250000
 ----------------------------------------------------------------

   10   -1570.6833343180      8.07e-07  Convergence criterion met
 Total energy in the final basis set =    -1570.6833343180
        RIMP2         total energy =     -1575.3115269575 a.u.

                    Orbital Energies (a.u.)
 --------------------------------------------------------------

 Alpha MOs
 -- Occupied --
-91.9932 -20.5585 -20.5565 -20.5560 -20.5536 -15.6312 -15.6307 -11.3998
-11.3976 -11.3914 -11.3908 -11.3200 -11.3021 -11.3002 -11.2984 -11.2953
-11.2940 -11.2912 -11.2906 -11.2875 -11.2832 -11.2790 -11.2787 -11.2650
-11.2644 -11.2526 -11.2498  -8.9932  -6.6740  -6.6734  -6.6728  -1.4259
 -1.4248  -1.4043  -1.4042  -1.2676  -1.2655  -1.2170  -1.1777  -1.1441
 -1.1163  -1.0638  -1.0495  -0.9926  -0.9903  -0.9872  -0.9588  -0.9474
 -0.8975  -0.8794  -0.8788  -0.8617  -0.7966  -0.7802  -0.7733  -0.7624
 -0.7358  -0.7245  -0.7033  -0.6941  -0.6824  -0.6741  -0.6666  -0.6624
 -0.6562  -0.6416  -0.6378  -0.6341  -0.6281  -0.6130  -0.5914  -0.5837
 -0.5791  -0.5709  -0.5663  -0.5641  -0.5615  -0.5562  -0.5543  -0.5471
 -0.5351  -0.5254  -0.5249  -0.5160  -0.4817  -0.4694  -0.4654  -0.4619
 -0.4581  -0.4505  -0.4295  -0.4194  -0.4100  -0.3777  -0.3554  -0.3366
 -0.2993

          Ground-State Mulliken Net Atomic Charges

     Atom                 Charge (a.u.)
  ----------------------------------------
      1 C                    -0.144161
      2 C                    -0.111865
      3 C                    -0.029074
      4 C                    -0.002543
      5 H                     0.187889
      6 C                     0.005042
      7 C                     0.071376
      8 C                     0.058499
      9 C                    -0.074925
     10 C                    -0.176066
     11 C                     0.042803
     12 H                     0.169156
     13 C                     0.358165
     14 C                     0.364177
     15 N                    -0.101327
     16 C                     0.359236
     17 C                     0.385293
     18 N                    -0.091467
     19 O                    -0.464145
     20 O                    -0.476555
     21 O                    -0.483210
     22 O                    -0.479157
     23 C                    -0.201178
     24 H                     0.141094
     25 H                     0.112532
     26 H                     0.112546
     27 C                    -0.198228
     28 H                     0.134563
     29 H                     0.112535
     30 H                     0.112798
     31 H                     0.212582
     32 C                     0.005650
     33 S                     0.007373
     34 C                    -0.190649
     35 C                    -0.133087
     36 C                    -0.242466
     37 H                     0.234719
     38 H                     0.192160
     39 H                     0.219916
  ----------------------------------------
  Sum of atomic charges =     0.000000

                    Cartesian Multipole Moments
 -----------------------------------------------------------------
    Charge (ESU x 10^10)
                -0.0000
    Dipole Moment (Debye)
         X       0.0652      Y       2.2155      Z      -0.8430
       Tot       2.3713
    Quadrupole Moments (Debye-Ang)
        XX    -164.4380     XY       2.6393     YY    -167.3728
        XZ       0.0362     YZ       0.5379     ZZ    -178.0397

 Total job time:  268.95s(wall), 8051.58s(cpu)
        *  Thank you very much for using Q-Chem.  Have a nice day.  *
