 Q-Chem 5.4, Q-Chem, Inc., Pleasanton, CA (2021)
 Q-Chem 5.4.0 for Intel X86 EM64T Linux

User input:
--------------------------------------------------------------
$molecule
0 1
C	0.046070	-6.741404	0.252767
C	0.272935	-6.155638	1.538656
C	-0.141739	-5.791452	-0.814966
C	0.321083	-4.803786	1.813042
H	0.425592	-6.821518	2.403318
C	-0.091779	-4.378638	-0.527566
C	0.138909	-3.838032	0.782769
C	-0.273808	-3.413062	-1.556632
C	0.188483	-2.426473	1.067868
C	-0.226610	-2.059348	-1.285436
C	-0.000000	-1.478216	-0.000000
H	-0.379657	-1.394783	-2.151019
C	-0.390420	-6.187987	-2.235891
C	-0.522125	-3.798164	-2.965540
N	-0.562731	-5.170003	-3.205600
C	0.570244	-4.424987	3.225760
C	0.438407	-2.036627	2.489646
N	0.610438	-3.049156	3.459662
O	-0.455563	-7.353131	-2.621768
O	-0.683373	-2.986854	-3.874608
O	0.729367	-5.248946	4.124059
O	0.508697	-0.878829	2.896516
C	-0.806996	-5.563799	-4.596910
H	-0.813717	-6.664085	-4.641640
H	-0.013655	-5.147101	-5.246567
H	-1.775159	-5.148785	-4.936739
C	0.851572	-2.587487	4.829729
H	0.964204	-3.483329	5.462387
H	0.003956	-1.964972	5.173914
H	1.764390	-1.962932	4.863360
H	0.014094	-7.822318	0.069584
C	0.000000	0.000000	0.000000
S	-0.000201	0.793171	1.580530
C	-0.000228	2.430885	0.904911
C	-0.000168	0.997990	-0.985400
C	-0.000267	2.318231	-0.493528
H	-0.000145	0.762343	-2.059934
H	-0.000339	3.199164	-1.152593
H	-0.000311	3.311566	1.556025
$end

$rem
JOBTYPE		SP
EXCHANGE	HF
CORRELATION	pRIMP2
BASIS		cc-pvtz
METHOD		rimp2
AUX_BASIS	rimp2-cc-pvtz
SOLVENT_METHOD	PCM
PURECART	11111
SYMMETRY	false
MEM_TOTAL	110000
SCF_CONVERGENCE = 6
THRESH=10
GUI = 2
$end

$solvent
dielectric 4.90
$end
--------------------------------------------------------------

             Standard Nuclear Orientation (Angstroms)
    I     Atom           X                Y                Z
 ----------------------------------------------------------------
    1      C       0.0460700000    -6.7414040000     0.2527670000
    2      C       0.2729350000    -6.1556380000     1.5386560000
    3      C      -0.1417390000    -5.7914520000    -0.8149660000
    4      C       0.3210830000    -4.8037860000     1.8130420000
    5      H       0.4255920000    -6.8215180000     2.4033180000
    6      C      -0.0917790000    -4.3786380000    -0.5275660000
    7      C       0.1389090000    -3.8380320000     0.7827690000
    8      C      -0.2738080000    -3.4130620000    -1.5566320000
    9      C       0.1884830000    -2.4264730000     1.0678680000
   10      C      -0.2266100000    -2.0593480000    -1.2854360000
   11      C       0.0000000000    -1.4782160000     0.0000000000
   12      H      -0.3796570000    -1.3947830000    -2.1510190000
   13      C      -0.3904200000    -6.1879870000    -2.2358910000
   14      C      -0.5221250000    -3.7981640000    -2.9655400000
   15      N      -0.5627310000    -5.1700030000    -3.2056000000
   16      C       0.5702440000    -4.4249870000     3.2257600000
   17      C       0.4384070000    -2.0366270000     2.4896460000
   18      N       0.6104380000    -3.0491560000     3.4596620000
   19      O      -0.4555630000    -7.3531310000    -2.6217680000
   20      O      -0.6833730000    -2.9868540000    -3.8746080000
   21      O       0.7293670000    -5.2489460000     4.1240590000
   22      O       0.5086970000    -0.8788290000     2.8965160000
   23      C      -0.8069960000    -5.5637990000    -4.5969100000
   24      H      -0.8137170000    -6.6640850000    -4.6416400000
   25      H      -0.0136550000    -5.1471010000    -5.2465670000
   26      H      -1.7751590000    -5.1487850000    -4.9367390000
   27      C       0.8515720000    -2.5874870000     4.8297290000
   28      H       0.9642040000    -3.4833290000     5.4623870000
   29      H       0.0039560000    -1.9649720000     5.1739140000
   30      H       1.7643900000    -1.9629320000     4.8633600000
   31      H       0.0140940000    -7.8223180000     0.0695840000
   32      C       0.0000000000     0.0000000000     0.0000000000
   33      S      -0.0002010000     0.7931710000     1.5805300000
   34      C      -0.0002280000     2.4308850000     0.9049110000
   35      C      -0.0001680000     0.9979900000    -0.9854000000
   36      C      -0.0002670000     2.3182310000    -0.4935280000
   37      H      -0.0001450000     0.7623430000    -2.0599340000
   38      H      -0.0003390000     3.1991640000    -1.1525930000
   39      H      -0.0003110000     3.3115660000     1.5560250000
 ----------------------------------------------------------------

   10   -1570.6520678830      8.39e-07  Convergence criterion met
 Total energy in the final basis set =    -1570.6520678830
        RIMP2         total energy =     -1575.2897307969 a.u.

                    Orbital Energies (a.u.)
 --------------------------------------------------------------

 Alpha MOs
 -- Occupied --
-91.9767 -20.5593 -20.5592 -20.5572 -20.5545 -15.6327 -15.6318 -11.4009
-11.4004 -11.3923 -11.3915 -11.3217 -11.3028 -11.3019 -11.3006 -11.2961
-11.2945 -11.2902 -11.2881 -11.2840 -11.2797 -11.2792 -11.2692 -11.2658
-11.2650 -11.2600 -11.2424  -8.9763  -6.6567  -6.6553  -6.6545  -1.4339
 -1.4255  -1.4080  -1.4049  -1.2703  -1.2669  -1.2176  -1.1719  -1.1427
 -1.1174  -1.0621  -1.0503  -0.9936  -0.9896  -0.9801  -0.9598  -0.9470
 -0.8980  -0.8809  -0.8787  -0.8638  -0.7939  -0.7789  -0.7774  -0.7596
 -0.7324  -0.7275  -0.7028  -0.6934  -0.6895  -0.6747  -0.6685  -0.6637
 -0.6578  -0.6412  -0.6392  -0.6369  -0.6277  -0.6149  -0.5846  -0.5830
 -0.5814  -0.5756  -0.5711  -0.5653  -0.5620  -0.5566  -0.5564  -0.5495
 -0.5331  -0.5246  -0.5218  -0.5199  -0.4895  -0.4724  -0.4695  -0.4639
 -0.4573  -0.4329  -0.4211  -0.4105  -0.3933  -0.3753  -0.3396  -0.3377
 -0.2957

          Ground-State Mulliken Net Atomic Charges

     Atom                 Charge (a.u.)
  ----------------------------------------
      1 C                    -0.145751
      2 C                    -0.111250
      3 C                    -0.029753
      4 C                    -0.002477
      5 H                     0.188184
      6 C                     0.003783
      7 C                     0.082611
      8 C                    -0.003145
      9 C                    -0.079891
     10 C                    -0.130671
     11 C                     0.076262
     12 H                     0.183543
     13 C                     0.359272
     14 C                     0.365547
     15 N                    -0.101859
     16 C                     0.359970
     17 C                     0.377316
     18 N                    -0.092411
     19 O                    -0.463612
     20 O                    -0.476688
     21 O                    -0.481960
     22 O                    -0.445244
     23 C                    -0.201131
     24 H                     0.141325
     25 H                     0.112477
     26 H                     0.112495
     27 C                    -0.198748
     28 H                     0.135178
     29 H                     0.113698
     30 H                     0.113836
     31 H                     0.212764
     32 C                    -0.028628
     33 S                     0.094173
     34 C                    -0.225419
     35 C                    -0.145511
     36 C                    -0.245834
     37 H                     0.187805
     38 H                     0.182974
     39 H                     0.206772
  ----------------------------------------
  Sum of atomic charges =     0.000000

                    Cartesian Multipole Moments
 -----------------------------------------------------------------
    Charge (ESU x 10^10)
                 0.0000
    Dipole Moment (Debye)
         X       0.1497      Y       0.9513      Z      -0.1555
       Tot       0.9754
    Quadrupole Moments (Debye-Ang)
        XX    -164.6857     XY       0.0417     YY    -169.5806
        XZ      -2.9628     YZ       0.2355     ZZ    -175.0700

 Total job time:  261.80s(wall), 7905.15s(cpu)
        *  Thank you very much for using Q-Chem.  Have a nice day.  *
