 Q-Chem 5.4, Q-Chem, Inc., Pleasanton, CA (2021)
 Q-Chem 5.4.0 for Intel X86 EM64T Linux

User input:
--------------------------------------------------------------
$molecule
0 1
C	0.241938	-6.741404	0.086486
C	1.468983	-6.155638	0.532960
C	-0.776651	-5.791452	-0.284733
C	1.730681	-4.803786	0.628455
H	2.294130	-6.821518	0.833086
C	-0.502775	-4.378638	-0.184300
C	0.747353	-3.838032	0.271086
C	-1.484986	-3.413062	-0.541191
C	1.019042	-2.426473	0.370703
C	-1.226525	-2.059348	-0.446468
C	-0.000000	-1.478216	-0.000000
H	-2.052666	-1.394783	-0.746717
C	-2.131549	-6.187987	-0.779832
C	-2.829295	-3.798164	-1.030596
N	-3.057496	-5.170003	-1.115461
C	3.078712	-4.424987	1.119034
C	2.375300	-2.036627	0.865151
N	3.301374	-3.049156	1.201176
O	-2.498300	-7.353131	-0.916355
O	-3.697195	-2.986854	-1.345486
O	3.936224	-5.248946	1.430379
O	2.762805	-0.878829	1.007714
C	-4.384539	-5.563799	-1.599576
H	-4.426636	-6.664085	-1.616121
H	-4.550487	-5.147101	-2.611458
H	-5.162921	-5.148785	-0.931037
C	4.608454	-2.587487	1.677382
H	5.212668	-3.483329	1.896168
H	4.482719	-1.964972	2.583531
H	5.093988	-1.962932	0.903674
H	0.067309	-7.822318	0.022586
C	0.000000	0.000000	0.000000
S	-0.000201	0.793171	1.580530
C	-0.000228	2.430885	0.904911
C	-0.000168	0.997990	-0.985400
C	-0.000267	2.318231	-0.493528
H	-0.000145	0.762343	-2.059934
H	-0.000339	3.199164	-1.152593
H	-0.000311	3.311566	1.556025
$end

$rem
JOBTYPE		SP
EXCHANGE	HF
CORRELATION	pRIMP2
BASIS		cc-pvtz
METHOD		rimp2
AUX_BASIS	rimp2-cc-pvtz
SOLVENT_METHOD	PCM
PURECART	11111
SYMMETRY	false
MEM_TOTAL	110000
SCF_CONVERGENCE = 6
THRESH=10
GUI = 2
$end

$solvent
dielectric 4.90
$end
--------------------------------------------------------------

             Standard Nuclear Orientation (Angstroms)
    I     Atom           X                Y                Z
 ----------------------------------------------------------------
    1      C       0.2419380000    -6.7414040000     0.0864860000
    2      C       1.4689830000    -6.1556380000     0.5329600000
    3      C      -0.7766510000    -5.7914520000    -0.2847330000
    4      C       1.7306810000    -4.8037860000     0.6284550000
    5      H       2.2941300000    -6.8215180000     0.8330860000
    6      C      -0.5027750000    -4.3786380000    -0.1843000000
    7      C       0.7473530000    -3.8380320000     0.2710860000
    8      C      -1.4849860000    -3.4130620000    -0.5411910000
    9      C       1.0190420000    -2.4264730000     0.3707030000
   10      C      -1.2265250000    -2.0593480000    -0.4464680000
   11      C       0.0000000000    -1.4782160000     0.0000000000
   12      H      -2.0526660000    -1.3947830000    -0.7467170000
   13      C      -2.1315490000    -6.1879870000    -0.7798320000
   14      C      -2.8292950000    -3.7981640000    -1.0305960000
   15      N      -3.0574960000    -5.1700030000    -1.1154610000
   16      C       3.0787120000    -4.4249870000     1.1190340000
   17      C       2.3753000000    -2.0366270000     0.8651510000
   18      N       3.3013740000    -3.0491560000     1.2011760000
   19      O      -2.4983000000    -7.3531310000    -0.9163550000
   20      O      -3.6971950000    -2.9868540000    -1.3454860000
   21      O       3.9362240000    -5.2489460000     1.4303790000
   22      O       2.7628050000    -0.8788290000     1.0077140000
   23      C      -4.3845390000    -5.5637990000    -1.5995760000
   24      H      -4.4266360000    -6.6640850000    -1.6161210000
   25      H      -4.5504870000    -5.1471010000    -2.6114580000
   26      H      -5.1629210000    -5.1487850000    -0.9310370000
   27      C       4.6084540000    -2.5874870000     1.6773820000
   28      H       5.2126680000    -3.4833290000     1.8961680000
   29      H       4.4827190000    -1.9649720000     2.5835310000
   30      H       5.0939880000    -1.9629320000     0.9036740000
   31      H       0.0673090000    -7.8223180000     0.0225860000
   32      C       0.0000000000     0.0000000000     0.0000000000
   33      S      -0.0002010000     0.7931710000     1.5805300000
   34      C      -0.0002280000     2.4308850000     0.9049110000
   35      C      -0.0001680000     0.9979900000    -0.9854000000
   36      C      -0.0002670000     2.3182310000    -0.4935280000
   37      H      -0.0001450000     0.7623430000    -2.0599340000
   38      H      -0.0003390000     3.1991640000    -1.1525930000
   39      H      -0.0003110000     3.3115660000     1.5560250000
 ----------------------------------------------------------------

   10   -1570.6899274440      7.02e-07  Convergence criterion met
 Total energy in the final basis set =    -1570.6899274440
        RIMP2         total energy =     -1575.3140938241 a.u.

                    Orbital Energies (a.u.)
 --------------------------------------------------------------

 Alpha MOs
 -- Occupied --
-91.9892 -20.5589 -20.5566 -20.5565 -20.5555 -15.6316 -15.6311 -11.4006
-11.3970 -11.3931 -11.3909 -11.3163 -11.3081 -11.3034 -11.3018 -11.2999
-11.2993 -11.2933 -11.2873 -11.2865 -11.2811 -11.2807 -11.2790 -11.2648
-11.2647 -11.2561 -11.2492  -8.9885  -6.6693  -6.6688  -6.6682  -1.4253
 -1.4244  -1.4045  -1.4035  -1.2680  -1.2656  -1.2184  -1.1740  -1.1446
 -1.1185  -1.0636  -1.0508  -0.9935  -0.9891  -0.9823  -0.9596  -0.9488
 -0.8977  -0.8801  -0.8783  -0.8618  -0.7956  -0.7777  -0.7737  -0.7600
 -0.7358  -0.7194  -0.7054  -0.6953  -0.6814  -0.6737  -0.6667  -0.6625
 -0.6575  -0.6425  -0.6381  -0.6342  -0.6305  -0.6131  -0.5853  -0.5847
 -0.5783  -0.5724  -0.5664  -0.5645  -0.5634  -0.5555  -0.5534  -0.5487
 -0.5342  -0.5264  -0.5198  -0.5169  -0.4836  -0.4712  -0.4665  -0.4607
 -0.4589  -0.4536  -0.4286  -0.4185  -0.4093  -0.3563  -0.3512  -0.3356
 -0.3189

          Ground-State Mulliken Net Atomic Charges

     Atom                 Charge (a.u.)
  ----------------------------------------
      1 C                    -0.130171
      2 C                    -0.108003
      3 C                    -0.043490
      4 C                    -0.000990
      5 H                     0.189133
      6 C                    -0.001211
      7 C                     0.073169
      8 C                     0.003921
      9 C                    -0.020557
     10 C                    -0.120830
     11 C                     0.059399
     12 H                     0.182978
     13 C                     0.361005
     14 C                     0.368792
     15 N                    -0.101979
     16 C                     0.359826
     17 C                     0.359171
     18 N                    -0.096622
     19 O                    -0.464683
     20 O                    -0.476424
     21 O                    -0.479814
     22 O                    -0.455802
     23 C                    -0.200947
     24 H                     0.141081
     25 H                     0.112337
     26 H                     0.112690
     27 C                    -0.195939
     28 H                     0.133652
     29 H                     0.113391
     30 H                     0.113345
     31 H                     0.214716
     32 C                    -0.040145
     33 S                     0.039333
     34 C                    -0.209102
     35 C                    -0.180326
     36 C                    -0.203774
     37 H                     0.191010
     38 H                     0.191173
     39 H                     0.210687
  ----------------------------------------
  Sum of atomic charges =     0.000000

                    Cartesian Multipole Moments
 -----------------------------------------------------------------
    Charge (ESU x 10^10)
                 0.0000
    Dipole Moment (Debye)
         X       0.1243      Y       0.6982      Z      -0.8537
       Tot       1.1098
    Quadrupole Moments (Debye-Ang)
        XX    -181.9661     XY      -0.9471     YY    -163.7405
        XZ      -6.3218     YZ       0.2693     ZZ    -159.8638

 Total job time:  253.98s(wall), 7742.80s(cpu)
        *  Thank you very much for using Q-Chem.  Have a nice day.  *
