 Q-Chem 5.4, Q-Chem, Inc., Pleasanton, CA (2021)
 Q-Chem 5.4.0 for Intel X86 EM64T Linux

User input:
--------------------------------------------------------------
$molecule
0 1
C	0.043160	-6.741404	-0.253280
C	0.269777	-6.155638	-1.539213
C	-0.145543	-5.791452	0.814295
C	0.318377	-4.803786	-1.813519
H	0.422058	-6.821518	-2.403941
C	-0.094194	-4.378638	0.527140
C	0.137191	-3.838032	-0.783072
C	-0.275104	-3.413062	1.556403
C	0.188116	-2.426473	-1.067932
C	-0.226701	-2.059348	1.285420
C	0.000000	-1.478216	0.000000
H	-0.378931	-1.394783	2.151147
C	-0.397845	-6.187987	2.234582
C	-0.523637	-3.798164	2.965273
N	-0.567586	-5.170003	3.204744
C	0.567421	-4.424987	-3.226257
C	0.439541	-2.036627	-2.489446
N	0.609650	-3.049156	-3.459801
O	-0.468608	-7.353131	2.619468
O	-0.683034	-2.986854	3.874668
O	0.725131	-5.248946	-4.124806
O	0.512648	-0.878829	-2.895819
C	-0.813908	-5.563799	4.595691
H	-0.822891	-6.664085	4.640022
H	-1.781600	-5.147101	4.934830
H	-0.020360	-5.148785	5.246157
C	0.851649	-2.587487	-4.829716
H	0.962191	-3.483329	-5.462742
H	1.765865	-1.964972	-4.863242
H	0.005383	-1.962932	-5.173521
H	0.010555	-7.822318	-0.070208
C	0.000000	0.000000	0.000000
S	0.271091	0.745405	1.580530
C	0.831198	2.284363	0.904911
C	0.341175	0.937861	-0.985400
C	0.792631	2.178516	-0.493528
H	0.260601	0.716417	-2.059934
H	1.093860	3.006347	-1.152593
H	1.132330	3.111961	1.556025
$end

$rem
JOBTYPE		SP
EXCHANGE	HF
CORRELATION	pRIMP2
BASIS		cc-pvtz
METHOD		rimp2
AUX_BASIS	rimp2-cc-pvtz
SOLVENT_METHOD	PCM
PURECART	11111
SYMMETRY	false
MEM_TOTAL	110000
SCF_CONVERGENCE = 6
THRESH=10
GUI = 2
$end

$solvent
dielectric 4.90
$end
--------------------------------------------------------------

             Standard Nuclear Orientation (Angstroms)
    I     Atom           X                Y                Z
 ----------------------------------------------------------------
    1      C       0.0431600000    -6.7414040000    -0.2532800000
    2      C       0.2697770000    -6.1556380000    -1.5392130000
    3      C      -0.1455430000    -5.7914520000     0.8142950000
    4      C       0.3183770000    -4.8037860000    -1.8135190000
    5      H       0.4220580000    -6.8215180000    -2.4039410000
    6      C      -0.0941940000    -4.3786380000     0.5271400000
    7      C       0.1371910000    -3.8380320000    -0.7830720000
    8      C      -0.2751040000    -3.4130620000     1.5564030000
    9      C       0.1881160000    -2.4264730000    -1.0679320000
   10      C      -0.2267010000    -2.0593480000     1.2854200000
   11      C       0.0000000000    -1.4782160000     0.0000000000
   12      H      -0.3789310000    -1.3947830000     2.1511470000
   13      C      -0.3978450000    -6.1879870000     2.2345820000
   14      C      -0.5236370000    -3.7981640000     2.9652730000
   15      N      -0.5675860000    -5.1700030000     3.2047440000
   16      C       0.5674210000    -4.4249870000    -3.2262570000
   17      C       0.4395410000    -2.0366270000    -2.4894460000
   18      N       0.6096500000    -3.0491560000    -3.4598010000
   19      O      -0.4686080000    -7.3531310000     2.6194680000
   20      O      -0.6830340000    -2.9868540000     3.8746680000
   21      O       0.7251310000    -5.2489460000    -4.1248060000
   22      O       0.5126480000    -0.8788290000    -2.8958190000
   23      C      -0.8139080000    -5.5637990000     4.5956910000
   24      H      -0.8228910000    -6.6640850000     4.6400220000
   25      H      -1.7816000000    -5.1471010000     4.9348300000
   26      H      -0.0203600000    -5.1487850000     5.2461570000
   27      C       0.8516490000    -2.5874870000    -4.8297160000
   28      H       0.9621910000    -3.4833290000    -5.4627420000
   29      H       1.7658650000    -1.9649720000    -4.8632420000
   30      H       0.0053830000    -1.9629320000    -5.1735210000
   31      H       0.0105550000    -7.8223180000    -0.0702080000
   32      C       0.0000000000     0.0000000000     0.0000000000
   33      S       0.2710910000     0.7454050000     1.5805300000
   34      C       0.8311980000     2.2843630000     0.9049110000
   35      C       0.3411750000     0.9378610000    -0.9854000000
   36      C       0.7926310000     2.1785160000    -0.4935280000
   37      H       0.2606010000     0.7164170000    -2.0599340000
   38      H       1.0938600000     3.0063470000    -1.1525930000
   39      H       1.1323300000     3.1119610000     1.5560250000
 ----------------------------------------------------------------

   10   -1570.6763820165      8.69e-07  Convergence criterion met
 Total energy in the final basis set =    -1570.6763820165
        RIMP2         total energy =     -1575.3057244519 a.u.

                    Orbital Energies (a.u.)
 --------------------------------------------------------------

 Alpha MOs
 -- Occupied --
-91.9931 -20.5583 -20.5563 -20.5550 -20.5533 -15.6310 -15.6305 -11.3996
-11.3972 -11.3911 -11.3906 -11.3199 -11.3017 -11.2997 -11.2969 -11.2944
-11.2932 -11.2927 -11.2882 -11.2871 -11.2826 -11.2785 -11.2782 -11.2649
-11.2643 -11.2532 -11.2498  -8.9931  -6.6739  -6.6733  -6.6727  -1.4258
 -1.4246  -1.4041  -1.4040  -1.2674  -1.2653  -1.2166  -1.1781  -1.1436
 -1.1157  -1.0633  -1.0490  -0.9923  -0.9902  -0.9877  -0.9586  -0.9472
 -0.8970  -0.8789  -0.8780  -0.8615  -0.7961  -0.7795  -0.7731  -0.7627
 -0.7355  -0.7256  -0.7031  -0.6936  -0.6820  -0.6737  -0.6664  -0.6622
 -0.6558  -0.6412  -0.6376  -0.6340  -0.6276  -0.6127  -0.5908  -0.5835
 -0.5784  -0.5715  -0.5664  -0.5639  -0.5608  -0.5560  -0.5541  -0.5468
 -0.5341  -0.5250  -0.5238  -0.5166  -0.4812  -0.4682  -0.4648  -0.4629
 -0.4577  -0.4493  -0.4292  -0.4192  -0.4096  -0.3773  -0.3546  -0.3363
 -0.2989

          Ground-State Mulliken Net Atomic Charges

     Atom                 Charge (a.u.)
  ----------------------------------------
      1 C                    -0.146767
      2 C                    -0.111614
      3 C                    -0.030396
      4 C                    -0.002966
      5 H                     0.187634
      6 C                    -0.001501
      7 C                     0.074643
      8 C                     0.043993
      9 C                    -0.075696
     10 C                    -0.166707
     11 C                     0.063529
     12 H                     0.166347
     13 C                     0.359084
     14 C                     0.364680
     15 N                    -0.101407
     16 C                     0.358968
     17 C                     0.383546
     18 N                    -0.091592
     19 O                    -0.464178
     20 O                    -0.476552
     21 O                    -0.483517
     22 O                    -0.477206
     23 C                    -0.201211
     24 H                     0.141107
     25 H                     0.112397
     26 H                     0.112489
     27 C                    -0.198529
     28 H                     0.134615
     29 H                     0.112535
     30 H                     0.112552
     31 H                     0.212354
     32 C                     0.005814
     33 S                     0.020872
     34 C                    -0.194357
     35 C                    -0.163785
     36 C                    -0.218615
     37 H                     0.228176
     38 H                     0.192853
     39 H                     0.218410
  ----------------------------------------
  Sum of atomic charges =     0.000000

                    Cartesian Multipole Moments
 -----------------------------------------------------------------
    Charge (ESU x 10^10)
                -0.0000
    Dipole Moment (Debye)
         X       0.8943      Y       2.3417      Z      -0.8684
       Tot       2.6528
    Quadrupole Moments (Debye-Ang)
        XX    -163.1599     XY       3.9342     YY    -170.1054
        XZ       3.8103     YZ       0.3972     ZZ    -177.5153

 Total job time:  267.96s(wall), 8030.06s(cpu)
        *  Thank you very much for using Q-Chem.  Have a nice day.  *
