 Q-Chem 5.4, Q-Chem, Inc., Pleasanton, CA (2021)
 Q-Chem 5.4.0 for Intel X86 EM64T Linux

User input:
--------------------------------------------------------------
$molecule
0 1
C	-0.256927	-6.741404	0.001478
C	-1.562675	-6.155638	0.001603
C	0.827197	-5.791452	0.001931
C	-1.841253	-4.803786	0.001374
H	-2.440709	-6.821518	0.001794
C	0.535488	-4.378638	0.001227
C	-0.794999	-3.838032	0.000872
C	1.580529	-3.413062	0.000658
C	-1.084374	-2.426473	0.000186
C	1.305258	-2.059348	0.000046
C	0.000000	-1.478216	0.000000
H	2.184267	-1.394783	-0.000369
C	2.269719	-6.187987	0.003770
C	3.011152	-3.798164	0.000767
N	3.254617	-5.170003	0.002465
C	-3.275775	-4.424987	0.001433
C	-2.527951	-2.036627	-0.000576
N	-3.513104	-3.049156	0.000400
O	2.661046	-7.353131	0.006623
O	3.934410	-2.986854	-0.000172
O	-4.188059	-5.248946	0.002151
O	-2.940845	-0.878829	-0.002006
C	4.667206	-5.563799	0.003509
H	4.712423	-6.664085	0.004658
H	5.169231	-5.147101	0.897610
H	5.169992	-5.148785	-0.890935
C	-4.904229	-2.587487	-0.000039
H	-5.546833	-3.483329	0.001022
H	-5.095998	-1.964972	-0.894545
H	-5.095858	-1.962932	0.893071
H	-0.070974	-7.822318	0.001797
C	0.000000	0.000000	0.000000
S	0.396411	0.687007	1.580530
C	1.215245	2.105322	0.904911
C	0.498850	0.864369	-0.985400
C	1.158885	2.007781	-0.493528
H	0.381046	0.660280	-2.059934
H	1.599289	2.770727	-1.152593
H	1.655514	2.868056	1.556025
$end

$rem
JOBTYPE		SP
EXCHANGE	HF
CORRELATION	pRIMP2
BASIS		cc-pvtz
METHOD		rimp2
AUX_BASIS	rimp2-cc-pvtz
SOLVENT_METHOD	PCM
PURECART	11111
SYMMETRY	false
MEM_TOTAL	110000
SCF_CONVERGENCE = 6
THRESH=10
GUI = 2
$end

$solvent
dielectric 4.90
$end
--------------------------------------------------------------

             Standard Nuclear Orientation (Angstroms)
    I     Atom           X                Y                Z
 ----------------------------------------------------------------
    1      C      -0.2569270000    -6.7414040000     0.0014780000
    2      C      -1.5626750000    -6.1556380000     0.0016030000
    3      C       0.8271970000    -5.7914520000     0.0019310000
    4      C      -1.8412530000    -4.8037860000     0.0013740000
    5      H      -2.4407090000    -6.8215180000     0.0017940000
    6      C       0.5354880000    -4.3786380000     0.0012270000
    7      C      -0.7949990000    -3.8380320000     0.0008720000
    8      C       1.5805290000    -3.4130620000     0.0006580000
    9      C      -1.0843740000    -2.4264730000     0.0001860000
   10      C       1.3052580000    -2.0593480000     0.0000460000
   11      C       0.0000000000    -1.4782160000     0.0000000000
   12      H       2.1842670000    -1.3947830000    -0.0003690000
   13      C       2.2697190000    -6.1879870000     0.0037700000
   14      C       3.0111520000    -3.7981640000     0.0007670000
   15      N       3.2546170000    -5.1700030000     0.0024650000
   16      C      -3.2757750000    -4.4249870000     0.0014330000
   17      C      -2.5279510000    -2.0366270000    -0.0005760000
   18      N      -3.5131040000    -3.0491560000     0.0004000000
   19      O       2.6610460000    -7.3531310000     0.0066230000
   20      O       3.9344100000    -2.9868540000    -0.0001720000
   21      O      -4.1880590000    -5.2489460000     0.0021510000
   22      O      -2.9408450000    -0.8788290000    -0.0020060000
   23      C       4.6672060000    -5.5637990000     0.0035090000
   24      H       4.7124230000    -6.6640850000     0.0046580000
   25      H       5.1692310000    -5.1471010000     0.8976100000
   26      H       5.1699920000    -5.1487850000    -0.8909350000
   27      C      -4.9042290000    -2.5874870000    -0.0000390000
   28      H      -5.5468330000    -3.4833290000     0.0010220000
   29      H      -5.0959980000    -1.9649720000    -0.8945450000
   30      H      -5.0958580000    -1.9629320000     0.8930710000
   31      H      -0.0709740000    -7.8223180000     0.0017970000
   32      C       0.0000000000     0.0000000000     0.0000000000
   33      S       0.3964110000     0.6870070000     1.5805300000
   34      C       1.2152450000     2.1053220000     0.9049110000
   35      C       0.4988500000     0.8643690000    -0.9854000000
   36      C       1.1588850000     2.0077810000    -0.4935280000
   37      H       0.3810460000     0.6602800000    -2.0599340000
   38      H       1.5992890000     2.7707270000    -1.1525930000
   39      H       1.6555140000     2.8680560000     1.5560250000
 ----------------------------------------------------------------

   10   -1570.6780904939      7.64e-07  Convergence criterion met
 Total energy in the final basis set =    -1570.6780904939
        RIMP2         total energy =     -1575.3046837583 a.u.

                    Orbital Energies (a.u.)
 --------------------------------------------------------------

 Alpha MOs
 -- Occupied --
-91.9929 -20.5585 -20.5574 -20.5559 -20.5555 -15.6312 -15.6311 -11.4001
-11.3972 -11.3929 -11.3904 -11.3159 -11.3054 -11.3026 -11.3001 -11.2987
-11.2983 -11.2902 -11.2865 -11.2854 -11.2853 -11.2801 -11.2787 -11.2646
-11.2646 -11.2586 -11.2519  -8.9923  -6.6731  -6.6725  -6.6720  -1.4248
 -1.4244  -1.4041  -1.4035  -1.2676  -1.2654  -1.2179  -1.1785  -1.1437
 -1.1176  -1.0631  -1.0499  -0.9930  -0.9908  -0.9855  -0.9592  -0.9478
 -0.8975  -0.8793  -0.8775  -0.8601  -0.7955  -0.7773  -0.7733  -0.7612
 -0.7369  -0.7189  -0.7058  -0.6948  -0.6816  -0.6738  -0.6664  -0.6623
 -0.6570  -0.6422  -0.6379  -0.6342  -0.6300  -0.6128  -0.5852  -0.5846
 -0.5779  -0.5743  -0.5672  -0.5642  -0.5624  -0.5552  -0.5531  -0.5484
 -0.5362  -0.5270  -0.5211  -0.5101  -0.4835  -0.4722  -0.4671  -0.4607
 -0.4605  -0.4537  -0.4281  -0.4182  -0.4086  -0.3638  -0.3417  -0.3333
 -0.3264

          Ground-State Mulliken Net Atomic Charges

     Atom                 Charge (a.u.)
  ----------------------------------------
      1 C                    -0.131125
      2 C                    -0.110651
      3 C                    -0.042717
      4 C                     0.002560
      5 H                     0.188732
      6 C                     0.002512
      7 C                     0.075302
      8 C                    -0.010611
      9 C                    -0.011798
     10 C                    -0.081407
     11 C                    -0.013177
     12 H                     0.189940
     13 C                     0.360687
     14 C                     0.363169
     15 N                    -0.101475
     16 C                     0.359429
     17 C                     0.357458
     18 N                    -0.098460
     19 O                    -0.465254
     20 O                    -0.476943
     21 O                    -0.479426
     22 O                    -0.457805
     23 C                    -0.201231
     24 H                     0.141075
     25 H                     0.112469
     26 H                     0.112263
     27 C                    -0.196057
     28 H                     0.133759
     29 H                     0.113073
     30 H                     0.113427
     31 H                     0.214321
     32 C                     0.016863
     33 S                     0.031819
     34 C                    -0.207601
     35 C                    -0.212800
     36 C                    -0.183657
     37 H                     0.188066
     38 H                     0.193470
     39 H                     0.211802
  ----------------------------------------
  Sum of atomic charges =     0.000000

                    Cartesian Multipole Moments
 -----------------------------------------------------------------
    Charge (ESU x 10^10)
                 0.0000
    Dipole Moment (Debye)
         X       1.1080      Y       0.8509      Z      -0.9210
       Tot       1.6733
    Quadrupole Moments (Debye-Ang)
        XX    -181.7077     XY       6.2609     YY    -167.4565
        XZ       0.3633     YZ       0.7329     ZZ    -157.3055

 Total job time:  278.19s(wall), 9367.11s(cpu)
        *  Thank you very much for using Q-Chem.  Have a nice day.  *
