 Q-Chem 5.4, Q-Chem, Inc., Pleasanton, CA (2021)
 Q-Chem 5.4.0 for Intel X86 EM64T Linux

User input:
--------------------------------------------------------------
$molecule
0 1
C	0.253280	-6.741404	0.043160
C	1.539213	-6.155638	0.269777
C	-0.814295	-5.791452	-0.145543
C	1.813519	-4.803786	0.318377
H	2.403941	-6.821518	0.422058
C	-0.527140	-4.378638	-0.094194
C	0.783072	-3.838032	0.137191
C	-1.556403	-3.413062	-0.275104
C	1.067932	-2.426473	0.188116
C	-1.285420	-2.059348	-0.226701
C	-0.000000	-1.478216	-0.000000
H	-2.151147	-1.394783	-0.378931
C	-2.234582	-6.187987	-0.397845
C	-2.965273	-3.798164	-0.523637
N	-3.204744	-5.170003	-0.567586
C	3.226257	-4.424987	0.567421
C	2.489446	-2.036627	0.439541
N	3.459801	-3.049156	0.609650
O	-2.619468	-7.353131	-0.468608
O	-3.874668	-2.986854	-0.683034
O	4.124806	-5.248946	0.725131
O	2.895819	-0.878829	0.512648
C	-4.595691	-5.563799	-0.813908
H	-4.640022	-6.664085	-0.822891
H	-4.934830	-5.147101	-1.781600
H	-5.246157	-5.148785	-0.020360
C	4.829716	-2.587487	0.851649
H	5.462742	-3.483329	0.962191
H	4.863242	-1.964972	1.765865
H	5.173521	-1.962932	0.005383
H	0.070208	-7.822318	0.010555
C	0.000000	0.000000	0.000000
S	0.607475	0.509994	1.580530
C	1.862020	1.562717	0.904911
C	0.764397	0.641624	-0.985400
C	1.775697	1.490335	-0.493528
H	0.583895	0.490135	-2.059934
H	2.450484	2.056643	-1.152593
H	2.536607	2.128872	1.556025
$end

$rem
JOBTYPE		SP
EXCHANGE	HF
CORRELATION	pRIMP2
BASIS		cc-pvtz
METHOD		rimp2
AUX_BASIS	rimp2-cc-pvtz
SOLVENT_METHOD	PCM
PURECART	11111
SYMMETRY	false
MEM_TOTAL	110000
SCF_CONVERGENCE = 6
THRESH=10
GUI = 2
$end

$solvent
dielectric 4.90
$end
--------------------------------------------------------------

             Standard Nuclear Orientation (Angstroms)
    I     Atom           X                Y                Z
 ----------------------------------------------------------------
    1      C       0.2532800000    -6.7414040000     0.0431600000
    2      C       1.5392130000    -6.1556380000     0.2697770000
    3      C      -0.8142950000    -5.7914520000    -0.1455430000
    4      C       1.8135190000    -4.8037860000     0.3183770000
    5      H       2.4039410000    -6.8215180000     0.4220580000
    6      C      -0.5271400000    -4.3786380000    -0.0941940000
    7      C       0.7830720000    -3.8380320000     0.1371910000
    8      C      -1.5564030000    -3.4130620000    -0.2751040000
    9      C       1.0679320000    -2.4264730000     0.1881160000
   10      C      -1.2854200000    -2.0593480000    -0.2267010000
   11      C       0.0000000000    -1.4782160000     0.0000000000
   12      H      -2.1511470000    -1.3947830000    -0.3789310000
   13      C      -2.2345820000    -6.1879870000    -0.3978450000
   14      C      -2.9652730000    -3.7981640000    -0.5236370000
   15      N      -3.2047440000    -5.1700030000    -0.5675860000
   16      C       3.2262570000    -4.4249870000     0.5674210000
   17      C       2.4894460000    -2.0366270000     0.4395410000
   18      N       3.4598010000    -3.0491560000     0.6096500000
   19      O      -2.6194680000    -7.3531310000    -0.4686080000
   20      O      -3.8746680000    -2.9868540000    -0.6830340000
   21      O       4.1248060000    -5.2489460000     0.7251310000
   22      O       2.8958190000    -0.8788290000     0.5126480000
   23      C      -4.5956910000    -5.5637990000    -0.8139080000
   24      H      -4.6400220000    -6.6640850000    -0.8228910000
   25      H      -4.9348300000    -5.1471010000    -1.7816000000
   26      H      -5.2461570000    -5.1487850000    -0.0203600000
   27      C       4.8297160000    -2.5874870000     0.8516490000
   28      H       5.4627420000    -3.4833290000     0.9621910000
   29      H       4.8632420000    -1.9649720000     1.7658650000
   30      H       5.1735210000    -1.9629320000     0.0053830000
   31      H       0.0702080000    -7.8223180000     0.0105550000
   32      C       0.0000000000     0.0000000000     0.0000000000
   33      S       0.6074750000     0.5099940000     1.5805300000
   34      C       1.8620200000     1.5627170000     0.9049110000
   35      C       0.7643970000     0.6416240000    -0.9854000000
   36      C       1.7756970000     1.4903350000    -0.4935280000
   37      H       0.5838950000     0.4901350000    -2.0599340000
   38      H       2.4504840000     2.0566430000    -1.1525930000
   39      H       2.5366070000     2.1288720000     1.5560250000
 ----------------------------------------------------------------

   11   -1570.6329247421      4.79e-07  Convergence criterion met
 Total energy in the final basis set =    -1570.6329247421
        RIMP2         total energy =     -1575.2739555046 a.u.

                    Orbital Energies (a.u.)
 --------------------------------------------------------------

 Alpha MOs
 -- Occupied --
-91.9833 -20.5575 -20.5545 -20.5528 -20.5501 -15.6298 -15.6280 -11.3989
-11.3904 -11.3904 -11.3884 -11.3115 -11.3010 -11.2986 -11.2976 -11.2953
-11.2948 -11.2931 -11.2836 -11.2819 -11.2785 -11.2694 -11.2688 -11.2642
-11.2641 -11.2637 -11.2439  -8.9833  -6.6641  -6.6634  -6.6630  -1.4235
 -1.4216  -1.4028  -1.4009  -1.2658  -1.2631  -1.2150  -1.1769  -1.1405
 -1.1141  -1.0593  -1.0466  -0.9914  -0.9866  -0.9836  -0.9577  -0.9474
 -0.8946  -0.8775  -0.8705  -0.8584  -0.7901  -0.7748  -0.7716  -0.7589
 -0.7341  -0.7171  -0.7039  -0.6936  -0.6788  -0.6695  -0.6647  -0.6607
 -0.6551  -0.6429  -0.6357  -0.6344  -0.6271  -0.6101  -0.5845  -0.5826
 -0.5748  -0.5741  -0.5659  -0.5629  -0.5567  -0.5537  -0.5518  -0.5475
 -0.5380  -0.5248  -0.5182  -0.4973  -0.4787  -0.4687  -0.4620  -0.4576
 -0.4537  -0.4353  -0.4261  -0.4177  -0.4076  -0.3573  -0.3393  -0.3284
 -0.3214

          Ground-State Mulliken Net Atomic Charges

     Atom                 Charge (a.u.)
  ----------------------------------------
      1 C                    -0.138493
      2 C                    -0.110226
      3 C                    -0.039617
      4 C                     0.000940
      5 H                     0.187529
      6 C                    -0.008195
      7 C                     0.066973
      8 C                     0.009207
      9 C                    -0.031332
     10 C                    -0.140285
     11 C                     0.068474
     12 H                     0.180131
     13 C                     0.360236
     14 C                     0.364450
     15 N                    -0.101331
     16 C                     0.354358
     17 C                     0.374003
     18 N                    -0.091834
     19 O                    -0.465644
     20 O                    -0.476760
     21 O                    -0.484521
     22 O                    -0.458279
     23 C                    -0.201511
     24 H                     0.140739
     25 H                     0.111918
     26 H                     0.112245
     27 C                    -0.196743
     28 H                     0.134039
     29 H                     0.111309
     30 H                     0.110969
     31 H                     0.213177
     32 C                    -0.120498
     33 S                     0.021511
     34 C                    -0.116465
     35 C                    -0.129142
     36 C                    -0.194468
     37 H                     0.189693
     38 H                     0.185377
     39 H                     0.208066
  ----------------------------------------
  Sum of atomic charges =     0.000000

                    Cartesian Multipole Moments
 -----------------------------------------------------------------
    Charge (ESU x 10^10)
                 0.0000
    Dipole Moment (Debye)
         X       2.8063      Y       1.4576      Z      -0.9033
       Tot       3.2887
    Quadrupole Moments (Debye-Ang)
        XX    -176.7183     XY       6.0817     YY    -176.2641
        XZ      -2.3714     YZ       0.4429     ZZ    -157.8932

 Total job time:  279.85s(wall), 8560.50s(cpu)
        *  Thank you very much for using Q-Chem.  Have a nice day.  *
