 Q-Chem 5.4, Q-Chem, Inc., Pleasanton, CA (2021)
 Q-Chem 5.4.0 for Intel X86 EM64T Linux

User input:
--------------------------------------------------------------
$molecule
0 1
C	0.252767	-6.741404	-0.046070
C	1.538656	-6.155638	-0.272935
C	-0.814966	-5.791452	0.141739
C	1.813042	-4.803786	-0.321083
H	2.403318	-6.821518	-0.425592
C	-0.527566	-4.378638	0.091779
C	0.782769	-3.838032	-0.138909
C	-1.556632	-3.413062	0.273808
C	1.067868	-2.426473	-0.188483
C	-1.285436	-2.059348	0.226610
C	-0.000000	-1.478216	-0.000000
H	-2.151019	-1.394783	0.379657
C	-2.235891	-6.187987	0.390420
C	-2.965540	-3.798164	0.522125
N	-3.205600	-5.170003	0.562731
C	3.225760	-4.424987	-0.570244
C	2.489646	-2.036627	-0.438407
N	3.459662	-3.049156	-0.610438
O	-2.621768	-7.353131	0.455563
O	-3.874608	-2.986854	0.683373
O	4.124059	-5.248946	-0.729367
O	2.896516	-0.878829	-0.508697
C	-4.596910	-5.563799	0.806996
H	-4.641640	-6.664085	0.813717
H	-5.246567	-5.147101	0.013655
H	-4.936739	-5.148785	1.775159
C	4.829729	-2.587487	-0.851572
H	5.462387	-3.483329	-0.964204
H	5.173914	-1.964972	-0.003956
H	4.863360	-1.962932	-1.764390
H	0.069584	-7.822318	-0.014094
C	0.000000	0.000000	0.000000
S	-0.000201	0.793171	1.580530
C	-0.000228	2.430885	0.904911
C	-0.000168	0.997990	-0.985400
C	-0.000267	2.318231	-0.493528
H	-0.000145	0.762343	-2.059934
H	-0.000339	3.199164	-1.152593
H	-0.000311	3.311566	1.556025
$end

$rem
JOBTYPE		SP
EXCHANGE	HF
CORRELATION	pRIMP2
BASIS		cc-pvtz
METHOD		rimp2
AUX_BASIS	rimp2-cc-pvtz
SOLVENT_METHOD	PCM
PURECART	11111
SYMMETRY	false
MEM_TOTAL	110000
SCF_CONVERGENCE = 6
THRESH=10
GUI = 2
$end

$solvent
dielectric 4.90
$end
--------------------------------------------------------------

             Standard Nuclear Orientation (Angstroms)
    I     Atom           X                Y                Z
 ----------------------------------------------------------------
    1      C       0.2527670000    -6.7414040000    -0.0460700000
    2      C       1.5386560000    -6.1556380000    -0.2729350000
    3      C      -0.8149660000    -5.7914520000     0.1417390000
    4      C       1.8130420000    -4.8037860000    -0.3210830000
    5      H       2.4033180000    -6.8215180000    -0.4255920000
    6      C      -0.5275660000    -4.3786380000     0.0917790000
    7      C       0.7827690000    -3.8380320000    -0.1389090000
    8      C      -1.5566320000    -3.4130620000     0.2738080000
    9      C       1.0678680000    -2.4264730000    -0.1884830000
   10      C      -1.2854360000    -2.0593480000     0.2266100000
   11      C       0.0000000000    -1.4782160000     0.0000000000
   12      H      -2.1510190000    -1.3947830000     0.3796570000
   13      C      -2.2358910000    -6.1879870000     0.3904200000
   14      C      -2.9655400000    -3.7981640000     0.5221250000
   15      N      -3.2056000000    -5.1700030000     0.5627310000
   16      C       3.2257600000    -4.4249870000    -0.5702440000
   17      C       2.4896460000    -2.0366270000    -0.4384070000
   18      N       3.4596620000    -3.0491560000    -0.6104380000
   19      O      -2.6217680000    -7.3531310000     0.4555630000
   20      O      -3.8746080000    -2.9868540000     0.6833730000
   21      O       4.1240590000    -5.2489460000    -0.7293670000
   22      O       2.8965160000    -0.8788290000    -0.5086970000
   23      C      -4.5969100000    -5.5637990000     0.8069960000
   24      H      -4.6416400000    -6.6640850000     0.8137170000
   25      H      -5.2465670000    -5.1471010000     0.0136550000
   26      H      -4.9367390000    -5.1487850000     1.7751590000
   27      C       4.8297290000    -2.5874870000    -0.8515720000
   28      H       5.4623870000    -3.4833290000    -0.9642040000
   29      H       5.1739140000    -1.9649720000    -0.0039560000
   30      H       4.8633600000    -1.9629320000    -1.7643900000
   31      H       0.0695840000    -7.8223180000    -0.0140940000
   32      C       0.0000000000     0.0000000000     0.0000000000
   33      S      -0.0002010000     0.7931710000     1.5805300000
   34      C      -0.0002280000     2.4308850000     0.9049110000
   35      C      -0.0001680000     0.9979900000    -0.9854000000
   36      C      -0.0002670000     2.3182310000    -0.4935280000
   37      H      -0.0001450000     0.7623430000    -2.0599340000
   38      H      -0.0003390000     3.1991640000    -1.1525930000
   39      H      -0.0003110000     3.3115660000     1.5560250000
 ----------------------------------------------------------------

   10   -1570.6907000167      6.97e-07  Convergence criterion met
 Total energy in the final basis set =    -1570.6907000167
        RIMP2         total energy =     -1575.3139259491 a.u.

                    Orbital Energies (a.u.)
 --------------------------------------------------------------

 Alpha MOs
 -- Occupied --
-91.9926 -20.5589 -20.5576 -20.5564 -20.5560 -15.6316 -15.6316 -11.4006
-11.3977 -11.3935 -11.3909 -11.3161 -11.3087 -11.3035 -11.3018 -11.3003
-11.2997 -11.2935 -11.2877 -11.2866 -11.2813 -11.2803 -11.2794 -11.2650
-11.2647 -11.2542 -11.2500  -8.9918  -6.6726  -6.6721  -6.6715  -1.4252
 -1.4248  -1.4045  -1.4039  -1.2681  -1.2658  -1.2187  -1.1746  -1.1448
 -1.1187  -1.0639  -1.0510  -0.9936  -0.9897  -0.9826  -0.9597  -0.9490
 -0.8980  -0.8803  -0.8786  -0.8618  -0.7962  -0.7781  -0.7735  -0.7591
 -0.7380  -0.7192  -0.7055  -0.6957  -0.6812  -0.6733  -0.6669  -0.6627
 -0.6576  -0.6430  -0.6382  -0.6345  -0.6309  -0.6130  -0.5858  -0.5849
 -0.5785  -0.5730  -0.5664  -0.5645  -0.5616  -0.5555  -0.5530  -0.5489
 -0.5354  -0.5271  -0.5195  -0.5181  -0.4840  -0.4711  -0.4671  -0.4612
 -0.4608  -0.4541  -0.4288  -0.4185  -0.4094  -0.3561  -0.3512  -0.3344
 -0.3228

          Ground-State Mulliken Net Atomic Charges

     Atom                 Charge (a.u.)
  ----------------------------------------
      1 C                    -0.128981
      2 C                    -0.107408
      3 C                    -0.044065
      4 C                    -0.000728
      5 H                     0.189061
      6 C                    -0.003311
      7 C                     0.072601
      8 C                     0.002659
      9 C                    -0.007938
     10 C                    -0.120473
     11 C                     0.054120
     12 H                     0.183761
     13 C                     0.361191
     14 C                     0.369482
     15 N                    -0.102004
     16 C                     0.360080
     17 C                     0.354559
     18 N                    -0.097318
     19 O                    -0.464674
     20 O                    -0.476256
     21 O                    -0.479303
     22 O                    -0.456647
     23 C                    -0.200953
     24 H                     0.141099
     25 H                     0.112466
     26 H                     0.112614
     27 C                    -0.195758
     28 H                     0.133764
     29 H                     0.113807
     30 H                     0.113053
     31 H                     0.214883
     32 C                    -0.041239
     33 S                     0.031798
     34 C                    -0.212984
     35 C                    -0.168579
     36 C                    -0.202643
     37 H                     0.188049
     38 H                     0.191157
     39 H                     0.211054
  ----------------------------------------
  Sum of atomic charges =     0.000000

                    Cartesian Multipole Moments
 -----------------------------------------------------------------
    Charge (ESU x 10^10)
                 0.0000
    Dipole Moment (Debye)
         X       0.0924      Y       0.6339      Z      -0.9648
       Tot       1.1581
    Quadrupole Moments (Debye-Ang)
        XX    -183.6273     XY      -1.2164     YY    -163.2290
        XZ       3.4475     YZ       0.8455     ZZ    -158.1460

 Total job time:  285.89s(wall), 8283.66s(cpu)
        *  Thank you very much for using Q-Chem.  Have a nice day.  *
