 Q-Chem 5.4, Q-Chem, Inc., Pleasanton, CA (2021)
 Q-Chem 5.4.0 for Intel X86 EM64T Linux

User input:
--------------------------------------------------------------
$molecule
0 1
C	0.197767	-6.741404	0.164018
C	1.198109	-6.155638	1.003240
C	-0.632428	-5.791452	-0.533192
C	1.411364	-4.803786	1.182482
H	1.870845	-6.821518	1.567483
C	-0.409419	-4.378638	-0.345145
C	0.609565	-3.838032	0.510347
C	-1.210332	-3.413062	-1.016449
C	0.830799	-2.426473	0.696879
C	-0.999856	-2.059348	-0.839039
C	-0.000000	-1.478216	-0.000000
H	-1.673483	-1.394783	-1.403737
C	-1.736282	-6.187987	-1.461835
C	-2.306183	-3.798164	-1.936119
N	-2.491597	-5.170003	-2.093916
C	2.510310	-4.424987	2.104529
C	1.936153	-2.036627	1.625377
N	2.691451	-3.049156	2.257873
O	-2.034222	-7.353131	-1.715561
O	-3.014044	-2.986854	-2.528858
O	3.209622	-5.248946	2.690385
O	2.251529	-0.878829	1.891876
C	-3.573032	-5.563799	-3.002711
H	-3.606932	-6.664085	-3.032655
H	-3.382888	-5.147101	-4.010326
H	-4.533125	-5.148785	-2.640711
C	3.756832	-2.587487	3.152408
H	4.249778	-3.483329	3.564653
H	3.328759	-1.964972	3.960905
H	4.477709	-1.962932	2.591422
H	0.055524	-7.822318	0.044245
C	0.000000	0.000000	0.000000
S	0.335026	0.718942	1.580530
C	1.027130	2.203226	0.904911
C	0.421617	0.904557	-0.985400
C	0.979485	2.101144	-0.493528
H	0.322049	0.690978	-2.059934
H	1.351718	2.899571	-1.152593
H	1.399246	3.001430	1.556025
$end

$rem
JOBTYPE		SP
EXCHANGE	HF
CORRELATION	pRIMP2
BASIS		cc-pvtz
METHOD		rimp2
AUX_BASIS	rimp2-cc-pvtz
SOLVENT_METHOD	PCM
PURECART	11111
SYMMETRY	false
MEM_TOTAL	110000
SCF_CONVERGENCE = 6
THRESH=10
GUI = 2
$end

$solvent
dielectric 4.90
$end
--------------------------------------------------------------

             Standard Nuclear Orientation (Angstroms)
    I     Atom           X                Y                Z
 ----------------------------------------------------------------
    1      C       0.1977670000    -6.7414040000     0.1640180000
    2      C       1.1981090000    -6.1556380000     1.0032400000
    3      C      -0.6324280000    -5.7914520000    -0.5331920000
    4      C       1.4113640000    -4.8037860000     1.1824820000
    5      H       1.8708450000    -6.8215180000     1.5674830000
    6      C      -0.4094190000    -4.3786380000    -0.3451450000
    7      C       0.6095650000    -3.8380320000     0.5103470000
    8      C      -1.2103320000    -3.4130620000    -1.0164490000
    9      C       0.8307990000    -2.4264730000     0.6968790000
   10      C      -0.9998560000    -2.0593480000    -0.8390390000
   11      C       0.0000000000    -1.4782160000     0.0000000000
   12      H      -1.6734830000    -1.3947830000    -1.4037370000
   13      C      -1.7362820000    -6.1879870000    -1.4618350000
   14      C      -2.3061830000    -3.7981640000    -1.9361190000
   15      N      -2.4915970000    -5.1700030000    -2.0939160000
   16      C       2.5103100000    -4.4249870000     2.1045290000
   17      C       1.9361530000    -2.0366270000     1.6253770000
   18      N       2.6914510000    -3.0491560000     2.2578730000
   19      O      -2.0342220000    -7.3531310000    -1.7155610000
   20      O      -3.0140440000    -2.9868540000    -2.5288580000
   21      O       3.2096220000    -5.2489460000     2.6903850000
   22      O       2.2515290000    -0.8788290000     1.8918760000
   23      C      -3.5730320000    -5.5637990000    -3.0027110000
   24      H      -3.6069320000    -6.6640850000    -3.0326550000
   25      H      -3.3828880000    -5.1471010000    -4.0103260000
   26      H      -4.5331250000    -5.1487850000    -2.6407110000
   27      C       3.7568320000    -2.5874870000     3.1524080000
   28      H       4.2497780000    -3.4833290000     3.5646530000
   29      H       3.3287590000    -1.9649720000     3.9609050000
   30      H       4.4777090000    -1.9629320000     2.5914220000
   31      H       0.0555240000    -7.8223180000     0.0442450000
   32      C       0.0000000000     0.0000000000     0.0000000000
   33      S       0.3350260000     0.7189420000     1.5805300000
   34      C       1.0271300000     2.2032260000     0.9049110000
   35      C       0.4216170000     0.9045570000    -0.9854000000
   36      C       0.9794850000     2.1011440000    -0.4935280000
   37      H       0.3220490000     0.6909780000    -2.0599340000
   38      H       1.3517180000     2.8995710000    -1.1525930000
   39      H       1.3992460000     3.0014300000     1.5560250000
 ----------------------------------------------------------------

   10   -1570.6574244033      8.36e-07  Convergence criterion met
 Total energy in the final basis set =    -1570.6574244033
        RIMP2         total energy =     -1575.2930706237 a.u.

                    Orbital Energies (a.u.)
 --------------------------------------------------------------

 Alpha MOs
 -- Occupied --
-91.9812 -20.5585 -20.5561 -20.5541 -20.5507 -15.6311 -15.6298 -11.3999
-11.3948 -11.3916 -11.3903 -11.3164 -11.3023 -11.3023 -11.3004 -11.2967
-11.2962 -11.2856 -11.2849 -11.2848 -11.2828 -11.2797 -11.2758 -11.2645
-11.2643 -11.2609 -11.2453  -8.9813  -6.6618  -6.6612  -6.6610  -1.4248
 -1.4240  -1.4041  -1.4032  -1.2673  -1.2649  -1.2167  -1.1731  -1.1428
 -1.1165  -1.0616  -1.0491  -0.9926  -0.9879  -0.9814  -0.9588  -0.9476
 -0.8959  -0.8793  -0.8758  -0.8614  -0.7926  -0.7765  -0.7738  -0.7592
 -0.7333  -0.7191  -0.7038  -0.6936  -0.6824  -0.6728  -0.6659  -0.6618
 -0.6565  -0.6416  -0.6372  -0.6353  -0.6287  -0.6126  -0.5847  -0.5830
 -0.5772  -0.5706  -0.5669  -0.5650  -0.5636  -0.5553  -0.5537  -0.5483
 -0.5360  -0.5250  -0.5208  -0.5108  -0.4819  -0.4701  -0.4636  -0.4580
 -0.4570  -0.4478  -0.4269  -0.4178  -0.4087  -0.3645  -0.3358  -0.3293
 -0.3085

          Ground-State Mulliken Net Atomic Charges

     Atom                 Charge (a.u.)
  ----------------------------------------
      1 C                    -0.138391
      2 C                    -0.108116
      3 C                    -0.038680
      4 C                    -0.003854
      5 H                     0.188397
      6 C                    -0.009940
      7 C                     0.075410
      8 C                     0.012239
      9 C                    -0.047889
     10 C                    -0.159453
     11 C                     0.092583
     12 H                     0.181270
     13 C                     0.361039
     14 C                     0.366233
     15 N                    -0.101355
     16 C                     0.358346
     17 C                     0.399529
     18 N                    -0.095707
     19 O                    -0.464671
     20 O                    -0.476385
     21 O                    -0.481961
     22 O                    -0.460713
     23 C                    -0.201021
     24 H                     0.141048
     25 H                     0.112140
     26 H                     0.112410
     27 C                    -0.196177
     28 H                     0.133886
     29 H                     0.112479
     30 H                     0.112544
     31 H                     0.213466
     32 C                    -0.074912
     33 S                     0.058239
     34 C                    -0.180688
     35 C                    -0.157327
     36 C                    -0.226501
     37 H                     0.192962
     38 H                     0.189567
     39 H                     0.209954
  ----------------------------------------
  Sum of atomic charges =     0.000000

                    Cartesian Multipole Moments
 -----------------------------------------------------------------
    Charge (ESU x 10^10)
                 0.0000
    Dipole Moment (Debye)
         X       1.3754      Y       1.1760      Z      -0.4711
       Tot       1.8699
    Quadrupole Moments (Debye-Ang)
        XX    -173.9870     XY       4.3562     YY    -169.6182
        XZ      -8.8106     YZ       0.4360     ZZ    -165.3242

 Total job time:  267.42s(wall), 8234.96s(cpu)
        *  Thank you very much for using Q-Chem.  Have a nice day.  *
