 Q-Chem 5.4, Q-Chem, Inc., Pleasanton, CA (2021)
 Q-Chem 5.4.0 for Intel X86 EM64T Linux

User input:
--------------------------------------------------------------
$molecule
0 1
C	0.127184	-6.741404	-0.223244
C	0.779949	-6.155638	-1.354118
C	-0.415271	-5.791452	0.715408
C	0.919437	-4.803786	-1.595259
H	1.218801	-6.821518	-2.114613
C	-0.268806	-4.378638	0.463133
C	0.396744	-3.838032	-0.688925
C	-0.790835	-3.413062	1.368449
C	0.542026	-2.426473	-0.939189
C	-0.652669	-2.059348	1.130363
C	0.000000	-1.478216	0.000000
H	-1.091814	-1.394783	1.891815
C	-1.138124	-6.187987	1.963749
C	-1.506241	-3.798164	2.607351
N	-1.629443	-5.170003	2.817348
C	1.636646	-4.424987	-2.837621
C	1.264474	-2.036627	-2.188982
N	1.756205	-3.049156	-3.042637
O	-1.336258	-7.353131	2.301222
O	-1.967056	-2.986854	3.407386
O	2.092167	-5.248946	-3.628041
O	1.472160	-0.878829	-2.545844
C	-2.336642	-5.563799	4.040164
H	-2.360245	-6.664085	4.078749
H	-3.361968	-5.147101	4.027880
H	-1.813424	-5.148785	4.922811
C	2.452149	-2.587487	-4.247167
H	2.772531	-3.483329	-4.804209
H	3.322697	-1.964972	-3.965991
H	1.774507	-1.962932	-4.859678
H	0.033931	-7.822318	-0.062364
C	0.000000	0.000000	0.000000
S	0.205093	0.766196	1.580530
C	0.628939	2.348114	0.904911
C	0.258137	0.964028	-0.985400
C	0.599745	2.239309	-0.493528
H	0.197169	0.736404	-2.059934
H	0.827678	3.090243	-1.152593
H	0.856796	3.198808	1.556025
$end

$rem
JOBTYPE		SP
EXCHANGE	HF
CORRELATION	pRIMP2
BASIS		cc-pvtz
METHOD		rimp2
AUX_BASIS	rimp2-cc-pvtz
SOLVENT_METHOD	PCM
PURECART	11111
SYMMETRY	false
MEM_TOTAL	110000
SCF_CONVERGENCE = 6
THRESH=10
GUI = 2
$end

$solvent
dielectric 4.90
$end
--------------------------------------------------------------

             Standard Nuclear Orientation (Angstroms)
    I     Atom           X                Y                Z
 ----------------------------------------------------------------
    1      C       0.1271840000    -6.7414040000    -0.2232440000
    2      C       0.7799490000    -6.1556380000    -1.3541180000
    3      C      -0.4152710000    -5.7914520000     0.7154080000
    4      C       0.9194370000    -4.8037860000    -1.5952590000
    5      H       1.2188010000    -6.8215180000    -2.1146130000
    6      C      -0.2688060000    -4.3786380000     0.4631330000
    7      C       0.3967440000    -3.8380320000    -0.6889250000
    8      C      -0.7908350000    -3.4130620000     1.3684490000
    9      C       0.5420260000    -2.4264730000    -0.9391890000
   10      C      -0.6526690000    -2.0593480000     1.1303630000
   11      C       0.0000000000    -1.4782160000     0.0000000000
   12      H      -1.0918140000    -1.3947830000     1.8918150000
   13      C      -1.1381240000    -6.1879870000     1.9637490000
   14      C      -1.5062410000    -3.7981640000     2.6073510000
   15      N      -1.6294430000    -5.1700030000     2.8173480000
   16      C       1.6366460000    -4.4249870000    -2.8376210000
   17      C       1.2644740000    -2.0366270000    -2.1889820000
   18      N       1.7562050000    -3.0491560000    -3.0426370000
   19      O      -1.3362580000    -7.3531310000     2.3012220000
   20      O      -1.9670560000    -2.9868540000     3.4073860000
   21      O       2.0921670000    -5.2489460000    -3.6280410000
   22      O       1.4721600000    -0.8788290000    -2.5458440000
   23      C      -2.3366420000    -5.5637990000     4.0401640000
   24      H      -2.3602450000    -6.6640850000     4.0787490000
   25      H      -3.3619680000    -5.1471010000     4.0278800000
   26      H      -1.8134240000    -5.1487850000     4.9228110000
   27      C       2.4521490000    -2.5874870000    -4.2471670000
   28      H       2.7725310000    -3.4833290000    -4.8042090000
   29      H       3.3226970000    -1.9649720000    -3.9659910000
   30      H       1.7745070000    -1.9629320000    -4.8596780000
   31      H       0.0339310000    -7.8223180000    -0.0623640000
   32      C       0.0000000000     0.0000000000     0.0000000000
   33      S       0.2050930000     0.7661960000     1.5805300000
   34      C       0.6289390000     2.3481140000     0.9049110000
   35      C       0.2581370000     0.9640280000    -0.9854000000
   36      C       0.5997450000     2.2393090000    -0.4935280000
   37      H       0.1971690000     0.7364040000    -2.0599340000
   38      H       0.8276780000     3.0902430000    -1.1525930000
   39      H       0.8567960000     3.1988080000     1.5560250000
 ----------------------------------------------------------------

   10   -1570.6848857800      7.90e-07  Convergence criterion met
 Total energy in the final basis set =    -1570.6848857800
        RIMP2         total energy =     -1575.3122066814 a.u.

                    Orbital Energies (a.u.)
 --------------------------------------------------------------

 Alpha MOs
 -- Occupied --
-91.9939 -20.5584 -20.5562 -20.5537 -20.5535 -15.6310 -15.6300 -11.3997
-11.3957 -11.3913 -11.3905 -11.3183 -11.3020 -11.3002 -11.2992 -11.2957
-11.2948 -11.2903 -11.2878 -11.2868 -11.2837 -11.2791 -11.2780 -11.2646
-11.2643 -11.2568 -11.2505  -8.9934  -6.6742  -6.6738  -6.6731  -1.4247
 -1.4238  -1.4040  -1.4029  -1.2672  -1.2648  -1.2167  -1.1767  -1.1440
 -1.1162  -1.0631  -1.0491  -0.9924  -0.9898  -0.9862  -0.9586  -0.9476
 -0.8966  -0.8790  -0.8775  -0.8611  -0.7958  -0.7780  -0.7726  -0.7618
 -0.7361  -0.7198  -0.7041  -0.6937  -0.6812  -0.6731  -0.6661  -0.6619
 -0.6559  -0.6414  -0.6366  -0.6333  -0.6281  -0.6125  -0.5887  -0.5837
 -0.5778  -0.5737  -0.5652  -0.5622  -0.5612  -0.5555  -0.5524  -0.5473
 -0.5354  -0.5251  -0.5223  -0.5187  -0.4824  -0.4690  -0.4651  -0.4642
 -0.4589  -0.4520  -0.4283  -0.4183  -0.4091  -0.3736  -0.3527  -0.3365
 -0.3016

          Ground-State Mulliken Net Atomic Charges

     Atom                 Charge (a.u.)
  ----------------------------------------
      1 C                    -0.142714
      2 C                    -0.109213
      3 C                    -0.036417
      4 C                    -0.005574
      5 H                     0.188097
      6 C                    -0.007209
      7 C                     0.077902
      8 C                     0.032641
      9 C                    -0.053692
     10 C                    -0.186902
     11 C                     0.116508
     12 H                     0.170452
     13 C                     0.360350
     14 C                     0.367377
     15 N                    -0.101427
     16 C                     0.359516
     17 C                     0.375406
     18 N                    -0.092463
     19 O                    -0.464460
     20 O                    -0.476156
     21 O                    -0.482759
     22 O                    -0.474025
     23 C                    -0.201065
     24 H                     0.141030
     25 H                     0.112418
     26 H                     0.112479
     27 C                    -0.197452
     28 H                     0.134269
     29 H                     0.112822
     30 H                     0.112059
     31 H                     0.212879
     32 C                    -0.053971
     33 S                     0.034074
     34 C                    -0.199001
     35 C                    -0.137007
     36 C                    -0.205305
     37 H                     0.198949
     38 H                     0.191816
     39 H                     0.215770
  ----------------------------------------
  Sum of atomic charges =     0.000000

                    Cartesian Multipole Moments
 -----------------------------------------------------------------
    Charge (ESU x 10^10)
                 0.0000
    Dipole Moment (Debye)
         X       0.5960      Y       2.0530      Z      -0.9239
       Tot       2.3289
    Quadrupole Moments (Debye-Ang)
        XX    -168.4609     XY       3.0906     YY    -168.1882
        XZ       9.2546     YZ       0.6805     ZZ    -173.0722

 Total job time:  263.94s(wall), 7919.00s(cpu)
        *  Thank you very much for using Q-Chem.  Have a nice day.  *
