 Q-Chem 5.4, Q-Chem, Inc., Pleasanton, CA (2021)
 Q-Chem 5.4.0 for Intel X86 EM64T Linux

User input:
--------------------------------------------------------------
$molecule
0 1
C	0.256927	-6.741404	-0.001478
C	1.562675	-6.155638	-0.001603
C	-0.827197	-5.791452	-0.001931
C	1.841253	-4.803786	-0.001374
H	2.440709	-6.821518	-0.001794
C	-0.535488	-4.378638	-0.001227
C	0.794999	-3.838032	-0.000872
C	-1.580529	-3.413062	-0.000658
C	1.084374	-2.426473	-0.000186
C	-1.305258	-2.059348	-0.000046
C	-0.000000	-1.478216	-0.000000
H	-2.184267	-1.394783	0.000369
C	-2.269719	-6.187987	-0.003770
C	-3.011152	-3.798164	-0.000767
N	-3.254617	-5.170003	-0.002465
C	3.275775	-4.424987	-0.001433
C	2.527951	-2.036627	0.000576
N	3.513104	-3.049156	-0.000400
O	-2.661046	-7.353131	-0.006623
O	-3.934410	-2.986854	0.000172
O	4.188059	-5.248946	-0.002151
O	2.940845	-0.878829	0.002006
C	-4.667206	-5.563799	-0.003509
H	-4.712423	-6.664085	-0.004658
H	-5.169231	-5.147101	-0.897610
H	-5.169992	-5.148785	0.890935
C	4.904229	-2.587487	0.000039
H	5.546833	-3.483329	-0.001022
H	5.095998	-1.964972	0.894545
H	5.095858	-1.962932	-0.893071
H	0.070974	-7.822318	-0.001797
C	0.000000	0.000000	0.000000
S	0.686805	0.396760	1.580530
C	2.105095	1.215640	0.904911
C	0.864201	0.499140	-0.985400
C	2.007514	1.159347	-0.493528
H	0.660136	0.381296	-2.059934
H	2.770388	1.599875	-1.152593
H	2.867745	1.656053	1.556025
$end

$rem
JOBTYPE		SP
EXCHANGE	HF
CORRELATION	pRIMP2
BASIS		cc-pvtz
METHOD		rimp2
AUX_BASIS	rimp2-cc-pvtz
SOLVENT_METHOD	PCM
PURECART	11111
SYMMETRY	false
MEM_TOTAL	110000
SCF_CONVERGENCE = 6
THRESH=10
GUI = 2
$end

$solvent
dielectric 4.90
$end
--------------------------------------------------------------

             Standard Nuclear Orientation (Angstroms)
    I     Atom           X                Y                Z
 ----------------------------------------------------------------
    1      C       0.2569270000    -6.7414040000    -0.0014780000
    2      C       1.5626750000    -6.1556380000    -0.0016030000
    3      C      -0.8271970000    -5.7914520000    -0.0019310000
    4      C       1.8412530000    -4.8037860000    -0.0013740000
    5      H       2.4407090000    -6.8215180000    -0.0017940000
    6      C      -0.5354880000    -4.3786380000    -0.0012270000
    7      C       0.7949990000    -3.8380320000    -0.0008720000
    8      C      -1.5805290000    -3.4130620000    -0.0006580000
    9      C       1.0843740000    -2.4264730000    -0.0001860000
   10      C      -1.3052580000    -2.0593480000    -0.0000460000
   11      C       0.0000000000    -1.4782160000     0.0000000000
   12      H      -2.1842670000    -1.3947830000     0.0003690000
   13      C      -2.2697190000    -6.1879870000    -0.0037700000
   14      C      -3.0111520000    -3.7981640000    -0.0007670000
   15      N      -3.2546170000    -5.1700030000    -0.0024650000
   16      C       3.2757750000    -4.4249870000    -0.0014330000
   17      C       2.5279510000    -2.0366270000     0.0005760000
   18      N       3.5131040000    -3.0491560000    -0.0004000000
   19      O      -2.6610460000    -7.3531310000    -0.0066230000
   20      O      -3.9344100000    -2.9868540000     0.0001720000
   21      O       4.1880590000    -5.2489460000    -0.0021510000
   22      O       2.9408450000    -0.8788290000     0.0020060000
   23      C      -4.6672060000    -5.5637990000    -0.0035090000
   24      H      -4.7124230000    -6.6640850000    -0.0046580000
   25      H      -5.1692310000    -5.1471010000    -0.8976100000
   26      H      -5.1699920000    -5.1487850000     0.8909350000
   27      C       4.9042290000    -2.5874870000     0.0000390000
   28      H       5.5468330000    -3.4833290000    -0.0010220000
   29      H       5.0959980000    -1.9649720000     0.8945450000
   30      H       5.0958580000    -1.9629320000    -0.8930710000
   31      H       0.0709740000    -7.8223180000    -0.0017970000
   32      C       0.0000000000     0.0000000000     0.0000000000
   33      S       0.6868050000     0.3967600000     1.5805300000
   34      C       2.1050950000     1.2156400000     0.9049110000
   35      C       0.8642010000     0.4991400000    -0.9854000000
   36      C       2.0075140000     1.1593470000    -0.4935280000
   37      H       0.6601360000     0.3812960000    -2.0599340000
   38      H       2.7703880000     1.5998750000    -1.1525930000
   39      H       2.8677450000     1.6560530000     1.5560250000
 ----------------------------------------------------------------

   11   -1570.5900195956      5.34e-07  Convergence criterion met
 Total energy in the final basis set =    -1570.5900195956
        RIMP2         total energy =     -1575.2406848951 a.u.

                    Orbital Energies (a.u.)
 --------------------------------------------------------------

 Alpha MOs
 -- Occupied --
-91.9853 -20.5573 -20.5541 -20.5525 -20.5466 -15.6294 -15.6284 -11.3985
-11.3911 -11.3900 -11.3879 -11.3114 -11.3005 -11.2973 -11.2953 -11.2939
-11.2937 -11.2930 -11.2823 -11.2813 -11.2779 -11.2698 -11.2664 -11.2648
-11.2635 -11.2518 -11.2416  -8.9854  -6.6661  -6.6653  -6.6650  -1.4236
 -1.4231  -1.4026  -1.4024  -1.2658  -1.2638  -1.2147  -1.1797  -1.1395
 -1.1131  -1.0590  -1.0456  -0.9915  -0.9867  -0.9840  -0.9575  -0.9487
 -0.8955  -0.8772  -0.8680  -0.8570  -0.7894  -0.7747  -0.7717  -0.7586
 -0.7348  -0.7166  -0.7035  -0.6939  -0.6817  -0.6696  -0.6649  -0.6609
 -0.6543  -0.6456  -0.6365  -0.6342  -0.6264  -0.6096  -0.5853  -0.5825
 -0.5757  -0.5732  -0.5677  -0.5628  -0.5553  -0.5532  -0.5514  -0.5477
 -0.5364  -0.5250  -0.5171  -0.4949  -0.4776  -0.4685  -0.4616  -0.4576
 -0.4534  -0.4294  -0.4265  -0.4168  -0.4064  -0.3557  -0.3367  -0.3248
 -0.3139

          Ground-State Mulliken Net Atomic Charges

     Atom                 Charge (a.u.)
  ----------------------------------------
      1 C                    -0.143192
      2 C                    -0.110615
      3 C                    -0.037026
      4 C                     0.002395
      5 H                     0.187125
      6 C                    -0.008812
      7 C                     0.068284
      8 C                     0.009993
      9 C                    -0.063619
     10 C                    -0.136842
     11 C                     0.084724
     12 H                     0.180780
     13 C                     0.359832
     14 C                     0.364538
     15 N                    -0.101257
     16 C                     0.353172
     17 C                     0.387287
     18 N                    -0.092415
     19 O                    -0.465644
     20 O                    -0.476367
     21 O                    -0.485241
     22 O                    -0.461279
     23 C                    -0.201641
     24 H                     0.140607
     25 H                     0.111943
     26 H                     0.112177
     27 C                    -0.196851
     28 H                     0.135147
     29 H                     0.110845
     30 H                     0.110419
     31 H                     0.212593
     32 C                    -0.170121
     33 S                     0.021192
     34 C                    -0.125086
     35 C                    -0.128926
     36 C                    -0.125312
     37 H                     0.191489
     38 H                     0.178592
     39 H                     0.207112
  ----------------------------------------
  Sum of atomic charges =     0.000000

                    Cartesian Multipole Moments
 -----------------------------------------------------------------
    Charge (ESU x 10^10)
                 0.0000
    Dipole Moment (Debye)
         X       3.6416      Y       1.2756      Z      -0.9765
       Tot       3.9802
    Quadrupole Moments (Debye-Ang)
        XX    -174.2460     XY       5.4233     YY    -180.0510
        XZ       1.1807     YZ       0.4167     ZZ    -157.1717

 Total job time:  281.03s(wall), 8376.80s(cpu)
        *  Thank you very much for using Q-Chem.  Have a nice day.  *
