 Q-Chem 5.4, Q-Chem, Inc., Pleasanton, CA (2021)
 Q-Chem 5.4.0 for Intel X86 EM64T Linux

User input:
--------------------------------------------------------------
$molecule
0 1
C	0.127184	-6.741404	-0.223244
C	0.779949	-6.155638	-1.354118
C	-0.415271	-5.791452	0.715408
C	0.919437	-4.803786	-1.595259
H	1.218801	-6.821518	-2.114613
C	-0.268806	-4.378638	0.463133
C	0.396744	-3.838032	-0.688925
C	-0.790835	-3.413062	1.368449
C	0.542026	-2.426473	-0.939189
C	-0.652669	-2.059348	1.130363
C	0.000000	-1.478216	0.000000
H	-1.091814	-1.394783	1.891815
C	-1.138124	-6.187987	1.963749
C	-1.506241	-3.798164	2.607351
N	-1.629443	-5.170003	2.817348
C	1.636646	-4.424987	-2.837621
C	1.264474	-2.036627	-2.188982
N	1.756205	-3.049156	-3.042637
O	-1.336258	-7.353131	2.301222
O	-1.967056	-2.986854	3.407386
O	2.092167	-5.248946	-3.628041
O	1.472160	-0.878829	-2.545844
C	-2.336642	-5.563799	4.040164
H	-2.360245	-6.664085	4.078749
H	-3.361968	-5.147101	4.027880
H	-1.813424	-5.148785	4.922811
C	2.452149	-2.587487	-4.247167
H	2.772531	-3.483329	-4.804209
H	3.322697	-1.964972	-3.965991
H	1.774507	-1.962932	-4.859678
H	0.033931	-7.822318	-0.062364
C	0.000000	0.000000	0.000000
S	0.068929	0.790170	1.580530
C	0.211639	2.421655	0.904911
C	0.086813	0.994207	-0.985400
C	0.201782	2.309433	-0.493528
H	0.066299	0.759454	-2.059934
H	0.278488	3.187020	-1.152593
H	0.288312	3.298992	1.556025
$end

$rem
JOBTYPE		SP
EXCHANGE	HF
CORRELATION	pRIMP2
BASIS		cc-pvtz
METHOD		rimp2
AUX_BASIS	rimp2-cc-pvtz
SOLVENT_METHOD	PCM
PURECART	11111
SYMMETRY	false
MEM_TOTAL	110000
SCF_CONVERGENCE = 6
THRESH=10
GUI = 2
$end

$solvent
dielectric 4.90
$end
--------------------------------------------------------------

             Standard Nuclear Orientation (Angstroms)
    I     Atom           X                Y                Z
 ----------------------------------------------------------------
    1      C       0.1271840000    -6.7414040000    -0.2232440000
    2      C       0.7799490000    -6.1556380000    -1.3541180000
    3      C      -0.4152710000    -5.7914520000     0.7154080000
    4      C       0.9194370000    -4.8037860000    -1.5952590000
    5      H       1.2188010000    -6.8215180000    -2.1146130000
    6      C      -0.2688060000    -4.3786380000     0.4631330000
    7      C       0.3967440000    -3.8380320000    -0.6889250000
    8      C      -0.7908350000    -3.4130620000     1.3684490000
    9      C       0.5420260000    -2.4264730000    -0.9391890000
   10      C      -0.6526690000    -2.0593480000     1.1303630000
   11      C       0.0000000000    -1.4782160000     0.0000000000
   12      H      -1.0918140000    -1.3947830000     1.8918150000
   13      C      -1.1381240000    -6.1879870000     1.9637490000
   14      C      -1.5062410000    -3.7981640000     2.6073510000
   15      N      -1.6294430000    -5.1700030000     2.8173480000
   16      C       1.6366460000    -4.4249870000    -2.8376210000
   17      C       1.2644740000    -2.0366270000    -2.1889820000
   18      N       1.7562050000    -3.0491560000    -3.0426370000
   19      O      -1.3362580000    -7.3531310000     2.3012220000
   20      O      -1.9670560000    -2.9868540000     3.4073860000
   21      O       2.0921670000    -5.2489460000    -3.6280410000
   22      O       1.4721600000    -0.8788290000    -2.5458440000
   23      C      -2.3366420000    -5.5637990000     4.0401640000
   24      H      -2.3602450000    -6.6640850000     4.0787490000
   25      H      -3.3619680000    -5.1471010000     4.0278800000
   26      H      -1.8134240000    -5.1487850000     4.9228110000
   27      C       2.4521490000    -2.5874870000    -4.2471670000
   28      H       2.7725310000    -3.4833290000    -4.8042090000
   29      H       3.3226970000    -1.9649720000    -3.9659910000
   30      H       1.7745070000    -1.9629320000    -4.8596780000
   31      H       0.0339310000    -7.8223180000    -0.0623640000
   32      C       0.0000000000     0.0000000000     0.0000000000
   33      S       0.0689290000     0.7901700000     1.5805300000
   34      C       0.2116390000     2.4216550000     0.9049110000
   35      C       0.0868130000     0.9942070000    -0.9854000000
   36      C       0.2017820000     2.3094330000    -0.4935280000
   37      H       0.0662990000     0.7594540000    -2.0599340000
   38      H       0.2784880000     3.1870200000    -1.1525930000
   39      H       0.2883120000     3.2989920000     1.5560250000
 ----------------------------------------------------------------

   10   -1570.6900023508      7.44e-07  Convergence criterion met
 Total energy in the final basis set =    -1570.6900023508
        RIMP2         total energy =     -1575.3164029358 a.u.

                    Orbital Energies (a.u.)
 --------------------------------------------------------------

 Alpha MOs
 -- Occupied --
-91.9940 -20.5585 -20.5564 -20.5544 -20.5540 -15.6312 -15.6302 -11.3999
-11.3959 -11.3916 -11.3907 -11.3184 -11.3023 -11.3011 -11.3000 -11.2964
-11.2955 -11.2907 -11.2885 -11.2871 -11.2843 -11.2795 -11.2783 -11.2647
-11.2644 -11.2565 -11.2508  -8.9935  -6.6743  -6.6739  -6.6732  -1.4249
 -1.4239  -1.4042  -1.4029  -1.2673  -1.2649  -1.2171  -1.1766  -1.1443
 -1.1167  -1.0636  -1.0495  -0.9926  -0.9900  -0.9858  -0.9588  -0.9478
 -0.8969  -0.8792  -0.8781  -0.8612  -0.7963  -0.7785  -0.7727  -0.7616
 -0.7365  -0.7187  -0.7044  -0.6942  -0.6813  -0.6733  -0.6663  -0.6620
 -0.6562  -0.6417  -0.6368  -0.6331  -0.6286  -0.6127  -0.5887  -0.5840
 -0.5785  -0.5732  -0.5654  -0.5625  -0.5616  -0.5556  -0.5525  -0.5476
 -0.5368  -0.5257  -0.5225  -0.5182  -0.4828  -0.4691  -0.4662  -0.4639
 -0.4595  -0.4526  -0.4285  -0.4184  -0.4093  -0.3733  -0.3537  -0.3367
 -0.3023

          Ground-State Mulliken Net Atomic Charges

     Atom                 Charge (a.u.)
  ----------------------------------------
      1 C                    -0.141023
      2 C                    -0.108895
      3 C                    -0.036806
      4 C                    -0.005149
      5 H                     0.188385
      6 C                    -0.003941
      7 C                     0.074527
      8 C                     0.031606
      9 C                    -0.052837
     10 C                    -0.184812
     11 C                     0.116800
     12 H                     0.172105
     13 C                     0.360124
     14 C                     0.368131
     15 N                    -0.101589
     16 C                     0.359846
     17 C                     0.366501
     18 N                    -0.092739
     19 O                    -0.464422
     20 O                    -0.476164
     21 O                    -0.482399
     22 O                    -0.471363
     23 C                    -0.201015
     24 H                     0.141051
     25 H                     0.112454
     26 H                     0.112531
     27 C                    -0.197075
     28 H                     0.134170
     29 H                     0.113002
     30 H                     0.112107
     31 H                     0.213161
     32 C                    -0.054316
     33 S                     0.028712
     34 C                    -0.197334
     35 C                    -0.122719
     36 C                    -0.216592
     37 H                     0.198840
     38 H                     0.191370
     39 H                     0.215770
  ----------------------------------------
  Sum of atomic charges =     0.000000

                    Cartesian Multipole Moments
 -----------------------------------------------------------------
    Charge (ESU x 10^10)
                -0.0000
    Dipole Moment (Debye)
         X       0.1353      Y       1.8792      Z      -0.8799
       Tot       2.0794
    Quadrupole Moments (Debye-Ang)
        XX    -169.1741     XY       1.0388     YY    -166.7368
        XZ       9.0867     YZ       0.7984     ZZ    -173.0105

 Total job time:  260.79s(wall), 7533.57s(cpu)
        *  Thank you very much for using Q-Chem.  Have a nice day.  *
