 Q-Chem 5.4, Q-Chem, Inc., Pleasanton, CA (2021)
 Q-Chem 5.4.0 for Intel X86 EM64T Linux

User input:
--------------------------------------------------------------
$molecule
0 1
C	0.043160	-6.741404	-0.253280
C	0.269777	-6.155638	-1.539213
C	-0.145543	-5.791452	0.814295
C	0.318377	-4.803786	-1.813519
H	0.422058	-6.821518	-2.403941
C	-0.094194	-4.378638	0.527140
C	0.137191	-3.838032	-0.783072
C	-0.275104	-3.413062	1.556403
C	0.188116	-2.426473	-1.067932
C	-0.226701	-2.059348	1.285420
C	-0.000000	-1.478216	-0.000000
H	-0.378931	-1.394783	2.151147
C	-0.397845	-6.187987	2.234582
C	-0.523637	-3.798164	2.965273
N	-0.567586	-5.170003	3.204744
C	0.567421	-4.424987	-3.226257
C	0.439541	-2.036627	-2.489446
N	0.609650	-3.049156	-3.459801
O	-0.468608	-7.353131	2.619468
O	-0.683034	-2.986854	3.874668
O	0.725131	-5.248946	-4.124806
O	0.512648	-0.878829	-2.895819
C	-0.813908	-5.563799	4.595691
H	-0.822891	-6.664085	4.640022
H	-1.781600	-5.147101	4.934830
H	-0.020360	-5.148785	5.246157
C	0.851649	-2.587487	-4.829716
H	0.962191	-3.483329	-5.462742
H	1.765865	-1.964972	-4.863242
H	0.005383	-1.962932	-5.173521
H	0.010555	-7.822318	-0.070208
C	0.000000	0.000000	0.000000
S	0.686805	0.396760	1.580530
C	2.105095	1.215640	0.904911
C	0.864201	0.499140	-0.985400
C	2.007514	1.159347	-0.493528
H	0.660136	0.381296	-2.059934
H	2.770388	1.599875	-1.152593
H	2.867745	1.656053	1.556025
$end

$rem
JOBTYPE		SP
EXCHANGE	HF
CORRELATION	pRIMP2
BASIS		cc-pvtz
METHOD		rimp2
AUX_BASIS	rimp2-cc-pvtz
SOLVENT_METHOD	PCM
PURECART	11111
SYMMETRY	false
MEM_TOTAL	110000
SCF_CONVERGENCE = 6
THRESH=10
GUI = 2
$end

$solvent
dielectric 4.90
$end
--------------------------------------------------------------

             Standard Nuclear Orientation (Angstroms)
    I     Atom           X                Y                Z
 ----------------------------------------------------------------
    1      C       0.0431600000    -6.7414040000    -0.2532800000
    2      C       0.2697770000    -6.1556380000    -1.5392130000
    3      C      -0.1455430000    -5.7914520000     0.8142950000
    4      C       0.3183770000    -4.8037860000    -1.8135190000
    5      H       0.4220580000    -6.8215180000    -2.4039410000
    6      C      -0.0941940000    -4.3786380000     0.5271400000
    7      C       0.1371910000    -3.8380320000    -0.7830720000
    8      C      -0.2751040000    -3.4130620000     1.5564030000
    9      C       0.1881160000    -2.4264730000    -1.0679320000
   10      C      -0.2267010000    -2.0593480000     1.2854200000
   11      C       0.0000000000    -1.4782160000     0.0000000000
   12      H      -0.3789310000    -1.3947830000     2.1511470000
   13      C      -0.3978450000    -6.1879870000     2.2345820000
   14      C      -0.5236370000    -3.7981640000     2.9652730000
   15      N      -0.5675860000    -5.1700030000     3.2047440000
   16      C       0.5674210000    -4.4249870000    -3.2262570000
   17      C       0.4395410000    -2.0366270000    -2.4894460000
   18      N       0.6096500000    -3.0491560000    -3.4598010000
   19      O      -0.4686080000    -7.3531310000     2.6194680000
   20      O      -0.6830340000    -2.9868540000     3.8746680000
   21      O       0.7251310000    -5.2489460000    -4.1248060000
   22      O       0.5126480000    -0.8788290000    -2.8958190000
   23      C      -0.8139080000    -5.5637990000     4.5956910000
   24      H      -0.8228910000    -6.6640850000     4.6400220000
   25      H      -1.7816000000    -5.1471010000     4.9348300000
   26      H      -0.0203600000    -5.1487850000     5.2461570000
   27      C       0.8516490000    -2.5874870000    -4.8297160000
   28      H       0.9621910000    -3.4833290000    -5.4627420000
   29      H       1.7658650000    -1.9649720000    -4.8632420000
   30      H       0.0053830000    -1.9629320000    -5.1735210000
   31      H       0.0105550000    -7.8223180000    -0.0702080000
   32      C       0.0000000000     0.0000000000     0.0000000000
   33      S       0.6868050000     0.3967600000     1.5805300000
   34      C       2.1050950000     1.2156400000     0.9049110000
   35      C       0.8642010000     0.4991400000    -0.9854000000
   36      C       2.0075140000     1.1593470000    -0.4935280000
   37      H       0.6601360000     0.3812960000    -2.0599340000
   38      H       2.7703880000     1.5998750000    -1.1525930000
   39      H       2.8677450000     1.6560530000     1.5560250000
 ----------------------------------------------------------------

   11   -1570.5927334146      5.85e-07  Convergence criterion met
 Total energy in the final basis set =    -1570.5927334146
        RIMP2         total energy =     -1575.2334503318 a.u.

                    Orbital Energies (a.u.)
 --------------------------------------------------------------

 Alpha MOs
 -- Occupied --
-91.9912 -20.5570 -20.5546 -20.5536 -20.5507 -15.6300 -15.6294 -11.3981
-11.3977 -11.3886 -11.3886 -11.3219 -11.3138 -11.2986 -11.2957 -11.2870
-11.2857 -11.2831 -11.2829 -11.2767 -11.2744 -11.2721 -11.2669 -11.2647
-11.2634 -11.2617 -11.2499  -8.9925  -6.6732  -6.6723  -6.6719  -1.4304
 -1.4231  -1.4047  -1.4025  -1.2671  -1.2644  -1.2165  -1.1884  -1.1396
 -1.1114  -1.0619  -1.0458  -0.9993  -0.9912  -0.9902  -0.9571  -0.9447
 -0.8961  -0.8766  -0.8735  -0.8600  -0.7967  -0.7789  -0.7756  -0.7671
 -0.7370  -0.7325  -0.6997  -0.6920  -0.6819  -0.6726  -0.6657  -0.6614
 -0.6540  -0.6411  -0.6394  -0.6330  -0.6243  -0.6123  -0.5914  -0.5843
 -0.5780  -0.5747  -0.5707  -0.5629  -0.5592  -0.5555  -0.5542  -0.5452
 -0.5333  -0.5224  -0.5187  -0.5103  -0.4770  -0.4628  -0.4618  -0.4562
 -0.4543  -0.4388  -0.4275  -0.4183  -0.4078  -0.3781  -0.3540  -0.3310
 -0.2967

          Ground-State Mulliken Net Atomic Charges

     Atom                 Charge (a.u.)
  ----------------------------------------
      1 C                    -0.167488
      2 C                    -0.112183
      3 C                    -0.020516
      4 C                    -0.003993
      5 H                     0.185774
      6 C                    -0.024034
      7 C                     0.079868
      8 C                     0.030729
      9 C                    -0.122295
     10 C                    -0.129105
     11 C                     0.070084
     12 H                     0.164532
     13 C                     0.358938
     14 C                     0.364220
     15 N                    -0.101112
     16 C                     0.355968
     17 C                     0.384976
     18 N                    -0.088770
     19 O                    -0.464944
     20 O                    -0.479082
     21 O                    -0.486760
     22 O                    -0.464521
     23 C                    -0.201726
     24 H                     0.140870
     25 H                     0.112012
     26 H                     0.111776
     27 C                    -0.199934
     28 H                     0.134843
     29 H                     0.111518
     30 H                     0.112730
     31 H                     0.209499
     32 C                    -0.114515
     33 S                     0.029011
     34 C                    -0.108267
     35 C                    -0.066817
     36 C                    -0.268399
     37 H                     0.253896
     38 H                     0.193292
     39 H                     0.219922
  ----------------------------------------
  Sum of atomic charges =     0.000000

                    Cartesian Multipole Moments
 -----------------------------------------------------------------
    Charge (ESU x 10^10)
                 0.0000
    Dipole Moment (Debye)
         X       3.2626      Y       3.1887      Z      -0.6919
       Tot       4.6142
    Quadrupole Moments (Debye-Ang)
        XX    -154.3368     XY       6.0389     YY    -185.9353
        XZ       4.8498     YZ      -0.8298     ZZ    -177.5490

 Total job time:  297.67s(wall), 8254.94s(cpu)
        *  Thank you very much for using Q-Chem.  Have a nice day.  *
