 Q-Chem 5.4, Q-Chem, Inc., Pleasanton, CA (2021)
 Q-Chem 5.4.0 for Intel X86 EM64T Linux

User input:
--------------------------------------------------------------
$molecule
0 1
C	1.169177	-6.639243	-0.256927
C	1.067337	-6.062399	-1.562675
C	1.003773	-5.703803	0.827197
C	0.832816	-4.731044	-1.841253
H	1.182777	-6.718195	-2.440709
C	0.759135	-4.312330	0.535488
C	0.665608	-3.779876	-0.794999
C	0.592024	-3.361324	1.580529
C	0.421169	-2.389641	-1.084374
C	0.357557	-2.028070	1.305258
C	0.256690	-1.455759	-0.000000
H	0.242565	-1.373530	2.184267
C	1.070820	-6.094632	2.269719
C	0.658788	-3.740595	3.011152
N	0.895334	-5.091887	3.254617
C	0.766979	-4.358010	-3.275775
C	0.354224	-2.005586	-2.527951
N	0.529086	-3.002902	-3.513104
O	1.270336	-7.242571	2.661046
O	0.518831	-2.941447	3.934410
O	0.909352	-5.169576	-4.188059
O	0.154583	-0.865129	-2.940845
C	0.962688	-5.479882	4.667206
H	1.152619	-6.563651	4.712423
H	0.009812	-5.224773	5.169231
H	1.771476	-4.915854	5.169992
C	0.449351	-2.548170	-4.904229
H	0.603867	-3.430587	-5.546833
H	1.222168	-1.779783	-5.095998
H	-0.538644	-2.088191	-5.095858
H	1.356562	-7.703791	-0.070974
C	0.000000	0.000000	0.000000
S	0.271091	0.745405	1.580530
C	0.831198	2.284363	0.904911
C	0.341175	0.937861	-0.985400
C	0.792631	2.178516	-0.493528
H	0.260601	0.716417	-2.059934
H	1.093860	3.006347	-1.152593
H	1.132330	3.111961	1.556025
$end

$rem
JOBTYPE		SP
EXCHANGE	HF
CORRELATION	pRIMP2
BASIS		cc-pvtz
METHOD		rimp2
AUX_BASIS	rimp2-cc-pvtz
SOLVENT_METHOD	PCM
PURECART	11111
SYMMETRY	false
MEM_TOTAL	110000
SCF_CONVERGENCE = 6
THRESH=10
GUI = 2
$end

$solvent
dielectric 4.90
$end
--------------------------------------------------------------

             Standard Nuclear Orientation (Angstroms)
    I     Atom           X                Y                Z
 ----------------------------------------------------------------
    1      C       1.1691770000    -6.6392430000    -0.2569270000
    2      C       1.0673370000    -6.0623990000    -1.5626750000
    3      C       1.0037730000    -5.7038030000     0.8271970000
    4      C       0.8328160000    -4.7310440000    -1.8412530000
    5      H       1.1827770000    -6.7181950000    -2.4407090000
    6      C       0.7591350000    -4.3123300000     0.5354880000
    7      C       0.6656080000    -3.7798760000    -0.7949990000
    8      C       0.5920240000    -3.3613240000     1.5805290000
    9      C       0.4211690000    -2.3896410000    -1.0843740000
   10      C       0.3575570000    -2.0280700000     1.3052580000
   11      C       0.2566900000    -1.4557590000     0.0000000000
   12      H       0.2425650000    -1.3735300000     2.1842670000
   13      C       1.0708200000    -6.0946320000     2.2697190000
   14      C       0.6587880000    -3.7405950000     3.0111520000
   15      N       0.8953340000    -5.0918870000     3.2546170000
   16      C       0.7669790000    -4.3580100000    -3.2757750000
   17      C       0.3542240000    -2.0055860000    -2.5279510000
   18      N       0.5290860000    -3.0029020000    -3.5131040000
   19      O       1.2703360000    -7.2425710000     2.6610460000
   20      O       0.5188310000    -2.9414470000     3.9344100000
   21      O       0.9093520000    -5.1695760000    -4.1880590000
   22      O       0.1545830000    -0.8651290000    -2.9408450000
   23      C       0.9626880000    -5.4798820000     4.6672060000
   24      H       1.1526190000    -6.5636510000     4.7124230000
   25      H       0.0098120000    -5.2247730000     5.1692310000
   26      H       1.7714760000    -4.9158540000     5.1699920000
   27      C       0.4493510000    -2.5481700000    -4.9042290000
   28      H       0.6038670000    -3.4305870000    -5.5468330000
   29      H       1.2221680000    -1.7797830000    -5.0959980000
   30      H      -0.5386440000    -2.0881910000    -5.0958580000
   31      H       1.3565620000    -7.7037910000    -0.0709740000
   32      C       0.0000000000     0.0000000000     0.0000000000
   33      S       0.2710910000     0.7454050000     1.5805300000
   34      C       0.8311980000     2.2843630000     0.9049110000
   35      C       0.3411750000     0.9378610000    -0.9854000000
   36      C       0.7926310000     2.1785160000    -0.4935280000
   37      H       0.2606010000     0.7164170000    -2.0599340000
   38      H       1.0938600000     3.0063470000    -1.1525930000
   39      H       1.1323300000     3.1119610000     1.5560250000
 ----------------------------------------------------------------

   10   -1570.6660217461      9.52e-07  Convergence criterion met
 Total energy in the final basis set =    -1570.6660217461
        RIMP2         total energy =     -1575.2974532353 a.u.

                    Orbital Energies (a.u.)
 --------------------------------------------------------------

 Alpha MOs
 -- Occupied --
-91.9926 -20.5580 -20.5560 -20.5548 -20.5526 -15.6307 -15.6299 -11.3992
-11.3965 -11.3904 -11.3902 -11.3200 -11.3011 -11.2987 -11.2965 -11.2941
-11.2929 -11.2919 -11.2862 -11.2862 -11.2814 -11.2777 -11.2760 -11.2646
-11.2641 -11.2571 -11.2504  -8.9929  -6.6737  -6.6731  -6.6725  -1.4254
 -1.4243  -1.4037  -1.4036  -1.2670  -1.2649  -1.2160  -1.1804  -1.1429
 -1.1148  -1.0630  -1.0482  -0.9920  -0.9906  -0.9898  -0.9582  -0.9465
 -0.8965  -0.8781  -0.8774  -0.8607  -0.7962  -0.7799  -0.7726  -0.7633
 -0.7348  -0.7256  -0.7024  -0.6937  -0.6819  -0.6737  -0.6660  -0.6619
 -0.6554  -0.6409  -0.6373  -0.6336  -0.6268  -0.6126  -0.5912  -0.5832
 -0.5792  -0.5706  -0.5690  -0.5636  -0.5610  -0.5559  -0.5538  -0.5466
 -0.5353  -0.5247  -0.5238  -0.5133  -0.4807  -0.4669  -0.4644  -0.4610
 -0.4574  -0.4492  -0.4286  -0.4189  -0.4093  -0.3774  -0.3558  -0.3353
 -0.2986

          Ground-State Mulliken Net Atomic Charges

     Atom                 Charge (a.u.)
  ----------------------------------------
      1 C                    -0.150391
      2 C                    -0.111976
      3 C                    -0.026626
      4 C                    -0.002410
      5 H                     0.187325
      6 C                    -0.005156
      7 C                     0.074943
      8 C                     0.049967
      9 C                    -0.083836
     10 C                    -0.162191
     11 C                     0.043189
     12 H                     0.171076
     13 C                     0.358526
     14 C                     0.362257
     15 N                    -0.101266
     16 C                     0.358181
     17 C                     0.384138
     18 N                    -0.092011
     19 O                    -0.464373
     20 O                    -0.477132
     21 O                    -0.484373
     22 O                    -0.482026
     23 C                    -0.201362
     24 H                     0.141029
     25 H                     0.112376
     26 H                     0.112324
     27 C                    -0.198560
     28 H                     0.134454
     29 H                     0.112022
     30 H                     0.112655
     31 H                     0.211795
     32 C                     0.005036
     33 S                     0.017229
     34 C                    -0.176306
     35 C                    -0.146020
     36 C                    -0.233364
     37 H                     0.238349
     38 H                     0.193528
     39 H                     0.218979
  ----------------------------------------
  Sum of atomic charges =     0.000000

                    Cartesian Multipole Moments
 -----------------------------------------------------------------
    Charge (ESU x 10^10)
                -0.0000
    Dipole Moment (Debye)
         X       0.9837      Y       2.8068      Z      -0.7260
       Tot       3.0615
    Quadrupole Moments (Debye-Ang)
        XX    -162.9818     XY       7.0435     YY    -170.9117
        XZ       0.4092     YZ       0.2277     ZZ    -178.3473

 Total job time:  268.99s(wall), 8131.09s(cpu)
        *  Thank you very much for using Q-Chem.  Have a nice day.  *
