 Q-Chem 5.4, Q-Chem, Inc., Pleasanton, CA (2021)
 Q-Chem 5.4.0 for Intel X86 EM64T Linux

User input:
--------------------------------------------------------------
$molecule
0 1
C	-0.129743	-6.741404	-0.221766
C	-0.782726	-6.155638	-1.352515
C	0.411926	-5.791452	0.717339
C	-0.921816	-4.803786	-1.593885
H	-1.221908	-6.821518	-2.112819
C	0.266682	-4.378638	0.464360
C	-0.398255	-3.838032	-0.688053
C	0.789694	-3.413062	1.369108
C	-0.542349	-2.426473	-0.939002
C	0.652589	-2.059348	1.130409
C	-0.000000	-1.478216	-0.000000
H	1.092453	-1.394783	1.891446
C	1.131595	-6.187987	1.967519
C	1.504912	-3.798164	2.608118
N	1.625174	-5.170003	2.819813
C	-1.639129	-4.424987	-2.836188
C	-1.263477	-2.036627	-2.189558
N	-1.756898	-3.049156	-3.042237
O	1.324787	-7.353131	2.307845
O	1.967354	-2.986854	3.407213
O	-2.095892	-5.248946	-3.625890
O	-1.468685	-0.878829	-2.547850
C	2.330564	-5.563799	4.043674
H	2.352178	-6.664085	4.083407
H	1.807263	-5.147101	4.925490
H	3.356568	-5.148785	4.031877
C	-2.452080	-2.587487	-4.247206
H	-2.774302	-3.483329	-4.803187
H	-1.773301	-1.964972	-4.860536
H	-3.321351	-1.962932	-3.966607
H	-0.037043	-7.822318	-0.060567
C	0.000000	0.000000	0.000000
S	0.607475	0.509994	1.580530
C	1.862020	1.562717	0.904911
C	0.764397	0.641624	-0.985400
C	1.775697	1.490335	-0.493528
H	0.583895	0.490135	-2.059934
H	2.450484	2.056643	-1.152593
H	2.536607	2.128872	1.556025
$end

$rem
JOBTYPE		SP
EXCHANGE	HF
CORRELATION	pRIMP2
BASIS		cc-pvtz
METHOD		rimp2
AUX_BASIS	rimp2-cc-pvtz
SOLVENT_METHOD	PCM
PURECART	11111
SYMMETRY	false
MEM_TOTAL	110000
SCF_CONVERGENCE = 6
THRESH=10
GUI = 2
$end

$solvent
dielectric 4.90
$end
--------------------------------------------------------------

             Standard Nuclear Orientation (Angstroms)
    I     Atom           X                Y                Z
 ----------------------------------------------------------------
    1      C      -0.1297430000    -6.7414040000    -0.2217660000
    2      C      -0.7827260000    -6.1556380000    -1.3525150000
    3      C       0.4119260000    -5.7914520000     0.7173390000
    4      C      -0.9218160000    -4.8037860000    -1.5938850000
    5      H      -1.2219080000    -6.8215180000    -2.1128190000
    6      C       0.2666820000    -4.3786380000     0.4643600000
    7      C      -0.3982550000    -3.8380320000    -0.6880530000
    8      C       0.7896940000    -3.4130620000     1.3691080000
    9      C      -0.5423490000    -2.4264730000    -0.9390020000
   10      C       0.6525890000    -2.0593480000     1.1304090000
   11      C       0.0000000000    -1.4782160000     0.0000000000
   12      H       1.0924530000    -1.3947830000     1.8914460000
   13      C       1.1315950000    -6.1879870000     1.9675190000
   14      C       1.5049120000    -3.7981640000     2.6081180000
   15      N       1.6251740000    -5.1700030000     2.8198130000
   16      C      -1.6391290000    -4.4249870000    -2.8361880000
   17      C      -1.2634770000    -2.0366270000    -2.1895580000
   18      N      -1.7568980000    -3.0491560000    -3.0422370000
   19      O       1.3247870000    -7.3531310000     2.3078450000
   20      O       1.9673540000    -2.9868540000     3.4072130000
   21      O      -2.0958920000    -5.2489460000    -3.6258900000
   22      O      -1.4686850000    -0.8788290000    -2.5478500000
   23      C       2.3305640000    -5.5637990000     4.0436740000
   24      H       2.3521780000    -6.6640850000     4.0834070000
   25      H       1.8072630000    -5.1471010000     4.9254900000
   26      H       3.3565680000    -5.1487850000     4.0318770000
   27      C      -2.4520800000    -2.5874870000    -4.2472060000
   28      H      -2.7743020000    -3.4833290000    -4.8031870000
   29      H      -1.7733010000    -1.9649720000    -4.8605360000
   30      H      -3.3213510000    -1.9629320000    -3.9666070000
   31      H      -0.0370430000    -7.8223180000    -0.0605670000
   32      C       0.0000000000     0.0000000000     0.0000000000
   33      S       0.6074750000     0.5099940000     1.5805300000
   34      C       1.8620200000     1.5627170000     0.9049110000
   35      C       0.7643970000     0.6416240000    -0.9854000000
   36      C       1.7756970000     1.4903350000    -0.4935280000
   37      H       0.5838950000     0.4901350000    -2.0599340000
   38      H       2.4504840000     2.0566430000    -1.1525930000
   39      H       2.5366070000     2.1288720000     1.5560250000
 ----------------------------------------------------------------

   11   -1570.6297185048      4.32e-07  Convergence criterion met
 Total energy in the final basis set =    -1570.6297185048
        RIMP2         total energy =     -1575.2684777479 a.u.

                    Orbital Energies (a.u.)
 --------------------------------------------------------------

 Alpha MOs
 -- Occupied --
-91.9906 -20.5577 -20.5557 -20.5524 -20.5513 -15.6302 -15.6276 -11.3987
-11.3920 -11.3894 -11.3891 -11.3181 -11.3061 -11.3001 -11.2970 -11.2911
-11.2905 -11.2901 -11.2834 -11.2804 -11.2801 -11.2774 -11.2772 -11.2644
-11.2641 -11.2632 -11.2541  -8.9922  -6.6728  -6.6720  -6.6718  -1.4240
 -1.4210  -1.4033  -1.4001  -1.2659  -1.2625  -1.2163  -1.1883  -1.1405
 -1.1130  -1.0630  -1.0466  -0.9979  -0.9923  -0.9902  -0.9570  -0.9443
 -0.8949  -0.8767  -0.8750  -0.8571  -0.7979  -0.7804  -0.7708  -0.7639
 -0.7341  -0.7192  -0.7044  -0.6942  -0.6790  -0.6734  -0.6647  -0.6604
 -0.6544  -0.6426  -0.6347  -0.6310  -0.6260  -0.6120  -0.5890  -0.5864
 -0.5804  -0.5785  -0.5672  -0.5621  -0.5612  -0.5556  -0.5517  -0.5473
 -0.5417  -0.5251  -0.5219  -0.4963  -0.4815  -0.4674  -0.4640  -0.4599
 -0.4584  -0.4508  -0.4263  -0.4171  -0.4072  -0.3735  -0.3478  -0.3346
 -0.3031

          Ground-State Mulliken Net Atomic Charges

     Atom                 Charge (a.u.)
  ----------------------------------------
      1 C                    -0.151106
      2 C                    -0.108587
      3 C                    -0.026149
      4 C                    -0.004612
      5 H                     0.187366
      6 C                    -0.015317
      7 C                     0.071106
      8 C                     0.064660
      9 C                    -0.079531
     10 C                    -0.191831
     11 C                     0.061084
     12 H                     0.188029
     13 C                     0.357478
     14 C                     0.363926
     15 N                    -0.100704
     16 C                     0.356025
     17 C                     0.363867
     18 N                    -0.094330
     19 O                    -0.464945
     20 O                    -0.479191
     21 O                    -0.485660
     22 O                    -0.476843
     23 C                    -0.201623
     24 H                     0.141008
     25 H                     0.112184
     26 H                     0.111868
     27 C                    -0.198044
     28 H                     0.133406
     29 H                     0.111068
     30 H                     0.112720
     31 H                     0.211421
     32 C                    -0.074313
     33 S                     0.027866
     34 C                    -0.135944
     35 C                    -0.058541
     36 C                    -0.252112
     37 H                     0.211090
     38 H                     0.194210
     39 H                     0.219000
  ----------------------------------------
  Sum of atomic charges =     0.000000

                    Cartesian Multipole Moments
 -----------------------------------------------------------------
    Charge (ESU x 10^10)
                 0.0000
    Dipole Moment (Debye)
         X       2.8836      Y       2.4215      Z      -0.3279
       Tot       3.7797
    Quadrupole Moments (Debye-Ang)
        XX    -161.7729     XY       6.0465     YY    -178.3689
        XZ      -8.6176     YZ      -0.1115     ZZ    -173.2126

 Total job time:  275.31s(wall), 8406.27s(cpu)
        *  Thank you very much for using Q-Chem.  Have a nice day.  *
