 Q-Chem 5.4, Q-Chem, Inc., Pleasanton, CA (2021)
 Q-Chem 5.4.0 for Intel X86 EM64T Linux

User input:
--------------------------------------------------------------
$molecule
0 1
C	-0.129743	-6.741404	-0.221766
C	-0.782726	-6.155638	-1.352515
C	0.411926	-5.791452	0.717339
C	-0.921816	-4.803786	-1.593885
H	-1.221908	-6.821518	-2.112819
C	0.266682	-4.378638	0.464360
C	-0.398255	-3.838032	-0.688053
C	0.789694	-3.413062	1.369108
C	-0.542349	-2.426473	-0.939002
C	0.652589	-2.059348	1.130409
C	-0.000000	-1.478216	-0.000000
H	1.092453	-1.394783	1.891446
C	1.131595	-6.187987	1.967519
C	1.504912	-3.798164	2.608118
N	1.625174	-5.170003	2.819813
C	-1.639129	-4.424987	-2.836188
C	-1.263477	-2.036627	-2.189558
N	-1.756898	-3.049156	-3.042237
O	1.324787	-7.353131	2.307845
O	1.967354	-2.986854	3.407213
O	-2.095892	-5.248946	-3.625890
O	-1.468685	-0.878829	-2.547850
C	2.330564	-5.563799	4.043674
H	2.352178	-6.664085	4.083407
H	1.807263	-5.147101	4.925490
H	3.356568	-5.148785	4.031877
C	-2.452080	-2.587487	-4.247206
H	-2.774302	-3.483329	-4.803187
H	-1.773301	-1.964972	-4.860536
H	-3.321351	-1.962932	-3.966607
H	-0.037043	-7.822318	-0.060567
C	0.000000	0.000000	0.000000
S	0.686805	0.396760	1.580530
C	2.105095	1.215640	0.904911
C	0.864201	0.499140	-0.985400
C	2.007514	1.159347	-0.493528
H	0.660136	0.381296	-2.059934
H	2.770388	1.599875	-1.152593
H	2.867745	1.656053	1.556025
$end

$rem
JOBTYPE		SP
EXCHANGE	HF
CORRELATION	pRIMP2
BASIS		cc-pvtz
METHOD		rimp2
AUX_BASIS	rimp2-cc-pvtz
SOLVENT_METHOD	PCM
PURECART	11111
SYMMETRY	false
MEM_TOTAL	110000
SCF_CONVERGENCE = 6
THRESH=10
GUI = 2
$end

$solvent
dielectric 4.90
$end
--------------------------------------------------------------

             Standard Nuclear Orientation (Angstroms)
    I     Atom           X                Y                Z
 ----------------------------------------------------------------
    1      C      -0.1297430000    -6.7414040000    -0.2217660000
    2      C      -0.7827260000    -6.1556380000    -1.3525150000
    3      C       0.4119260000    -5.7914520000     0.7173390000
    4      C      -0.9218160000    -4.8037860000    -1.5938850000
    5      H      -1.2219080000    -6.8215180000    -2.1128190000
    6      C       0.2666820000    -4.3786380000     0.4643600000
    7      C      -0.3982550000    -3.8380320000    -0.6880530000
    8      C       0.7896940000    -3.4130620000     1.3691080000
    9      C      -0.5423490000    -2.4264730000    -0.9390020000
   10      C       0.6525890000    -2.0593480000     1.1304090000
   11      C       0.0000000000    -1.4782160000     0.0000000000
   12      H       1.0924530000    -1.3947830000     1.8914460000
   13      C       1.1315950000    -6.1879870000     1.9675190000
   14      C       1.5049120000    -3.7981640000     2.6081180000
   15      N       1.6251740000    -5.1700030000     2.8198130000
   16      C      -1.6391290000    -4.4249870000    -2.8361880000
   17      C      -1.2634770000    -2.0366270000    -2.1895580000
   18      N      -1.7568980000    -3.0491560000    -3.0422370000
   19      O       1.3247870000    -7.3531310000     2.3078450000
   20      O       1.9673540000    -2.9868540000     3.4072130000
   21      O      -2.0958920000    -5.2489460000    -3.6258900000
   22      O      -1.4686850000    -0.8788290000    -2.5478500000
   23      C       2.3305640000    -5.5637990000     4.0436740000
   24      H       2.3521780000    -6.6640850000     4.0834070000
   25      H       1.8072630000    -5.1471010000     4.9254900000
   26      H       3.3565680000    -5.1487850000     4.0318770000
   27      C      -2.4520800000    -2.5874870000    -4.2472060000
   28      H      -2.7743020000    -3.4833290000    -4.8031870000
   29      H      -1.7733010000    -1.9649720000    -4.8605360000
   30      H      -3.3213510000    -1.9629320000    -3.9666070000
   31      H      -0.0370430000    -7.8223180000    -0.0605670000
   32      C       0.0000000000     0.0000000000     0.0000000000
   33      S       0.6868050000     0.3967600000     1.5805300000
   34      C       2.1050950000     1.2156400000     0.9049110000
   35      C       0.8642010000     0.4991400000    -0.9854000000
   36      C       2.0075140000     1.1593470000    -0.4935280000
   37      H       0.6601360000     0.3812960000    -2.0599340000
   38      H       2.7703880000     1.5998750000    -1.1525930000
   39      H       2.8677450000     1.6560530000     1.5560250000
 ----------------------------------------------------------------

   11   -1570.5956815671      4.85e-07  Convergence criterion met
 Total energy in the final basis set =    -1570.5956815671
        RIMP2         total energy =     -1575.2407521968 a.u.

                    Orbital Energies (a.u.)
 --------------------------------------------------------------

 Alpha MOs
 -- Occupied --
-91.9910 -20.5576 -20.5559 -20.5512 -20.5504 -15.6301 -15.6267 -11.3985
-11.3905 -11.3893 -11.3881 -11.3185 -11.3135 -11.2996 -11.2961 -11.2896
-11.2885 -11.2864 -11.2848 -11.2826 -11.2787 -11.2765 -11.2745 -11.2641
-11.2627 -11.2595 -11.2553  -8.9935  -6.6739  -6.6732  -6.6729  -1.4239
 -1.4200  -1.4033  -1.3991  -1.2657  -1.2616  -1.2185  -1.1929  -1.1391
 -1.1119  -1.0635  -1.0465  -1.0037  -0.9931  -0.9896  -0.9565  -0.9431
 -0.8943  -0.8764  -0.8741  -0.8560  -0.8005  -0.7806  -0.7701  -0.7656
 -0.7334  -0.7211  -0.7037  -0.6940  -0.6788  -0.6737  -0.6644  -0.6598
 -0.6539  -0.6452  -0.6342  -0.6305  -0.6253  -0.6118  -0.5931  -0.5862
 -0.5816  -0.5799  -0.5674  -0.5618  -0.5609  -0.5556  -0.5515  -0.5472
 -0.5419  -0.5247  -0.5218  -0.4903  -0.4811  -0.4679  -0.4620  -0.4584
 -0.4572  -0.4500  -0.4257  -0.4167  -0.4066  -0.3741  -0.3410  -0.3345
 -0.3032

          Ground-State Mulliken Net Atomic Charges

     Atom                 Charge (a.u.)
  ----------------------------------------
      1 C                    -0.154975
      2 C                    -0.108175
      3 C                    -0.023486
      4 C                    -0.004624
      5 H                     0.187078
      6 C                    -0.019352
      7 C                     0.067432
      8 C                     0.082560
      9 C                    -0.084565
     10 C                    -0.215809
     11 C                     0.072168
     12 H                     0.190027
     13 C                     0.357011
     14 C                     0.364550
     15 N                    -0.100248
     16 C                     0.354947
     17 C                     0.363655
     18 N                    -0.094048
     19 O                    -0.464886
     20 O                    -0.480380
     21 O                    -0.487004
     22 O                    -0.479155
     23 C                    -0.201676
     24 H                     0.141052
     25 H                     0.112110
     26 H                     0.111640
     27 C                    -0.198463
     28 H                     0.133185
     29 H                     0.110750
     30 H                     0.112562
     31 H                     0.210810
     32 C                    -0.108603
     33 S                     0.043458
     34 C                    -0.125960
     35 C                    -0.038972
     36 C                    -0.255855
     37 H                     0.215114
     38 H                     0.194945
     39 H                     0.221180
  ----------------------------------------
  Sum of atomic charges =     0.000000

                    Cartesian Multipole Moments
 -----------------------------------------------------------------
    Charge (ESU x 10^10)
                 0.0000
    Dipole Moment (Debye)
         X       3.5903      Y       2.4022      Z      -0.1365
       Tot       4.3220
    Quadrupole Moments (Debye-Ang)
        XX    -159.3319     XY       5.3475     YY    -182.0671
        XZ      -8.5111     YZ      -0.7597     ZZ    -173.1216

 Total job time:  275.04s(wall), 8009.41s(cpu)
        *  Thank you very much for using Q-Chem.  Have a nice day.  *
