 Q-Chem 5.4, Q-Chem, Inc., Pleasanton, CA (2021)
 Q-Chem 5.4.0 for Intel X86 EM64T Linux

User input:
--------------------------------------------------------------
$molecule
0 1
C	-0.046070	-6.741404	-0.252767
C	-0.272935	-6.155638	-1.538656
C	0.141739	-5.791452	0.814966
C	-0.321083	-4.803786	-1.813042
H	-0.425592	-6.821518	-2.403318
C	0.091779	-4.378638	0.527566
C	-0.138909	-3.838032	-0.782769
C	0.273808	-3.413062	1.556632
C	-0.188483	-2.426473	-1.067868
C	0.226610	-2.059348	1.285436
C	0.000000	-1.478216	0.000000
H	0.379657	-1.394783	2.151019
C	0.390420	-6.187987	2.235891
C	0.522125	-3.798164	2.965540
N	0.562731	-5.170003	3.205600
C	-0.570244	-4.424987	-3.225760
C	-0.438407	-2.036627	-2.489646
N	-0.610438	-3.049156	-3.459662
O	0.455563	-7.353131	2.621768
O	0.683373	-2.986854	3.874608
O	-0.729367	-5.248946	-4.124059
O	-0.508697	-0.878829	-2.896516
C	0.806996	-5.563799	4.596910
H	0.813717	-6.664085	4.641640
H	0.013655	-5.147101	5.246567
H	1.775159	-5.148785	4.936739
C	-0.851572	-2.587487	-4.829729
H	-0.964204	-3.483329	-5.462387
H	-0.003956	-1.964972	-5.173914
H	-1.764390	-1.962932	-4.863360
H	-0.014094	-7.822318	-0.069584
C	0.000000	0.000000	0.000000
S	0.509686	0.607733	1.580530
C	1.562368	1.862312	0.904911
C	0.641367	0.764613	-0.985400
C	1.489926	1.776040	-0.493528
H	0.489914	0.584081	-2.059934
H	2.056124	2.450920	-1.152593
H	2.128395	2.537007	1.556025
$end

$rem
JOBTYPE		SP
EXCHANGE	HF
CORRELATION	pRIMP2
BASIS		cc-pvtz
METHOD		rimp2
AUX_BASIS	rimp2-cc-pvtz
SOLVENT_METHOD	PCM
PURECART	11111
SYMMETRY	false
MEM_TOTAL	110000
SCF_CONVERGENCE = 6
THRESH=10
GUI = 2
$end

$solvent
dielectric 4.90
$end
--------------------------------------------------------------

             Standard Nuclear Orientation (Angstroms)
    I     Atom           X                Y                Z
 ----------------------------------------------------------------
    1      C      -0.0460700000    -6.7414040000    -0.2527670000
    2      C      -0.2729350000    -6.1556380000    -1.5386560000
    3      C       0.1417390000    -5.7914520000     0.8149660000
    4      C      -0.3210830000    -4.8037860000    -1.8130420000
    5      H      -0.4255920000    -6.8215180000    -2.4033180000
    6      C       0.0917790000    -4.3786380000     0.5275660000
    7      C      -0.1389090000    -3.8380320000    -0.7827690000
    8      C       0.2738080000    -3.4130620000     1.5566320000
    9      C      -0.1884830000    -2.4264730000    -1.0678680000
   10      C       0.2266100000    -2.0593480000     1.2854360000
   11      C       0.0000000000    -1.4782160000     0.0000000000
   12      H       0.3796570000    -1.3947830000     2.1510190000
   13      C       0.3904200000    -6.1879870000     2.2358910000
   14      C       0.5221250000    -3.7981640000     2.9655400000
   15      N       0.5627310000    -5.1700030000     3.2056000000
   16      C      -0.5702440000    -4.4249870000    -3.2257600000
   17      C      -0.4384070000    -2.0366270000    -2.4896460000
   18      N      -0.6104380000    -3.0491560000    -3.4596620000
   19      O       0.4555630000    -7.3531310000     2.6217680000
   20      O       0.6833730000    -2.9868540000     3.8746080000
   21      O      -0.7293670000    -5.2489460000    -4.1240590000
   22      O      -0.5086970000    -0.8788290000    -2.8965160000
   23      C       0.8069960000    -5.5637990000     4.5969100000
   24      H       0.8137170000    -6.6640850000     4.6416400000
   25      H       0.0136550000    -5.1471010000     5.2465670000
   26      H       1.7751590000    -5.1487850000     4.9367390000
   27      C      -0.8515720000    -2.5874870000    -4.8297290000
   28      H      -0.9642040000    -3.4833290000    -5.4623870000
   29      H      -0.0039560000    -1.9649720000    -5.1739140000
   30      H      -1.7643900000    -1.9629320000    -4.8633600000
   31      H      -0.0140940000    -7.8223180000    -0.0695840000
   32      C       0.0000000000     0.0000000000     0.0000000000
   33      S       0.5096860000     0.6077330000     1.5805300000
   34      C       1.5623680000     1.8623120000     0.9049110000
   35      C       0.6413670000     0.7646130000    -0.9854000000
   36      C       1.4899260000     1.7760400000    -0.4935280000
   37      H       0.4899140000     0.5840810000    -2.0599340000
   38      H       2.0561240000     2.4509200000    -1.1525930000
   39      H       2.1283950000     2.5370070000     1.5560250000
 ----------------------------------------------------------------

   11   -1570.6519821346      4.54e-07  Convergence criterion met
 Total energy in the final basis set =    -1570.6519821346
        RIMP2         total energy =     -1575.2862034314 a.u.

                    Orbital Energies (a.u.)
 --------------------------------------------------------------

 Alpha MOs
 -- Occupied --
-91.9921 -20.5578 -20.5558 -20.5536 -20.5517 -15.6303 -15.6288 -11.3988
-11.3943 -11.3897 -11.3895 -11.3197 -11.3016 -11.3003 -11.2977 -11.2912
-11.2911 -11.2907 -11.2850 -11.2837 -11.2802 -11.2770 -11.2716 -11.2663
-11.2640 -11.2639 -11.2520  -8.9930  -6.6737  -6.6730  -6.6725  -1.4241
 -1.4234  -1.4034  -1.4021  -1.2663  -1.2638  -1.2157  -1.1839  -1.1418
 -1.1137  -1.0629  -1.0472  -0.9940  -0.9915  -0.9905  -0.9575  -0.9455
 -0.8956  -0.8772  -0.8763  -0.8592  -0.7970  -0.7802  -0.7715  -0.7637
 -0.7341  -0.7223  -0.7024  -0.6940  -0.6808  -0.6735  -0.6653  -0.6612
 -0.6547  -0.6410  -0.6357  -0.6328  -0.6260  -0.6124  -0.5907  -0.5842
 -0.5803  -0.5744  -0.5682  -0.5628  -0.5615  -0.5558  -0.5526  -0.5466
 -0.5382  -0.5245  -0.5235  -0.5075  -0.4809  -0.4653  -0.4641  -0.4591
 -0.4576  -0.4504  -0.4275  -0.4180  -0.4086  -0.3767  -0.3559  -0.3342
 -0.2992

          Ground-State Mulliken Net Atomic Charges

     Atom                 Charge (a.u.)
  ----------------------------------------
      1 C                    -0.153302
      2 C                    -0.110778
      3 C                    -0.024423
      4 C                    -0.004759
      5 H                     0.187120
      6 C                    -0.011803
      7 C                     0.074307
      8 C                     0.060424
      9 C                    -0.089959
     10 C                    -0.174833
     11 C                     0.045875
     12 H                     0.177386
     13 C                     0.358029
     14 C                     0.362078
     15 N                    -0.101063
     16 C                     0.357134
     17 C                     0.384047
     18 N                    -0.093192
     19 O                    -0.464579
     20 O                    -0.478164
     21 O                    -0.485471
     22 O                    -0.488402
     23 C                    -0.201505
     24 H                     0.141044
     25 H                     0.112288
     26 H                     0.112060
     27 C                    -0.198359
     28 H                     0.134039
     29 H                     0.111527
     30 H                     0.112573
     31 H                     0.211370
     32 C                    -0.031558
     33 S                     0.019826
     34 C                    -0.148903
     35 C                    -0.096126
     36 C                    -0.250001
     37 H                     0.232813
     38 H                     0.193923
     39 H                     0.219316
  ----------------------------------------
  Sum of atomic charges =     0.000000

                    Cartesian Multipole Moments
 -----------------------------------------------------------------
    Charge (ESU x 10^10)
                 0.0000
    Dipole Moment (Debye)
         X       2.1338      Y       2.7869      Z      -0.4718
       Tot       3.5416
    Quadrupole Moments (Debye-Ang)
        XX    -159.2558     XY       6.0074     YY    -176.3814
        XZ      -3.0203     YZ      -0.1374     ZZ    -178.0494

 Total job time:  283.68s(wall), 8453.99s(cpu)
        *  Thank you very much for using Q-Chem.  Have a nice day.  *
