 Q-Chem 5.4, Q-Chem, Inc., Pleasanton, CA (2021)
 Q-Chem 5.4.0 for Intel X86 EM64T Linux

User input:
--------------------------------------------------------------
$molecule
0 1
C	-0.129743	-6.741404	-0.221766
C	-0.782726	-6.155638	-1.352515
C	0.411926	-5.791452	0.717339
C	-0.921816	-4.803786	-1.593885
H	-1.221908	-6.821518	-2.112819
C	0.266682	-4.378638	0.464360
C	-0.398255	-3.838032	-0.688053
C	0.789694	-3.413062	1.369108
C	-0.542349	-2.426473	-0.939002
C	0.652589	-2.059348	1.130409
C	-0.000000	-1.478216	-0.000000
H	1.092453	-1.394783	1.891446
C	1.131595	-6.187987	1.967519
C	1.504912	-3.798164	2.608118
N	1.625174	-5.170003	2.819813
C	-1.639129	-4.424987	-2.836188
C	-1.263477	-2.036627	-2.189558
N	-1.756898	-3.049156	-3.042237
O	1.324787	-7.353131	2.307845
O	1.967354	-2.986854	3.407213
O	-2.095892	-5.248946	-3.625890
O	-1.468685	-0.878829	-2.547850
C	2.330564	-5.563799	4.043674
H	2.352178	-6.664085	4.083407
H	1.807263	-5.147101	4.925490
H	3.356568	-5.148785	4.031877
C	-2.452080	-2.587487	-4.247206
H	-2.774302	-3.483329	-4.803187
H	-1.773301	-1.964972	-4.860536
H	-3.321351	-1.962932	-3.966607
H	-0.037043	-7.822318	-0.060567
C	0.000000	0.000000	0.000000
S	0.335026	0.718942	1.580530
C	1.027130	2.203226	0.904911
C	0.421617	0.904557	-0.985400
C	0.979485	2.101144	-0.493528
H	0.322049	0.690978	-2.059934
H	1.351718	2.899571	-1.152593
H	1.399246	3.001430	1.556025
$end

$rem
JOBTYPE		SP
EXCHANGE	HF
CORRELATION	pRIMP2
BASIS		cc-pvtz
METHOD		rimp2
AUX_BASIS	rimp2-cc-pvtz
SOLVENT_METHOD	PCM
PURECART	11111
SYMMETRY	false
MEM_TOTAL	110000
SCF_CONVERGENCE = 6
THRESH=10
GUI = 2
$end

$solvent
dielectric 4.90
$end
--------------------------------------------------------------

             Standard Nuclear Orientation (Angstroms)
    I     Atom           X                Y                Z
 ----------------------------------------------------------------
    1      C      -0.1297430000    -6.7414040000    -0.2217660000
    2      C      -0.7827260000    -6.1556380000    -1.3525150000
    3      C       0.4119260000    -5.7914520000     0.7173390000
    4      C      -0.9218160000    -4.8037860000    -1.5938850000
    5      H      -1.2219080000    -6.8215180000    -2.1128190000
    6      C       0.2666820000    -4.3786380000     0.4643600000
    7      C      -0.3982550000    -3.8380320000    -0.6880530000
    8      C       0.7896940000    -3.4130620000     1.3691080000
    9      C      -0.5423490000    -2.4264730000    -0.9390020000
   10      C       0.6525890000    -2.0593480000     1.1304090000
   11      C       0.0000000000    -1.4782160000     0.0000000000
   12      H       1.0924530000    -1.3947830000     1.8914460000
   13      C       1.1315950000    -6.1879870000     1.9675190000
   14      C       1.5049120000    -3.7981640000     2.6081180000
   15      N       1.6251740000    -5.1700030000     2.8198130000
   16      C      -1.6391290000    -4.4249870000    -2.8361880000
   17      C      -1.2634770000    -2.0366270000    -2.1895580000
   18      N      -1.7568980000    -3.0491560000    -3.0422370000
   19      O       1.3247870000    -7.3531310000     2.3078450000
   20      O       1.9673540000    -2.9868540000     3.4072130000
   21      O      -2.0958920000    -5.2489460000    -3.6258900000
   22      O      -1.4686850000    -0.8788290000    -2.5478500000
   23      C       2.3305640000    -5.5637990000     4.0436740000
   24      H       2.3521780000    -6.6640850000     4.0834070000
   25      H       1.8072630000    -5.1471010000     4.9254900000
   26      H       3.3565680000    -5.1487850000     4.0318770000
   27      C      -2.4520800000    -2.5874870000    -4.2472060000
   28      H      -2.7743020000    -3.4833290000    -4.8031870000
   29      H      -1.7733010000    -1.9649720000    -4.8605360000
   30      H      -3.3213510000    -1.9629320000    -3.9666070000
   31      H      -0.0370430000    -7.8223180000    -0.0605670000
   32      C       0.0000000000     0.0000000000     0.0000000000
   33      S       0.3350260000     0.7189420000     1.5805300000
   34      C       1.0271300000     2.2032260000     0.9049110000
   35      C       0.4216170000     0.9045570000    -0.9854000000
   36      C       0.9794850000     2.1011440000    -0.4935280000
   37      H       0.3220490000     0.6909780000    -2.0599340000
   38      H       1.3517180000     2.8995710000    -1.1525930000
   39      H       1.3992460000     3.0014300000     1.5560250000
 ----------------------------------------------------------------

   10   -1570.6779974509      7.71e-07  Convergence criterion met
 Total energy in the final basis set =    -1570.6779974509
        RIMP2         total energy =     -1575.3071855113 a.u.

                    Orbital Energies (a.u.)
 --------------------------------------------------------------

 Alpha MOs
 -- Occupied --
-91.9925 -20.5583 -20.5561 -20.5548 -20.5534 -15.6309 -15.6297 -11.3996
-11.3950 -11.3911 -11.3903 -11.3183 -11.3018 -11.2996 -11.2981 -11.2950
-11.2947 -11.2922 -11.2904 -11.2860 -11.2833 -11.2790 -11.2742 -11.2643
-11.2643 -11.2631 -11.2519  -8.9926  -6.6734  -6.6728  -6.6723  -1.4246
 -1.4231  -1.4039  -1.4022  -1.2669  -1.2643  -1.2166  -1.1800  -1.1433
 -1.1158  -1.0634  -1.0487  -0.9922  -0.9910  -0.9886  -0.9583  -0.9468
 -0.8966  -0.8783  -0.8776  -0.8599  -0.7965  -0.7794  -0.7723  -0.7623
 -0.7359  -0.7175  -0.7049  -0.6948  -0.6804  -0.6735  -0.6658  -0.6616
 -0.6558  -0.6415  -0.6363  -0.6324  -0.6280  -0.6126  -0.5881  -0.5842
 -0.5802  -0.5737  -0.5665  -0.5630  -0.5617  -0.5556  -0.5524  -0.5477
 -0.5403  -0.5261  -0.5226  -0.5101  -0.4828  -0.4678  -0.4675  -0.4624
 -0.4595  -0.4525  -0.4279  -0.4181  -0.4088  -0.3729  -0.3542  -0.3360
 -0.3032

          Ground-State Mulliken Net Atomic Charges

     Atom                 Charge (a.u.)
  ----------------------------------------
      1 C                    -0.142379
      2 C                    -0.108870
      3 C                    -0.032558
      4 C                    -0.005063
      5 H                     0.188227
      6 C                    -0.001905
      7 C                     0.074205
      8 C                     0.036768
      9 C                    -0.060232
     10 C                    -0.164675
     11 C                     0.055912
     12 H                     0.180937
     13 C                     0.358635
     14 C                     0.362863
     15 N                    -0.101446
     16 C                     0.358430
     17 C                     0.359065
     18 N                    -0.094728
     19 O                    -0.464648
     20 O                    -0.476711
     21 O                    -0.482949
     22 O                    -0.471618
     23 C                    -0.201286
     24 H                     0.141038
     25 H                     0.112437
     26 H                     0.112330
     27 C                    -0.197208
     28 H                     0.133866
     29 H                     0.111799
     30 H                     0.113086
     31 H                     0.212822
     32 C                    -0.026845
     33 S                     0.011282
     34 C                    -0.162218
     35 C                    -0.099132
     36 C                    -0.241073
     37 H                     0.203461
     38 H                     0.192195
     39 H                     0.216189
  ----------------------------------------
  Sum of atomic charges =     0.000000

                    Cartesian Multipole Moments
 -----------------------------------------------------------------
    Charge (ESU x 10^10)
                 0.0000
    Dipole Moment (Debye)
         X       1.2930      Y       1.9819      Z      -0.6729
       Tot       2.4602
    Quadrupole Moments (Debye-Ang)
        XX    -167.1226     XY       4.5255     YY    -169.6772
        XZ      -8.7936     YZ       0.7537     ZZ    -173.0714

 Total job time:  268.01s(wall), 8155.98s(cpu)
        *  Thank you very much for using Q-Chem.  Have a nice day.  *
