 Q-Chem 5.4, Q-Chem, Inc., Pleasanton, CA (2021)
 Q-Chem 5.4.0 for Intel X86 EM64T Linux

User input:
--------------------------------------------------------------
$molecule
0 1
C	-0.241938	-6.741404	-0.086486
C	-1.468983	-6.155638	-0.532960
C	0.776651	-5.791452	0.284733
C	-1.730681	-4.803786	-0.628455
H	-2.294130	-6.821518	-0.833086
C	0.502775	-4.378638	0.184300
C	-0.747353	-3.838032	-0.271086
C	1.484986	-3.413062	0.541191
C	-1.019042	-2.426473	-0.370703
C	1.226525	-2.059348	0.446468
C	0.000000	-1.478216	0.000000
H	2.052666	-1.394783	0.746717
C	2.131549	-6.187987	0.779832
C	2.829295	-3.798164	1.030596
N	3.057496	-5.170003	1.115461
C	-3.078712	-4.424987	-1.119034
C	-2.375300	-2.036627	-0.865151
N	-3.301374	-3.049156	-1.201176
O	2.498300	-7.353131	0.916355
O	3.697195	-2.986854	1.345486
O	-3.936224	-5.248946	-1.430379
O	-2.762805	-0.878829	-1.007714
C	4.384539	-5.563799	1.599576
H	4.426636	-6.664085	1.616121
H	4.550487	-5.147101	2.611458
H	5.162921	-5.148785	0.931037
C	-4.608454	-2.587487	-1.677382
H	-5.212668	-3.483329	-1.896168
H	-4.482719	-1.964972	-2.583531
H	-5.093988	-1.962932	-0.903674
H	-0.067309	-7.822318	-0.022586
C	0.000000	0.000000	0.000000
S	0.396411	0.687007	1.580530
C	1.215245	2.105322	0.904911
C	0.498850	0.864369	-0.985400
C	1.158885	2.007781	-0.493528
H	0.381046	0.660280	-2.059934
H	1.599289	2.770727	-1.152593
H	1.655514	2.868056	1.556025
$end

$rem
JOBTYPE		SP
EXCHANGE	HF
CORRELATION	pRIMP2
BASIS		cc-pvtz
METHOD		rimp2
AUX_BASIS	rimp2-cc-pvtz
SOLVENT_METHOD	PCM
PURECART	11111
SYMMETRY	false
MEM_TOTAL	110000
SCF_CONVERGENCE = 6
THRESH=10
GUI = 2
$end

$solvent
dielectric 4.90
$end
--------------------------------------------------------------

             Standard Nuclear Orientation (Angstroms)
    I     Atom           X                Y                Z
 ----------------------------------------------------------------
    1      C      -0.2419380000    -6.7414040000    -0.0864860000
    2      C      -1.4689830000    -6.1556380000    -0.5329600000
    3      C       0.7766510000    -5.7914520000     0.2847330000
    4      C      -1.7306810000    -4.8037860000    -0.6284550000
    5      H      -2.2941300000    -6.8215180000    -0.8330860000
    6      C       0.5027750000    -4.3786380000     0.1843000000
    7      C      -0.7473530000    -3.8380320000    -0.2710860000
    8      C       1.4849860000    -3.4130620000     0.5411910000
    9      C      -1.0190420000    -2.4264730000    -0.3707030000
   10      C       1.2265250000    -2.0593480000     0.4464680000
   11      C       0.0000000000    -1.4782160000     0.0000000000
   12      H       2.0526660000    -1.3947830000     0.7467170000
   13      C       2.1315490000    -6.1879870000     0.7798320000
   14      C       2.8292950000    -3.7981640000     1.0305960000
   15      N       3.0574960000    -5.1700030000     1.1154610000
   16      C      -3.0787120000    -4.4249870000    -1.1190340000
   17      C      -2.3753000000    -2.0366270000    -0.8651510000
   18      N      -3.3013740000    -3.0491560000    -1.2011760000
   19      O       2.4983000000    -7.3531310000     0.9163550000
   20      O       3.6971950000    -2.9868540000     1.3454860000
   21      O      -3.9362240000    -5.2489460000    -1.4303790000
   22      O      -2.7628050000    -0.8788290000    -1.0077140000
   23      C       4.3845390000    -5.5637990000     1.5995760000
   24      H       4.4266360000    -6.6640850000     1.6161210000
   25      H       4.5504870000    -5.1471010000     2.6114580000
   26      H       5.1629210000    -5.1487850000     0.9310370000
   27      C      -4.6084540000    -2.5874870000    -1.6773820000
   28      H      -5.2126680000    -3.4833290000    -1.8961680000
   29      H      -4.4827190000    -1.9649720000    -2.5835310000
   30      H      -5.0939880000    -1.9629320000    -0.9036740000
   31      H      -0.0673090000    -7.8223180000    -0.0225860000
   32      C       0.0000000000     0.0000000000     0.0000000000
   33      S       0.3964110000     0.6870070000     1.5805300000
   34      C       1.2152450000     2.1053220000     0.9049110000
   35      C       0.4988500000     0.8643690000    -0.9854000000
   36      C       1.1588850000     2.0077810000    -0.4935280000
   37      H       0.3810460000     0.6602800000    -2.0599340000
   38      H       1.5992890000     2.7707270000    -1.1525930000
   39      H       1.6555140000     2.8680560000     1.5560250000
 ----------------------------------------------------------------

   10   -1570.6773165923      7.44e-07  Convergence criterion met
 Total energy in the final basis set =    -1570.6773165923
        RIMP2         total energy =     -1575.3045449493 a.u.

                    Orbital Energies (a.u.)
 --------------------------------------------------------------

 Alpha MOs
 -- Occupied --
-91.9924 -20.5584 -20.5568 -20.5558 -20.5552 -15.6311 -15.6309 -11.4000
-11.3968 -11.3927 -11.3903 -11.3164 -11.3042 -11.3024 -11.2999 -11.2981
-11.2977 -11.2903 -11.2867 -11.2860 -11.2853 -11.2799 -11.2781 -11.2646
-11.2645 -11.2605 -11.2521  -8.9920  -6.6728  -6.6723  -6.6717  -1.4247
 -1.4241  -1.4039  -1.4031  -1.2674  -1.2652  -1.2177  -1.1792  -1.1436
 -1.1172  -1.0633  -1.0497  -0.9928  -0.9909  -0.9862  -0.9591  -0.9475
 -0.8973  -0.8791  -0.8774  -0.8599  -0.7957  -0.7776  -0.7731  -0.7610
 -0.7376  -0.7182  -0.7060  -0.6949  -0.6812  -0.6736  -0.6663  -0.6622
 -0.6567  -0.6421  -0.6376  -0.6338  -0.6298  -0.6127  -0.5855  -0.5843
 -0.5783  -0.5744  -0.5673  -0.5640  -0.5614  -0.5551  -0.5528  -0.5482
 -0.5392  -0.5271  -0.5205  -0.5084  -0.4834  -0.4714  -0.4672  -0.4624
 -0.4602  -0.4534  -0.4280  -0.4182  -0.4085  -0.3655  -0.3458  -0.3346
 -0.3196

          Ground-State Mulliken Net Atomic Charges

     Atom                 Charge (a.u.)
  ----------------------------------------
      1 C                    -0.132690
      2 C                    -0.110257
      3 C                    -0.041687
      4 C                     0.000867
      5 H                     0.188629
      6 C                     0.003221
      7 C                     0.074333
      8 C                    -0.008513
      9 C                    -0.019897
     10 C                    -0.095549
     11 C                     0.008817
     12 H                     0.190370
     13 C                     0.360446
     14 C                     0.363175
     15 N                    -0.101555
     16 C                     0.359391
     17 C                     0.356305
     18 N                    -0.097918
     19 O                    -0.465246
     20 O                    -0.476869
     21 O                    -0.479990
     22 O                    -0.460702
     23 C                    -0.201234
     24 H                     0.141009
     25 H                     0.112428
     26 H                     0.112344
     27 C                    -0.196126
     28 H                     0.133630
     29 H                     0.112689
     30 H                     0.113544
     31 H                     0.214104
     32 C                    -0.000133
     33 S                     0.023681
     34 C                    -0.198574
     35 C                    -0.174571
     36 C                    -0.200967
     37 H                     0.188288
     38 H                     0.193122
     39 H                     0.212086
  ----------------------------------------
  Sum of atomic charges =     0.000000

                    Cartesian Multipole Moments
 -----------------------------------------------------------------
    Charge (ESU x 10^10)
                 0.0000
    Dipole Moment (Debye)
         X       1.2153      Y       1.0502      Z      -0.9302
       Tot       1.8561
    Quadrupole Moments (Debye-Ang)
        XX    -179.3950     XY       6.0300     YY    -168.1200
        XZ      -6.2418     YZ       1.0733     ZZ    -159.6841

 Total job time:  274.71s(wall), 8316.73s(cpu)
        *  Thank you very much for using Q-Chem.  Have a nice day.  *
