 Q-Chem 5.4, Q-Chem, Inc., Pleasanton, CA (2021)
 Q-Chem 5.4.0 for Intel X86 EM64T Linux

User input:
--------------------------------------------------------------
$molecule
0 1
C	-0.089263	-6.741404	-0.240927
C	-0.535973	-6.155638	-1.467886
C	0.281103	-5.791452	0.777972
C	-0.631036	-4.803786	-1.729742
H	-0.836458	-6.821518	-2.292903
C	0.181995	-4.378638	0.503614
C	-0.272725	-3.838032	-0.746756
C	0.539954	-3.413062	1.485437
C	-0.371053	-2.426473	-1.018915
C	0.446381	-2.059348	1.226557
C	-0.000000	-1.478216	-0.000000
H	0.747410	-1.394783	2.052413
C	0.772747	-6.187987	2.134128
C	1.029154	-3.798164	2.829820
N	1.110828	-5.170003	3.059182
C	-1.121728	-4.424987	-3.077731
C	-0.864069	-2.036627	-2.375694
N	-1.201928	-3.049156	-3.301101
O	0.903908	-7.353131	2.502830
O	1.345809	-2.986854	3.697078
O	-1.434422	-5.248946	-3.934752
O	-1.003943	-0.878829	-2.764177
C	1.592981	-5.563799	4.386939
H	1.607367	-6.664085	4.429822
H	0.924504	-5.147101	5.164489
H	2.605446	-5.148785	4.553486
C	-1.677308	-2.587487	-4.608481
H	-1.898089	-3.483329	-5.211969
H	-0.902337	-1.964972	-5.094624
H	-2.582098	-1.962932	-4.483092
H	-0.025963	-7.822318	-0.066080
C	0.000000	0.000000	0.000000
S	-0.000201	0.793171	1.580530
C	-0.000228	2.430885	0.904911
C	-0.000168	0.997990	-0.985400
C	-0.000267	2.318231	-0.493528
H	-0.000145	0.762343	-2.059934
H	-0.000339	3.199164	-1.152593
H	-0.000311	3.311566	1.556025
$end

$rem
JOBTYPE		SP
EXCHANGE	HF
CORRELATION	pRIMP2
BASIS		cc-pvtz
METHOD		rimp2
AUX_BASIS	rimp2-cc-pvtz
SOLVENT_METHOD	PCM
PURECART	11111
SYMMETRY	false
MEM_TOTAL	110000
SCF_CONVERGENCE = 6
THRESH=10
GUI = 2
$end

$solvent
dielectric 4.90
$end
--------------------------------------------------------------

             Standard Nuclear Orientation (Angstroms)
    I     Atom           X                Y                Z
 ----------------------------------------------------------------
    1      C      -0.0892630000    -6.7414040000    -0.2409270000
    2      C      -0.5359730000    -6.1556380000    -1.4678860000
    3      C       0.2811030000    -5.7914520000     0.7779720000
    4      C      -0.6310360000    -4.8037860000    -1.7297420000
    5      H      -0.8364580000    -6.8215180000    -2.2929030000
    6      C       0.1819950000    -4.3786380000     0.5036140000
    7      C      -0.2727250000    -3.8380320000    -0.7467560000
    8      C       0.5399540000    -3.4130620000     1.4854370000
    9      C      -0.3710530000    -2.4264730000    -1.0189150000
   10      C       0.4463810000    -2.0593480000     1.2265570000
   11      C       0.0000000000    -1.4782160000     0.0000000000
   12      H       0.7474100000    -1.3947830000     2.0524130000
   13      C       0.7727470000    -6.1879870000     2.1341280000
   14      C       1.0291540000    -3.7981640000     2.8298200000
   15      N       1.1108280000    -5.1700030000     3.0591820000
   16      C      -1.1217280000    -4.4249870000    -3.0777310000
   17      C      -0.8640690000    -2.0366270000    -2.3756940000
   18      N      -1.2019280000    -3.0491560000    -3.3011010000
   19      O       0.9039080000    -7.3531310000     2.5028300000
   20      O       1.3458090000    -2.9868540000     3.6970780000
   21      O      -1.4344220000    -5.2489460000    -3.9347520000
   22      O      -1.0039430000    -0.8788290000    -2.7641770000
   23      C       1.5929810000    -5.5637990000     4.3869390000
   24      H       1.6073670000    -6.6640850000     4.4298220000
   25      H       0.9245040000    -5.1471010000     5.1644890000
   26      H       2.6054460000    -5.1487850000     4.5534860000
   27      C      -1.6773080000    -2.5874870000    -4.6084810000
   28      H      -1.8980890000    -3.4833290000    -5.2119690000
   29      H      -0.9023370000    -1.9649720000    -5.0946240000
   30      H      -2.5820980000    -1.9629320000    -4.4830920000
   31      H      -0.0259630000    -7.8223180000    -0.0660800000
   32      C       0.0000000000     0.0000000000     0.0000000000
   33      S      -0.0002010000     0.7931710000     1.5805300000
   34      C      -0.0002280000     2.4308850000     0.9049110000
   35      C      -0.0001680000     0.9979900000    -0.9854000000
   36      C      -0.0002670000     2.3182310000    -0.4935280000
   37      H      -0.0001450000     0.7623430000    -2.0599340000
   38      H      -0.0003390000     3.1991640000    -1.1525930000
   39      H      -0.0003110000     3.3115660000     1.5560250000
 ----------------------------------------------------------------

   10   -1570.6887924897      7.58e-07  Convergence criterion met
 Total energy in the final basis set =    -1570.6887924897
        RIMP2         total energy =     -1575.3158406213 a.u.

                    Orbital Energies (a.u.)
 --------------------------------------------------------------

 Alpha MOs
 -- Occupied --
-91.9937 -20.5586 -20.5565 -20.5552 -20.5538 -15.6312 -15.6305 -11.3999
-11.3965 -11.3916 -11.3908 -11.3193 -11.3023 -11.3006 -11.2996 -11.2960
-11.2950 -11.2918 -11.2893 -11.2874 -11.2839 -11.2793 -11.2785 -11.2648
-11.2644 -11.2552 -11.2505  -8.9934  -6.6743  -6.6738  -6.6731  -1.4249
 -1.4246  -1.4042  -1.4035  -1.2675  -1.2652  -1.2171  -1.1772  -1.1443
 -1.1166  -1.0638  -1.0496  -0.9926  -0.9903  -0.9865  -0.9588  -0.9476
 -0.8972  -0.8793  -0.8786  -0.8614  -0.7966  -0.7794  -0.7729  -0.7620
 -0.7362  -0.7205  -0.7040  -0.6942  -0.6819  -0.6738  -0.6664  -0.6622
 -0.6562  -0.6417  -0.6370  -0.6336  -0.6284  -0.6129  -0.5900  -0.5839
 -0.5790  -0.5724  -0.5656  -0.5630  -0.5619  -0.5559  -0.5533  -0.5474
 -0.5366  -0.5258  -0.5236  -0.5169  -0.4826  -0.4691  -0.4662  -0.4632
 -0.4592  -0.4521  -0.4289  -0.4188  -0.4097  -0.3757  -0.3546  -0.3368
 -0.3008

          Ground-State Mulliken Net Atomic Charges

     Atom                 Charge (a.u.)
  ----------------------------------------
      1 C                    -0.142273
      2 C                    -0.109957
      3 C                    -0.033663
      4 C                    -0.004688
      5 H                     0.188303
      6 C                     0.000285
      7 C                     0.071690
      8 C                     0.040769
      9 C                    -0.064935
     10 C                    -0.179752
     11 C                     0.091746
     12 H                     0.167641
     13 C                     0.359154
     14 C                     0.367059
     15 N                    -0.101717
     16 C                     0.359878
     17 C                     0.375837
     18 N                    -0.092833
     19 O                    -0.464273
     20 O                    -0.476422
     21 O                    -0.482773
     22 O                    -0.476620
     23 C                    -0.201054
     24 H                     0.141050
     25 H                     0.112609
     26 H                     0.112466
     27 C                    -0.197449
     28 H                     0.134305
     29 H                     0.112266
     30 H                     0.112958
     31 H                     0.213014
     32 C                    -0.040015
     33 S                     0.017852
     34 C                    -0.187661
     35 C                    -0.110217
     36 C                    -0.232969
     37 H                     0.211738
     38 H                     0.191182
     39 H                     0.217468
  ----------------------------------------
  Sum of atomic charges =     0.000000

                    Cartesian Multipole Moments
 -----------------------------------------------------------------
    Charge (ESU x 10^10)
                -0.0000
    Dipole Moment (Debye)
         X       0.0703      Y       2.0048      Z      -0.8363
       Tot       2.1733
    Quadrupole Moments (Debye-Ang)
        XX    -166.4592     XY      -0.1550     YY    -167.0268
        XZ      -6.6731     YZ       0.7299     ZZ    -175.7146

 Total job time:  255.34s(wall), 7772.91s(cpu)
        *  Thank you very much for using Q-Chem.  Have a nice day.  *
