 Q-Chem 5.4, Q-Chem, Inc., Pleasanton, CA (2021)
 Q-Chem 5.4.0 for Intel X86 EM64T Linux

User input:
--------------------------------------------------------------
$molecule
0 1
C	0.253280	-6.741404	0.043160
C	1.539213	-6.155638	0.269777
C	-0.814295	-5.791452	-0.145543
C	1.813519	-4.803786	0.318377
H	2.403941	-6.821518	0.422058
C	-0.527140	-4.378638	-0.094194
C	0.783072	-3.838032	0.137191
C	-1.556403	-3.413062	-0.275104
C	1.067932	-2.426473	0.188116
C	-1.285420	-2.059348	-0.226701
C	0.000000	-1.478216	0.000000
H	-2.151147	-1.394783	-0.378931
C	-2.234582	-6.187987	-0.397845
C	-2.965273	-3.798164	-0.523637
N	-3.204744	-5.170003	-0.567586
C	3.226257	-4.424987	0.567421
C	2.489446	-2.036627	0.439541
N	3.459801	-3.049156	0.609650
O	-2.619468	-7.353131	-0.468608
O	-3.874668	-2.986854	-0.683034
O	4.124806	-5.248946	0.725131
O	2.895819	-0.878829	0.512648
C	-4.595691	-5.563799	-0.813908
H	-4.640022	-6.664085	-0.822891
H	-4.934830	-5.147101	-1.781600
H	-5.246157	-5.148785	-0.020360
C	4.829716	-2.587487	0.851649
H	5.462742	-3.483329	0.962191
H	4.863242	-1.964972	1.765865
H	5.173521	-1.962932	0.005383
H	0.070208	-7.822318	0.010555
C	0.000000	0.000000	0.000000
S	0.068929	0.790170	1.580530
C	0.211639	2.421655	0.904911
C	0.086813	0.994207	-0.985400
C	0.201782	2.309433	-0.493528
H	0.066299	0.759454	-2.059934
H	0.278488	3.187020	-1.152593
H	0.288312	3.298992	1.556025
$end

$rem
JOBTYPE		SP
EXCHANGE	HF
CORRELATION	pRIMP2
BASIS		cc-pvtz
METHOD		rimp2
AUX_BASIS	rimp2-cc-pvtz
SOLVENT_METHOD	PCM
PURECART	11111
SYMMETRY	false
MEM_TOTAL	110000
SCF_CONVERGENCE = 6
THRESH=10
GUI = 2
$end

$solvent
dielectric 4.90
$end
--------------------------------------------------------------

             Standard Nuclear Orientation (Angstroms)
    I     Atom           X                Y                Z
 ----------------------------------------------------------------
    1      C       0.2532800000    -6.7414040000     0.0431600000
    2      C       1.5392130000    -6.1556380000     0.2697770000
    3      C      -0.8142950000    -5.7914520000    -0.1455430000
    4      C       1.8135190000    -4.8037860000     0.3183770000
    5      H       2.4039410000    -6.8215180000     0.4220580000
    6      C      -0.5271400000    -4.3786380000    -0.0941940000
    7      C       0.7830720000    -3.8380320000     0.1371910000
    8      C      -1.5564030000    -3.4130620000    -0.2751040000
    9      C       1.0679320000    -2.4264730000     0.1881160000
   10      C      -1.2854200000    -2.0593480000    -0.2267010000
   11      C       0.0000000000    -1.4782160000     0.0000000000
   12      H      -2.1511470000    -1.3947830000    -0.3789310000
   13      C      -2.2345820000    -6.1879870000    -0.3978450000
   14      C      -2.9652730000    -3.7981640000    -0.5236370000
   15      N      -3.2047440000    -5.1700030000    -0.5675860000
   16      C       3.2262570000    -4.4249870000     0.5674210000
   17      C       2.4894460000    -2.0366270000     0.4395410000
   18      N       3.4598010000    -3.0491560000     0.6096500000
   19      O      -2.6194680000    -7.3531310000    -0.4686080000
   20      O      -3.8746680000    -2.9868540000    -0.6830340000
   21      O       4.1248060000    -5.2489460000     0.7251310000
   22      O       2.8958190000    -0.8788290000     0.5126480000
   23      C      -4.5956910000    -5.5637990000    -0.8139080000
   24      H      -4.6400220000    -6.6640850000    -0.8228910000
   25      H      -4.9348300000    -5.1471010000    -1.7816000000
   26      H      -5.2461570000    -5.1487850000    -0.0203600000
   27      C       4.8297160000    -2.5874870000     0.8516490000
   28      H       5.4627420000    -3.4833290000     0.9621910000
   29      H       4.8632420000    -1.9649720000     1.7658650000
   30      H       5.1735210000    -1.9629320000     0.0053830000
   31      H       0.0702080000    -7.8223180000     0.0105550000
   32      C       0.0000000000     0.0000000000     0.0000000000
   33      S       0.0689290000     0.7901700000     1.5805300000
   34      C       0.2116390000     2.4216550000     0.9049110000
   35      C       0.0868130000     0.9942070000    -0.9854000000
   36      C       0.2017820000     2.3094330000    -0.4935280000
   37      H       0.0662990000     0.7594540000    -2.0599340000
   38      H       0.2784880000     3.1870200000    -1.1525930000
   39      H       0.2883120000     3.2989920000     1.5560250000
 ----------------------------------------------------------------

   10   -1570.6894425219      7.00e-07  Convergence criterion met
 Total energy in the final basis set =    -1570.6894425219
        RIMP2         total energy =     -1575.3132691219 a.u.

                    Orbital Energies (a.u.)
 --------------------------------------------------------------

 Alpha MOs
 -- Occupied --
-91.9903 -20.5589 -20.5573 -20.5565 -20.5558 -15.6316 -15.6314 -11.4006
-11.3973 -11.3934 -11.3909 -11.3159 -11.3089 -11.3035 -11.3019 -11.3002
-11.2997 -11.2929 -11.2877 -11.2864 -11.2813 -11.2804 -11.2789 -11.2648
-11.2648 -11.2554 -11.2494  -8.9895  -6.6704  -6.6699  -6.6693  -1.4252
 -1.4246  -1.4045  -1.4037  -1.2680  -1.2657  -1.2186  -1.1740  -1.1447
 -1.1186  -1.0637  -1.0509  -0.9936  -0.9892  -0.9822  -0.9597  -0.9490
 -0.8978  -0.8803  -0.8783  -0.8619  -0.7957  -0.7778  -0.7736  -0.7595
 -0.7367  -0.7195  -0.7055  -0.6955  -0.6812  -0.6734  -0.6668  -0.6626
 -0.6576  -0.6429  -0.6382  -0.6345  -0.6308  -0.6130  -0.5855  -0.5848
 -0.5783  -0.5727  -0.5664  -0.5645  -0.5627  -0.5555  -0.5533  -0.5488
 -0.5348  -0.5269  -0.5198  -0.5161  -0.4837  -0.4711  -0.4667  -0.4609
 -0.4591  -0.4538  -0.4287  -0.4185  -0.4093  -0.3533  -0.3520  -0.3344
 -0.3233

          Ground-State Mulliken Net Atomic Charges

     Atom                 Charge (a.u.)
  ----------------------------------------
      1 C                    -0.128870
      2 C                    -0.107707
      3 C                    -0.044168
      4 C                    -0.000601
      5 H                     0.189049
      6 C                    -0.002603
      7 C                     0.071981
      8 C                     0.004073
      9 C                    -0.009077
     10 C                    -0.121868
     11 C                     0.058859
     12 H                     0.180813
     13 C                     0.361180
     14 C                     0.369910
     15 N                    -0.101958
     16 C                     0.359643
     17 C                     0.362506
     18 N                    -0.097056
     19 O                    -0.464661
     20 O                    -0.476338
     21 O                    -0.479492
     22 O                    -0.456959
     23 C                    -0.200960
     24 H                     0.141117
     25 H                     0.112363
     26 H                     0.112663
     27 C                    -0.195917
     28 H                     0.133691
     29 H                     0.113608
     30 H                     0.113261
     31 H                     0.214884
     32 C                    -0.046576
     33 S                     0.034841
     34 C                    -0.210443
     35 C                    -0.178643
     36 C                    -0.201721
     37 H                     0.189407
     38 H                     0.191122
     39 H                     0.210647
  ----------------------------------------
  Sum of atomic charges =     0.000000

                    Cartesian Multipole Moments
 -----------------------------------------------------------------
    Charge (ESU x 10^10)
                 0.0000
    Dipole Moment (Debye)
         X       0.3072      Y       0.6234      Z      -0.8963
       Tot       1.1342
    Quadrupole Moments (Debye-Ang)
        XX    -183.5713     XY      -0.1738     YY    -163.4266
        XZ      -3.2682     YZ       0.4162     ZZ    -158.1490

 Total job time:  259.75s(wall), 7548.24s(cpu)
        *  Thank you very much for using Q-Chem.  Have a nice day.  *
