 Q-Chem 5.4, Q-Chem, Inc., Pleasanton, CA (2021)
 Q-Chem 5.4.0 for Intel X86 EM64T Linux

User input:
--------------------------------------------------------------
$molecule
0 1
C	0.129743	-6.741404	0.221766
C	0.782726	-6.155638	1.352515
C	-0.411926	-5.791452	-0.717339
C	0.921816	-4.803786	1.593885
H	1.221908	-6.821518	2.112819
C	-0.266682	-4.378638	-0.464360
C	0.398255	-3.838032	0.688053
C	-0.789694	-3.413062	-1.369108
C	0.542349	-2.426473	0.939002
C	-0.652589	-2.059348	-1.130409
C	0.000000	-1.478216	0.000000
H	-1.092453	-1.394783	-1.891446
C	-1.131595	-6.187987	-1.967519
C	-1.504912	-3.798164	-2.608118
N	-1.625174	-5.170003	-2.819813
C	1.639129	-4.424987	2.836188
C	1.263477	-2.036627	2.189558
N	1.756898	-3.049156	3.042237
O	-1.324787	-7.353131	-2.307845
O	-1.967354	-2.986854	-3.407213
O	2.095892	-5.248946	3.625890
O	1.468685	-0.878829	2.547850
C	-2.330564	-5.563799	-4.043674
H	-2.352178	-6.664085	-4.083407
H	-1.807263	-5.147101	-4.925490
H	-3.356568	-5.148785	-4.031877
C	2.452080	-2.587487	4.247206
H	2.774302	-3.483329	4.803187
H	1.773301	-1.964972	4.860536
H	3.321351	-1.962932	3.966607
H	0.037043	-7.822318	0.060567
C	0.000000	0.000000	0.000000
S	0.137535	0.781156	1.580530
C	0.421895	2.393994	0.904911
C	0.173134	0.982857	-0.985400
C	0.402294	2.283058	-0.493528
H	0.132237	0.750786	-2.059934
H	0.555196	3.150621	-1.152593
H	0.574741	3.261310	1.556025
$end

$rem
JOBTYPE		SP
EXCHANGE	HF
CORRELATION	pRIMP2
BASIS		cc-pvtz
METHOD		rimp2
AUX_BASIS	rimp2-cc-pvtz
SOLVENT_METHOD	PCM
PURECART	11111
SYMMETRY	false
MEM_TOTAL	110000
SCF_CONVERGENCE = 6
THRESH=10
GUI = 2
$end

$solvent
dielectric 4.90
$end
--------------------------------------------------------------

             Standard Nuclear Orientation (Angstroms)
    I     Atom           X                Y                Z
 ----------------------------------------------------------------
    1      C       0.1297430000    -6.7414040000     0.2217660000
    2      C       0.7827260000    -6.1556380000     1.3525150000
    3      C      -0.4119260000    -5.7914520000    -0.7173390000
    4      C       0.9218160000    -4.8037860000     1.5938850000
    5      H       1.2219080000    -6.8215180000     2.1128190000
    6      C      -0.2666820000    -4.3786380000    -0.4643600000
    7      C       0.3982550000    -3.8380320000     0.6880530000
    8      C      -0.7896940000    -3.4130620000    -1.3691080000
    9      C       0.5423490000    -2.4264730000     0.9390020000
   10      C      -0.6525890000    -2.0593480000    -1.1304090000
   11      C       0.0000000000    -1.4782160000     0.0000000000
   12      H      -1.0924530000    -1.3947830000    -1.8914460000
   13      C      -1.1315950000    -6.1879870000    -1.9675190000
   14      C      -1.5049120000    -3.7981640000    -2.6081180000
   15      N      -1.6251740000    -5.1700030000    -2.8198130000
   16      C       1.6391290000    -4.4249870000     2.8361880000
   17      C       1.2634770000    -2.0366270000     2.1895580000
   18      N       1.7568980000    -3.0491560000     3.0422370000
   19      O      -1.3247870000    -7.3531310000    -2.3078450000
   20      O      -1.9673540000    -2.9868540000    -3.4072130000
   21      O       2.0958920000    -5.2489460000     3.6258900000
   22      O       1.4686850000    -0.8788290000     2.5478500000
   23      C      -2.3305640000    -5.5637990000    -4.0436740000
   24      H      -2.3521780000    -6.6640850000    -4.0834070000
   25      H      -1.8072630000    -5.1471010000    -4.9254900000
   26      H      -3.3565680000    -5.1487850000    -4.0318770000
   27      C       2.4520800000    -2.5874870000     4.2472060000
   28      H       2.7743020000    -3.4833290000     4.8031870000
   29      H       1.7733010000    -1.9649720000     4.8605360000
   30      H       3.3213510000    -1.9629320000     3.9666070000
   31      H       0.0370430000    -7.8223180000     0.0605670000
   32      C       0.0000000000     0.0000000000     0.0000000000
   33      S       0.1375350000     0.7811560000     1.5805300000
   34      C       0.4218950000     2.3939940000     0.9049110000
   35      C       0.1731340000     0.9828570000    -0.9854000000
   36      C       0.4022940000     2.2830580000    -0.4935280000
   37      H       0.1322370000     0.7507860000    -2.0599340000
   38      H       0.5551960000     3.1506210000    -1.1525930000
   39      H       0.5747410000     3.2613100000     1.5560250000
 ----------------------------------------------------------------

   10   -1570.6579378199      8.17e-07  Convergence criterion met
 Total energy in the final basis set =    -1570.6579378199
        RIMP2         total energy =     -1575.2944387352 a.u.

                    Orbital Energies (a.u.)
 --------------------------------------------------------------

 Alpha MOs
 -- Occupied --
-91.9807 -20.5588 -20.5567 -20.5543 -20.5531 -15.6314 -15.6311 -11.4002
-11.3979 -11.3919 -11.3910 -11.3193 -11.3025 -11.3015 -11.3005 -11.2962
-11.2951 -11.2871 -11.2870 -11.2842 -11.2796 -11.2789 -11.2778 -11.2650
-11.2647 -11.2589 -11.2419  -8.9806  -6.6610  -6.6602  -6.6596  -1.4278
 -1.4251  -1.4056  -1.4045  -1.2683  -1.2661  -1.2170  -1.1718  -1.1427
 -1.1169  -1.0618  -1.0496  -0.9930  -0.9881  -0.9806  -0.9592  -0.9471
 -0.8968  -0.8800  -0.8775  -0.8625  -0.7934  -0.7774  -0.7752  -0.7592
 -0.7324  -0.7216  -0.7031  -0.6930  -0.6866  -0.6739  -0.6669  -0.6627
 -0.6570  -0.6406  -0.6383  -0.6361  -0.6281  -0.6138  -0.5841  -0.5821
 -0.5797  -0.5715  -0.5688  -0.5650  -0.5639  -0.5559  -0.5550  -0.5489
 -0.5337  -0.5238  -0.5215  -0.5177  -0.4854  -0.4719  -0.4650  -0.4637
 -0.4570  -0.4359  -0.4247  -0.4161  -0.4091  -0.3717  -0.3370  -0.3287
 -0.2995

          Ground-State Mulliken Net Atomic Charges

     Atom                 Charge (a.u.)
  ----------------------------------------
      1 C                    -0.143073
      2 C                    -0.109198
      3 C                    -0.035188
      4 C                    -0.004855
      5 H                     0.188355
      6 C                    -0.003440
      7 C                     0.082759
      8 C                     0.002457
      9 C                    -0.082290
     10 C                    -0.151573
     11 C                     0.107773
     12 H                     0.183359
     13 C                     0.360502
     14 C                     0.367186
     15 N                    -0.101529
     16 C                     0.359540
     17 C                     0.396153
     18 N                    -0.094914
     19 O                    -0.464162
     20 O                    -0.476441
     21 O                    -0.481858
     22 O                    -0.458210
     23 C                    -0.201018
     24 H                     0.141171
     25 H                     0.112263
     26 H                     0.112502
     27 C                    -0.197506
     28 H                     0.134495
     29 H                     0.113125
     30 H                     0.113125
     31 H                     0.212962
     32 C                    -0.066546
     33 S                     0.087170
     34 C                    -0.199864
     35 C                    -0.146933
     36 C                    -0.242226
     37 H                     0.189896
     38 H                     0.186406
     39 H                     0.209625
  ----------------------------------------
  Sum of atomic charges =     0.000000

                    Cartesian Multipole Moments
 -----------------------------------------------------------------
    Charge (ESU x 10^10)
                 0.0000
    Dipole Moment (Debye)
         X       0.6830      Y       1.1549      Z      -0.1869
       Tot       1.3547
    Quadrupole Moments (Debye-Ang)
        XX    -168.6663     XY       1.8902     YY    -169.1423
        XZ      -7.7492     YZ       0.6661     ZZ    -171.4748

 Total job time:  287.94s(wall), 8975.65s(cpu)
        *  Thank you very much for using Q-Chem.  Have a nice day.  *
