 Q-Chem 5.4, Q-Chem, Inc., Pleasanton, CA (2021)
 Q-Chem 5.4.0 for Intel X86 EM64T Linux

User input:
--------------------------------------------------------------
$molecule
0 1
C	-0.164018	-6.741404	0.197767
C	-1.003240	-6.155638	1.198109
C	0.533192	-5.791452	-0.632428
C	-1.182482	-4.803786	1.411364
H	-1.567483	-6.821518	1.870845
C	0.345145	-4.378638	-0.409419
C	-0.510347	-3.838032	0.609565
C	1.016449	-3.413062	-1.210332
C	-0.696879	-2.426473	0.830799
C	0.839039	-2.059348	-0.999856
C	-0.000000	-1.478216	-0.000000
H	1.403737	-1.394783	-1.673483
C	1.461835	-6.187987	-1.736282
C	1.936119	-3.798164	-2.306183
N	2.093916	-5.170003	-2.491597
C	-2.104529	-4.424987	2.510310
C	-1.625377	-2.036627	1.936153
N	-2.257873	-3.049156	2.691451
O	1.715561	-7.353131	-2.034222
O	2.528858	-2.986854	-3.014044
O	-2.690385	-5.248946	3.209622
O	-1.891876	-0.878829	2.251529
C	3.002711	-5.563799	-3.573032
H	3.032655	-6.664085	-3.606932
H	4.010326	-5.147101	-3.382888
H	2.640711	-5.148785	-4.533125
C	-3.152408	-2.587487	3.756832
H	-3.564653	-3.483329	4.249778
H	-3.960905	-1.964972	3.328759
H	-2.591422	-1.962932	4.477709
H	-0.044245	-7.822318	0.055524
C	0.000000	0.000000	0.000000
S	-0.000201	0.793171	1.580530
C	-0.000228	2.430885	0.904911
C	-0.000168	0.997990	-0.985400
C	-0.000267	2.318231	-0.493528
H	-0.000145	0.762343	-2.059934
H	-0.000339	3.199164	-1.152593
H	-0.000311	3.311566	1.556025
$end

$rem
JOBTYPE		SP
EXCHANGE	HF
CORRELATION	pRIMP2
BASIS		cc-pvtz
METHOD		rimp2
AUX_BASIS	rimp2-cc-pvtz
SOLVENT_METHOD	PCM
PURECART	11111
SYMMETRY	false
MEM_TOTAL	110000
SCF_CONVERGENCE = 6
THRESH=10
GUI = 2
$end

$solvent
dielectric 4.90
$end
--------------------------------------------------------------

             Standard Nuclear Orientation (Angstroms)
    I     Atom           X                Y                Z
 ----------------------------------------------------------------
    1      C      -0.1640180000    -6.7414040000     0.1977670000
    2      C      -1.0032400000    -6.1556380000     1.1981090000
    3      C       0.5331920000    -5.7914520000    -0.6324280000
    4      C      -1.1824820000    -4.8037860000     1.4113640000
    5      H      -1.5674830000    -6.8215180000     1.8708450000
    6      C       0.3451450000    -4.3786380000    -0.4094190000
    7      C      -0.5103470000    -3.8380320000     0.6095650000
    8      C       1.0164490000    -3.4130620000    -1.2103320000
    9      C      -0.6968790000    -2.4264730000     0.8307990000
   10      C       0.8390390000    -2.0593480000    -0.9998560000
   11      C       0.0000000000    -1.4782160000     0.0000000000
   12      H       1.4037370000    -1.3947830000    -1.6734830000
   13      C       1.4618350000    -6.1879870000    -1.7362820000
   14      C       1.9361190000    -3.7981640000    -2.3061830000
   15      N       2.0939160000    -5.1700030000    -2.4915970000
   16      C      -2.1045290000    -4.4249870000     2.5103100000
   17      C      -1.6253770000    -2.0366270000     1.9361530000
   18      N      -2.2578730000    -3.0491560000     2.6914510000
   19      O       1.7155610000    -7.3531310000    -2.0342220000
   20      O       2.5288580000    -2.9868540000    -3.0140440000
   21      O      -2.6903850000    -5.2489460000     3.2096220000
   22      O      -1.8918760000    -0.8788290000     2.2515290000
   23      C       3.0027110000    -5.5637990000    -3.5730320000
   24      H       3.0326550000    -6.6640850000    -3.6069320000
   25      H       4.0103260000    -5.1471010000    -3.3828880000
   26      H       2.6407110000    -5.1487850000    -4.5331250000
   27      C      -3.1524080000    -2.5874870000     3.7568320000
   28      H      -3.5646530000    -3.4833290000     4.2497780000
   29      H      -3.9609050000    -1.9649720000     3.3287590000
   30      H      -2.5914220000    -1.9629320000     4.4777090000
   31      H      -0.0442450000    -7.8223180000     0.0555240000
   32      C       0.0000000000     0.0000000000     0.0000000000
   33      S      -0.0002010000     0.7931710000     1.5805300000
   34      C      -0.0002280000     2.4308850000     0.9049110000
   35      C      -0.0001680000     0.9979900000    -0.9854000000
   36      C      -0.0002670000     2.3182310000    -0.4935280000
   37      H      -0.0001450000     0.7623430000    -2.0599340000
   38      H      -0.0003390000     3.1991640000    -1.1525930000
   39      H      -0.0003110000     3.3115660000     1.5560250000
 ----------------------------------------------------------------

   10   -1570.6793806491      7.44e-07  Convergence criterion met
 Total energy in the final basis set =    -1570.6793806491
        RIMP2         total energy =     -1575.3094669806 a.u.

                    Orbital Energies (a.u.)
 --------------------------------------------------------------

 Alpha MOs
 -- Occupied --
-91.9837 -20.5588 -20.5567 -20.5544 -20.5532 -15.6315 -15.6304 -11.4003
-11.3961 -11.3920 -11.3910 -11.3181 -11.3033 -11.3027 -11.3011 -11.2975
-11.2966 -11.2903 -11.2868 -11.2852 -11.2818 -11.2801 -11.2783 -11.2648
-11.2644 -11.2594 -11.2457  -8.9833  -6.6639  -6.6633  -6.6629  -1.4252
 -1.4246  -1.4045  -1.4036  -1.2677  -1.2653  -1.2174  -1.1731  -1.1436
 -1.1173  -1.0626  -1.0499  -0.9930  -0.9884  -0.9818  -0.9591  -0.9478
 -0.8968  -0.8797  -0.8777  -0.8618  -0.7943  -0.7771  -0.7741  -0.7605
 -0.7331  -0.7190  -0.7042  -0.6941  -0.6834  -0.6740  -0.6665  -0.6623
 -0.6569  -0.6411  -0.6374  -0.6343  -0.6289  -0.6134  -0.5843  -0.5832
 -0.5790  -0.5707  -0.5673  -0.5660  -0.5642  -0.5556  -0.5541  -0.5485
 -0.5337  -0.5242  -0.5210  -0.5175  -0.4843  -0.4722  -0.4642  -0.4614
 -0.4575  -0.4452  -0.4276  -0.4178  -0.4092  -0.3690  -0.3408  -0.3366
 -0.3043

          Ground-State Mulliken Net Atomic Charges

     Atom                 Charge (a.u.)
  ----------------------------------------
      1 C                    -0.138564
      2 C                    -0.108696
      3 C                    -0.038490
      4 C                    -0.004510
      5 H                     0.188725
      6 C                     0.000045
      7 C                     0.078301
      8 C                     0.000082
      9 C                    -0.064548
     10 C                    -0.142629
     11 C                     0.108447
     12 H                     0.184510
     13 C                     0.360637
     14 C                     0.367674
     15 N                    -0.101575
     16 C                     0.359796
     17 C                     0.373364
     18 N                    -0.095252
     19 O                    -0.464360
     20 O                    -0.476614
     21 O                    -0.481656
     22 O                    -0.462612
     23 C                    -0.200985
     24 H                     0.141164
     25 H                     0.112479
     26 H                     0.112235
     27 C                    -0.196421
     28 H                     0.133893
     29 H                     0.113045
     30 H                     0.112914
     31 H                     0.213614
     32 C                    -0.054720
     33 S                     0.072960
     34 C                    -0.204472
     35 C                    -0.167544
     36 C                    -0.222977
     37 H                     0.192727
     38 H                     0.188944
     39 H                     0.211071
  ----------------------------------------
  Sum of atomic charges =     0.000000

                    Cartesian Multipole Moments
 -----------------------------------------------------------------
    Charge (ESU x 10^10)
                 0.0000
    Dipole Moment (Debye)
         X      -0.2207      Y       1.2094      Z      -0.5607
       Tot       1.3512
    Quadrupole Moments (Debye-Ang)
        XX    -172.5384     XY       0.1238     YY    -166.8504
        XZ       9.5715     YZ       0.6367     ZZ    -168.8743

 Total job time:  249.86s(wall), 7655.30s(cpu)
        *  Thank you very much for using Q-Chem.  Have a nice day.  *
