 Q-Chem 5.4, Q-Chem, Inc., Pleasanton, CA (2021)
 Q-Chem 5.4.0 for Intel X86 EM64T Linux

User input:
--------------------------------------------------------------
$molecule
0 1
C	0.241938	-6.741404	0.086486
C	1.468983	-6.155638	0.532960
C	-0.776651	-5.791452	-0.284733
C	1.730681	-4.803786	0.628455
H	2.294130	-6.821518	0.833086
C	-0.502775	-4.378638	-0.184300
C	0.747353	-3.838032	0.271086
C	-1.484986	-3.413062	-0.541191
C	1.019042	-2.426473	0.370703
C	-1.226525	-2.059348	-0.446468
C	-0.000000	-1.478216	-0.000000
H	-2.052666	-1.394783	-0.746717
C	-2.131549	-6.187987	-0.779832
C	-2.829295	-3.798164	-1.030596
N	-3.057496	-5.170003	-1.115461
C	3.078712	-4.424987	1.119034
C	2.375300	-2.036627	0.865151
N	3.301374	-3.049156	1.201176
O	-2.498300	-7.353131	-0.916355
O	-3.697195	-2.986854	-1.345486
O	3.936224	-5.248946	1.430379
O	2.762805	-0.878829	1.007714
C	-4.384539	-5.563799	-1.599576
H	-4.426636	-6.664085	-1.616121
H	-4.550487	-5.147101	-2.611458
H	-5.162921	-5.148785	-0.931037
C	4.608454	-2.587487	1.677382
H	5.212668	-3.483329	1.896168
H	4.482719	-1.964972	2.583531
H	5.093988	-1.962932	0.903674
H	0.067309	-7.822318	0.022586
C	0.000000	0.000000	0.000000
S	0.271091	0.745405	1.580530
C	0.831198	2.284363	0.904911
C	0.341175	0.937861	-0.985400
C	0.792631	2.178516	-0.493528
H	0.260601	0.716417	-2.059934
H	1.093860	3.006347	-1.152593
H	1.132330	3.111961	1.556025
$end

$rem
JOBTYPE		SP
EXCHANGE	HF
CORRELATION	pRIMP2
BASIS		cc-pvtz
METHOD		rimp2
AUX_BASIS	rimp2-cc-pvtz
SOLVENT_METHOD	PCM
PURECART	11111
SYMMETRY	false
MEM_TOTAL	110000
SCF_CONVERGENCE = 6
THRESH=10
GUI = 2
$end

$solvent
dielectric 4.90
$end
--------------------------------------------------------------

             Standard Nuclear Orientation (Angstroms)
    I     Atom           X                Y                Z
 ----------------------------------------------------------------
    1      C       0.2419380000    -6.7414040000     0.0864860000
    2      C       1.4689830000    -6.1556380000     0.5329600000
    3      C      -0.7766510000    -5.7914520000    -0.2847330000
    4      C       1.7306810000    -4.8037860000     0.6284550000
    5      H       2.2941300000    -6.8215180000     0.8330860000
    6      C      -0.5027750000    -4.3786380000    -0.1843000000
    7      C       0.7473530000    -3.8380320000     0.2710860000
    8      C      -1.4849860000    -3.4130620000    -0.5411910000
    9      C       1.0190420000    -2.4264730000     0.3707030000
   10      C      -1.2265250000    -2.0593480000    -0.4464680000
   11      C       0.0000000000    -1.4782160000     0.0000000000
   12      H      -2.0526660000    -1.3947830000    -0.7467170000
   13      C      -2.1315490000    -6.1879870000    -0.7798320000
   14      C      -2.8292950000    -3.7981640000    -1.0305960000
   15      N      -3.0574960000    -5.1700030000    -1.1154610000
   16      C       3.0787120000    -4.4249870000     1.1190340000
   17      C       2.3753000000    -2.0366270000     0.8651510000
   18      N       3.3013740000    -3.0491560000     1.2011760000
   19      O      -2.4983000000    -7.3531310000    -0.9163550000
   20      O      -3.6971950000    -2.9868540000    -1.3454860000
   21      O       3.9362240000    -5.2489460000     1.4303790000
   22      O       2.7628050000    -0.8788290000     1.0077140000
   23      C      -4.3845390000    -5.5637990000    -1.5995760000
   24      H      -4.4266360000    -6.6640850000    -1.6161210000
   25      H      -4.5504870000    -5.1471010000    -2.6114580000
   26      H      -5.1629210000    -5.1487850000    -0.9310370000
   27      C       4.6084540000    -2.5874870000     1.6773820000
   28      H       5.2126680000    -3.4833290000     1.8961680000
   29      H       4.4827190000    -1.9649720000     2.5835310000
   30      H       5.0939880000    -1.9629320000     0.9036740000
   31      H       0.0673090000    -7.8223180000     0.0225860000
   32      C       0.0000000000     0.0000000000     0.0000000000
   33      S       0.2710910000     0.7454050000     1.5805300000
   34      C       0.8311980000     2.2843630000     0.9049110000
   35      C       0.3411750000     0.9378610000    -0.9854000000
   36      C       0.7926310000     2.1785160000    -0.4935280000
   37      H       0.2606010000     0.7164170000    -2.0599340000
   38      H       1.0938600000     3.0063470000    -1.1525930000
   39      H       1.1323300000     3.1119610000     1.5560250000
 ----------------------------------------------------------------

   10   -1570.6795343781      7.43e-07  Convergence criterion met
 Total energy in the final basis set =    -1570.6795343781
        RIMP2         total energy =     -1575.3073322783 a.u.

                    Orbital Energies (a.u.)
 --------------------------------------------------------------

 Alpha MOs
 -- Occupied --
-91.9865 -20.5586 -20.5561 -20.5549 -20.5548 -15.6312 -15.6303 -11.4002
-11.3953 -11.3925 -11.3903 -11.3150 -11.3064 -11.3029 -11.3011 -11.2988
-11.2985 -11.2873 -11.2866 -11.2855 -11.2834 -11.2806 -11.2768 -11.2646
-11.2644 -11.2590 -11.2486  -8.9860  -6.6668  -6.6662  -6.6657  -1.4249
 -1.4235  -1.4042  -1.4026  -1.2674  -1.2649  -1.2176  -1.1737  -1.1438
 -1.1175  -1.0626  -1.0499  -0.9930  -0.9885  -0.9819  -0.9591  -0.9486
 -0.8967  -0.8797  -0.8766  -0.8613  -0.7942  -0.7769  -0.7733  -0.7595
 -0.7354  -0.7189  -0.7051  -0.6948  -0.6805  -0.6727  -0.6662  -0.6620
 -0.6569  -0.6423  -0.6374  -0.6340  -0.6298  -0.6124  -0.5852  -0.5840
 -0.5774  -0.5722  -0.5662  -0.5640  -0.5628  -0.5552  -0.5530  -0.5484
 -0.5359  -0.5262  -0.5207  -0.5101  -0.4824  -0.4703  -0.4650  -0.4595
 -0.4570  -0.4520  -0.4279  -0.4181  -0.4089  -0.3563  -0.3468  -0.3345
 -0.3194

          Ground-State Mulliken Net Atomic Charges

     Atom                 Charge (a.u.)
  ----------------------------------------
      1 C                    -0.131307
      2 C                    -0.108090
      3 C                    -0.043120
      4 C                    -0.001131
      5 H                     0.188789
      6 C                    -0.005960
      7 C                     0.070091
      8 C                     0.013288
      9 C                    -0.001472
     10 C                    -0.146431
     11 C                     0.072864
     12 H                     0.179911
     13 C                     0.361047
     14 C                     0.367915
     15 N                    -0.101752
     16 C                     0.358307
     17 C                     0.368925
     18 N                    -0.095375
     19 O                    -0.464908
     20 O                    -0.476263
     21 O                    -0.480678
     22 O                    -0.455903
     23 C                    -0.200988
     24 H                     0.141005
     25 H                     0.112238
     26 H                     0.112585
     27 C                    -0.196329
     28 H                     0.133606
     29 H                     0.112872
     30 H                     0.112952
     31 H                     0.214413
     32 C                    -0.059691
     33 S                     0.038812
     34 C                    -0.197218
     35 C                    -0.181281
     36 C                    -0.203107
     37 H                     0.189852
     38 H                     0.191007
     39 H                     0.210527
  ----------------------------------------
  Sum of atomic charges =     0.000000

                    Cartesian Multipole Moments
 -----------------------------------------------------------------
    Charge (ESU x 10^10)
                 0.0000
    Dipole Moment (Debye)
         X       0.9689      Y       0.9273      Z      -0.8273
       Tot       1.5758
    Quadrupole Moments (Debye-Ang)
        XX    -180.8651     XY       2.9816     YY    -166.1757
        XZ      -5.9513     YZ       0.3001     ZZ    -159.8053

 Total job time:  259.33s(wall), 7949.18s(cpu)
        *  Thank you very much for using Q-Chem.  Have a nice day.  *
