 Q-Chem 5.4, Q-Chem, Inc., Pleasanton, CA (2021)
 Q-Chem 5.4.0 for Intel X86 EM64T Linux

User input:
--------------------------------------------------------------
$molecule
0 1
C	0.253280	-6.741404	0.043160
C	1.539213	-6.155638	0.269777
C	-0.814295	-5.791452	-0.145543
C	1.813519	-4.803786	0.318377
H	2.403941	-6.821518	0.422058
C	-0.527140	-4.378638	-0.094194
C	0.783072	-3.838032	0.137191
C	-1.556403	-3.413062	-0.275104
C	1.067932	-2.426473	0.188116
C	-1.285420	-2.059348	-0.226701
C	0.000000	-1.478216	0.000000
H	-2.151147	-1.394783	-0.378931
C	-2.234582	-6.187987	-0.397845
C	-2.965273	-3.798164	-0.523637
N	-3.204744	-5.170003	-0.567586
C	3.226257	-4.424987	0.567421
C	2.489446	-2.036627	0.439541
N	3.459801	-3.049156	0.609650
O	-2.619468	-7.353131	-0.468608
O	-3.874668	-2.986854	-0.683034
O	4.124806	-5.248946	0.725131
O	2.895819	-0.878829	0.512648
C	-4.595691	-5.563799	-0.813908
H	-4.640022	-6.664085	-0.822891
H	-4.934830	-5.147101	-1.781600
H	-5.246157	-5.148785	-0.020360
C	4.829716	-2.587487	0.851649
H	5.462742	-3.483329	0.962191
H	4.863242	-1.964972	1.765865
H	5.173521	-1.962932	0.005383
H	0.070208	-7.822318	0.010555
C	0.000000	0.000000	0.000000
S	0.205093	0.766196	1.580530
C	0.628939	2.348114	0.904911
C	0.258137	0.964028	-0.985400
C	0.599745	2.239309	-0.493528
H	0.197169	0.736404	-2.059934
H	0.827678	3.090243	-1.152593
H	0.856796	3.198808	1.556025
$end

$rem
JOBTYPE		SP
EXCHANGE	HF
CORRELATION	pRIMP2
BASIS		cc-pvtz
METHOD		rimp2
AUX_BASIS	rimp2-cc-pvtz
SOLVENT_METHOD	PCM
PURECART	11111
SYMMETRY	false
MEM_TOTAL	110000
SCF_CONVERGENCE = 6
THRESH=10
GUI = 2
$end

$solvent
dielectric 4.90
$end
--------------------------------------------------------------

             Standard Nuclear Orientation (Angstroms)
    I     Atom           X                Y                Z
 ----------------------------------------------------------------
    1      C       0.2532800000    -6.7414040000     0.0431600000
    2      C       1.5392130000    -6.1556380000     0.2697770000
    3      C      -0.8142950000    -5.7914520000    -0.1455430000
    4      C       1.8135190000    -4.8037860000     0.3183770000
    5      H       2.4039410000    -6.8215180000     0.4220580000
    6      C      -0.5271400000    -4.3786380000    -0.0941940000
    7      C       0.7830720000    -3.8380320000     0.1371910000
    8      C      -1.5564030000    -3.4130620000    -0.2751040000
    9      C       1.0679320000    -2.4264730000     0.1881160000
   10      C      -1.2854200000    -2.0593480000    -0.2267010000
   11      C       0.0000000000    -1.4782160000     0.0000000000
   12      H      -2.1511470000    -1.3947830000    -0.3789310000
   13      C      -2.2345820000    -6.1879870000    -0.3978450000
   14      C      -2.9652730000    -3.7981640000    -0.5236370000
   15      N      -3.2047440000    -5.1700030000    -0.5675860000
   16      C       3.2262570000    -4.4249870000     0.5674210000
   17      C       2.4894460000    -2.0366270000     0.4395410000
   18      N       3.4598010000    -3.0491560000     0.6096500000
   19      O      -2.6194680000    -7.3531310000    -0.4686080000
   20      O      -3.8746680000    -2.9868540000    -0.6830340000
   21      O       4.1248060000    -5.2489460000     0.7251310000
   22      O       2.8958190000    -0.8788290000     0.5126480000
   23      C      -4.5956910000    -5.5637990000    -0.8139080000
   24      H      -4.6400220000    -6.6640850000    -0.8228910000
   25      H      -4.9348300000    -5.1471010000    -1.7816000000
   26      H      -5.2461570000    -5.1487850000    -0.0203600000
   27      C       4.8297160000    -2.5874870000     0.8516490000
   28      H       5.4627420000    -3.4833290000     0.9621910000
   29      H       4.8632420000    -1.9649720000     1.7658650000
   30      H       5.1735210000    -1.9629320000     0.0053830000
   31      H       0.0702080000    -7.8223180000     0.0105550000
   32      C       0.0000000000     0.0000000000     0.0000000000
   33      S       0.2050930000     0.7661960000     1.5805300000
   34      C       0.6289390000     2.3481140000     0.9049110000
   35      C       0.2581370000     0.9640280000    -0.9854000000
   36      C       0.5997450000     2.2393090000    -0.4935280000
   37      H       0.1971690000     0.7364040000    -2.0599340000
   38      H       0.8276780000     3.0902430000    -1.1525930000
   39      H       0.8567960000     3.1988080000     1.5560250000
 ----------------------------------------------------------------

   10   -1570.6850482597      7.23e-07  Convergence criterion met
 Total energy in the final basis set =    -1570.6850482597
        RIMP2         total energy =     -1575.3104622637 a.u.

                    Orbital Energies (a.u.)
 --------------------------------------------------------------

 Alpha MOs
 -- Occupied --
-91.9893 -20.5587 -20.5565 -20.5562 -20.5554 -15.6314 -15.6309 -11.4004
-11.3965 -11.3930 -11.3906 -11.3151 -11.3080 -11.3033 -11.3015 -11.2997
-11.2993 -11.2897 -11.2873 -11.2859 -11.2820 -11.2811 -11.2777 -11.2647
-11.2646 -11.2567 -11.2492  -8.9886  -6.6695  -6.6690  -6.6684  -1.4250
 -1.4241  -1.4043  -1.4032  -1.2677  -1.2654  -1.2181  -1.1738  -1.1443
 -1.1181  -1.0631  -1.0505  -0.9933  -0.9889  -0.9821  -0.9594  -0.9489
 -0.8973  -0.8800  -0.8774  -0.8617  -0.7950  -0.7774  -0.7734  -0.7593
 -0.7365  -0.7192  -0.7054  -0.6953  -0.6807  -0.6729  -0.6665  -0.6624
 -0.6573  -0.6427  -0.6378  -0.6343  -0.6304  -0.6127  -0.5854  -0.5845
 -0.5779  -0.5726  -0.5662  -0.5643  -0.5624  -0.5553  -0.5530  -0.5486
 -0.5354  -0.5268  -0.5204  -0.5126  -0.4831  -0.4707  -0.4659  -0.4605
 -0.4581  -0.4531  -0.4284  -0.4183  -0.4091  -0.3534  -0.3504  -0.3337
 -0.3236

          Ground-State Mulliken Net Atomic Charges

     Atom                 Charge (a.u.)
  ----------------------------------------
      1 C                    -0.129272
      2 C                    -0.107774
      3 C                    -0.044241
      4 C                    -0.000610
      5 H                     0.188877
      6 C                    -0.004542
      7 C                     0.069792
      8 C                     0.010169
      9 C                     0.003603
     10 C                    -0.137717
     11 C                     0.069658
     12 H                     0.179401
     13 C                     0.361176
     14 C                     0.369247
     15 N                    -0.101820
     16 C                     0.358849
     17 C                     0.365253
     18 N                    -0.096070
     19 O                    -0.464775
     20 O                    -0.476199
     21 O                    -0.479902
     22 O                    -0.456766
     23 C                    -0.200981
     24 H                     0.141079
     25 H                     0.112310
     26 H                     0.112605
     27 C                    -0.196246
     28 H                     0.133646
     29 H                     0.113398
     30 H                     0.113071
     31 H                     0.214743
     32 C                    -0.056282
     33 S                     0.034944
     34 C                    -0.206472
     35 C                    -0.184094
     36 C                    -0.198640
     37 H                     0.188826
     38 H                     0.191018
     39 H                     0.210738
  ----------------------------------------
  Sum of atomic charges =     0.000000

                    Cartesian Multipole Moments
 -----------------------------------------------------------------
    Charge (ESU x 10^10)
                 0.0000
    Dipole Moment (Debye)
         X       0.7090      Y       0.7529      Z      -0.8965
       Tot       1.3686
    Quadrupole Moments (Debye-Ang)
        XX    -183.0559     XY       1.7994     YY    -164.5889
        XZ      -3.1184     YZ       0.4311     ZZ    -158.1216

 Total job time:  262.05s(wall), 7937.21s(cpu)
        *  Thank you very much for using Q-Chem.  Have a nice day.  *
