 Q-Chem 5.4, Q-Chem, Inc., Pleasanton, CA (2021)
 Q-Chem 5.4.0 for Intel X86 EM64T Linux

User input:
--------------------------------------------------------------
$molecule
0 1
C	-0.127184	-6.741404	0.223244
C	-0.779949	-6.155638	1.354118
C	0.415271	-5.791452	-0.715408
C	-0.919437	-4.803786	1.595259
H	-1.218801	-6.821518	2.114613
C	0.268806	-4.378638	-0.463133
C	-0.396744	-3.838032	0.688925
C	0.790835	-3.413062	-1.368449
C	-0.542026	-2.426473	0.939189
C	0.652669	-2.059348	-1.130363
C	-0.000000	-1.478216	-0.000000
H	1.091814	-1.394783	-1.891815
C	1.138124	-6.187987	-1.963749
C	1.506241	-3.798164	-2.607351
N	1.629443	-5.170003	-2.817348
C	-1.636646	-4.424987	2.837621
C	-1.264474	-2.036627	2.188982
N	-1.756205	-3.049156	3.042637
O	1.336258	-7.353131	-2.301222
O	1.967056	-2.986854	-3.407386
O	-2.092167	-5.248946	3.628041
O	-1.472160	-0.878829	2.545844
C	2.336642	-5.563799	-4.040164
H	2.360245	-6.664085	-4.078749
H	3.361968	-5.147101	-4.027880
H	1.813424	-5.148785	-4.922811
C	-2.452149	-2.587487	4.247167
H	-2.772531	-3.483329	4.804209
H	-3.322697	-1.964972	3.965991
H	-1.774507	-1.962932	4.859678
H	-0.033931	-7.822318	0.062364
C	0.000000	0.000000	0.000000
S	0.686805	0.396760	1.580530
C	2.105095	1.215640	0.904911
C	0.864201	0.499140	-0.985400
C	2.007514	1.159347	-0.493528
H	0.660136	0.381296	-2.059934
H	2.770388	1.599875	-1.152593
H	2.867745	1.656053	1.556025
$end

$rem
JOBTYPE		SP
EXCHANGE	HF
CORRELATION	pRIMP2
BASIS		cc-pvtz
METHOD		rimp2
AUX_BASIS	rimp2-cc-pvtz
SOLVENT_METHOD	PCM
PURECART	11111
SYMMETRY	false
MEM_TOTAL	110000
SCF_CONVERGENCE = 6
THRESH=10
GUI = 2
$end

$solvent
dielectric 4.90
$end
--------------------------------------------------------------

             Standard Nuclear Orientation (Angstroms)
    I     Atom           X                Y                Z
 ----------------------------------------------------------------
    1      C      -0.1271840000    -6.7414040000     0.2232440000
    2      C      -0.7799490000    -6.1556380000     1.3541180000
    3      C       0.4152710000    -5.7914520000    -0.7154080000
    4      C      -0.9194370000    -4.8037860000     1.5952590000
    5      H      -1.2188010000    -6.8215180000     2.1146130000
    6      C       0.2688060000    -4.3786380000    -0.4631330000
    7      C      -0.3967440000    -3.8380320000     0.6889250000
    8      C       0.7908350000    -3.4130620000    -1.3684490000
    9      C      -0.5420260000    -2.4264730000     0.9391890000
   10      C       0.6526690000    -2.0593480000    -1.1303630000
   11      C       0.0000000000    -1.4782160000     0.0000000000
   12      H       1.0918140000    -1.3947830000    -1.8918150000
   13      C       1.1381240000    -6.1879870000    -1.9637490000
   14      C       1.5062410000    -3.7981640000    -2.6073510000
   15      N       1.6294430000    -5.1700030000    -2.8173480000
   16      C      -1.6366460000    -4.4249870000     2.8376210000
   17      C      -1.2644740000    -2.0366270000     2.1889820000
   18      N      -1.7562050000    -3.0491560000     3.0426370000
   19      O       1.3362580000    -7.3531310000    -2.3012220000
   20      O       1.9670560000    -2.9868540000    -3.4073860000
   21      O      -2.0921670000    -5.2489460000     3.6280410000
   22      O      -1.4721600000    -0.8788290000     2.5458440000
   23      C       2.3366420000    -5.5637990000    -4.0401640000
   24      H       2.3602450000    -6.6640850000    -4.0787490000
   25      H       3.3619680000    -5.1471010000    -4.0278800000
   26      H       1.8134240000    -5.1487850000    -4.9228110000
   27      C      -2.4521490000    -2.5874870000     4.2471670000
   28      H      -2.7725310000    -3.4833290000     4.8042090000
   29      H      -3.3226970000    -1.9649720000     3.9659910000
   30      H      -1.7745070000    -1.9629320000     4.8596780000
   31      H      -0.0339310000    -7.8223180000     0.0623640000
   32      C       0.0000000000     0.0000000000     0.0000000000
   33      S       0.6868050000     0.3967600000     1.5805300000
   34      C       2.1050950000     1.2156400000     0.9049110000
   35      C       0.8642010000     0.4991400000    -0.9854000000
   36      C       2.0075140000     1.1593470000    -0.4935280000
   37      H       0.6601360000     0.3812960000    -2.0599340000
   38      H       2.7703880000     1.5998750000    -1.1525930000
   39      H       2.8677450000     1.6560530000     1.5560250000
 ----------------------------------------------------------------

   11   -1570.6247056526      5.63e-07  Convergence criterion met
 Total energy in the final basis set =    -1570.6247056526
        RIMP2         total energy =     -1575.2655488268 a.u.

                    Orbital Energies (a.u.)
 --------------------------------------------------------------

 Alpha MOs
 -- Occupied --
-91.9940 -20.5578 -20.5564 -20.5524 -20.5500 -15.6305 -15.6268 -11.3987
-11.3911 -11.3901 -11.3878 -11.3191 -11.3093 -11.2997 -11.2963 -11.2889
-11.2888 -11.2852 -11.2844 -11.2828 -11.2782 -11.2760 -11.2702 -11.2701
-11.2644 -11.2624 -11.2567  -8.9936  -6.6740  -6.6732  -6.6728  -1.4243
 -1.4214  -1.4038  -1.4003  -1.2661  -1.2620  -1.2169  -1.1904  -1.1398
 -1.1122  -1.0622  -1.0460  -0.9986  -0.9934  -0.9895  -0.9566  -0.9445
 -0.8936  -0.8761  -0.8725  -0.8575  -0.7929  -0.7782  -0.7761  -0.7680
 -0.7324  -0.7149  -0.7065  -0.6920  -0.6842  -0.6743  -0.6648  -0.6602
 -0.6543  -0.6401  -0.6340  -0.6308  -0.6244  -0.6125  -0.5939  -0.5869
 -0.5795  -0.5719  -0.5678  -0.5643  -0.5627  -0.5544  -0.5535  -0.5471
 -0.5323  -0.5281  -0.5134  -0.5087  -0.4846  -0.4725  -0.4613  -0.4574
 -0.4523  -0.4440  -0.4253  -0.4161  -0.4065  -0.3737  -0.3569  -0.3333
 -0.3003

          Ground-State Mulliken Net Atomic Charges

     Atom                 Charge (a.u.)
  ----------------------------------------
      1 C                    -0.158342
      2 C                    -0.108099
      3 C                    -0.022364
      4 C                    -0.005508
      5 H                     0.186934
      6 C                    -0.022725
      7 C                     0.072895
      8 C                     0.035504
      9 C                    -0.098664
     10 C                    -0.186391
     11 C                     0.119591
     12 H                     0.174038
     13 C                     0.357895
     14 C                     0.362572
     15 N                    -0.100942
     16 C                     0.354253
     17 C                     0.373315
     18 N                    -0.094033
     19 O                    -0.464539
     20 O                    -0.480044
     21 O                    -0.487100
     22 O                    -0.484141
     23 C                    -0.201584
     24 H                     0.141235
     25 H                     0.111758
     26 H                     0.111932
     27 C                    -0.198084
     28 H                     0.133274
     29 H                     0.112239
     30 H                     0.111762
     31 H                     0.210574
     32 C                    -0.138581
     33 S                     0.097427
     34 C                    -0.134443
     35 C                    -0.055459
     36 C                    -0.234432
     37 H                     0.193841
     38 H                     0.195032
     39 H                     0.219405
  ----------------------------------------
  Sum of atomic charges =     0.000000

                    Cartesian Multipole Moments
 -----------------------------------------------------------------
    Charge (ESU x 10^10)
                 0.0000
    Dipole Moment (Debye)
         X       3.3955      Y       2.6784      Z      -1.1207
       Tot       4.4676
    Quadrupole Moments (Debye-Ang)
        XX    -159.5967     XY       5.4523     YY    -182.5079
        XZ      11.0812     YZ       1.6117     ZZ    -172.8116

 Total job time:  288.09s(wall), 8130.57s(cpu)
        *  Thank you very much for using Q-Chem.  Have a nice day.  *
