 Q-Chem 5.4, Q-Chem, Inc., Pleasanton, CA (2021)
 Q-Chem 5.4.0 for Intel X86 EM64T Linux

User input:
--------------------------------------------------------------
$molecule
0 1
C	-0.240927	-6.741404	0.089263
C	-1.467886	-6.155638	0.535973
C	0.777972	-5.791452	-0.281103
C	-1.729742	-4.803786	0.631036
H	-2.292903	-6.821518	0.836458
C	0.503614	-4.378638	-0.181995
C	-0.746756	-3.838032	0.272725
C	1.485437	-3.413062	-0.539954
C	-1.018915	-2.426473	0.371053
C	1.226557	-2.059348	-0.446381
C	0.000000	-1.478216	0.000000
H	2.052413	-1.394783	-0.747410
C	2.134128	-6.187987	-0.772747
C	2.829820	-3.798164	-1.029154
N	3.059182	-5.170003	-1.110828
C	-3.077731	-4.424987	1.121728
C	-2.375694	-2.036627	0.864069
N	-3.301101	-3.049156	1.201928
O	2.502830	-7.353131	-0.903908
O	3.697078	-2.986854	-1.345809
O	-3.934752	-5.248946	1.434422
O	-2.764177	-0.878829	1.003943
C	4.386939	-5.563799	-1.592981
H	4.429822	-6.664085	-1.607367
H	5.164489	-5.147101	-0.924504
H	4.553486	-5.148785	-2.605446
C	-4.608481	-2.587487	1.677308
H	-5.211969	-3.483329	1.898089
H	-5.094624	-1.964972	0.902337
H	-4.483092	-1.962932	2.582098
H	-0.066080	-7.822318	0.025963
C	0.000000	0.000000	0.000000
S	0.509686	0.607733	1.580530
C	1.562368	1.862312	0.904911
C	0.641367	0.764613	-0.985400
C	1.489926	1.776040	-0.493528
H	0.489914	0.584081	-2.059934
H	2.056124	2.450920	-1.152593
H	2.128395	2.537007	1.556025
$end

$rem
JOBTYPE		SP
EXCHANGE	HF
CORRELATION	pRIMP2
BASIS		cc-pvtz
METHOD		rimp2
AUX_BASIS	rimp2-cc-pvtz
SOLVENT_METHOD	PCM
PURECART	11111
SYMMETRY	false
MEM_TOTAL	110000
SCF_CONVERGENCE = 6
THRESH=10
GUI = 2
$end

$solvent
dielectric 4.90
$end
--------------------------------------------------------------

             Standard Nuclear Orientation (Angstroms)
    I     Atom           X                Y                Z
 ----------------------------------------------------------------
    1      C      -0.2409270000    -6.7414040000     0.0892630000
    2      C      -1.4678860000    -6.1556380000     0.5359730000
    3      C       0.7779720000    -5.7914520000    -0.2811030000
    4      C      -1.7297420000    -4.8037860000     0.6310360000
    5      H      -2.2929030000    -6.8215180000     0.8364580000
    6      C       0.5036140000    -4.3786380000    -0.1819950000
    7      C      -0.7467560000    -3.8380320000     0.2727250000
    8      C       1.4854370000    -3.4130620000    -0.5399540000
    9      C      -1.0189150000    -2.4264730000     0.3710530000
   10      C       1.2265570000    -2.0593480000    -0.4463810000
   11      C       0.0000000000    -1.4782160000     0.0000000000
   12      H       2.0524130000    -1.3947830000    -0.7474100000
   13      C       2.1341280000    -6.1879870000    -0.7727470000
   14      C       2.8298200000    -3.7981640000    -1.0291540000
   15      N       3.0591820000    -5.1700030000    -1.1108280000
   16      C      -3.0777310000    -4.4249870000     1.1217280000
   17      C      -2.3756940000    -2.0366270000     0.8640690000
   18      N      -3.3011010000    -3.0491560000     1.2019280000
   19      O       2.5028300000    -7.3531310000    -0.9039080000
   20      O       3.6970780000    -2.9868540000    -1.3458090000
   21      O      -3.9347520000    -5.2489460000     1.4344220000
   22      O      -2.7641770000    -0.8788290000     1.0039430000
   23      C       4.3869390000    -5.5637990000    -1.5929810000
   24      H       4.4298220000    -6.6640850000    -1.6073670000
   25      H       5.1644890000    -5.1471010000    -0.9245040000
   26      H       4.5534860000    -5.1487850000    -2.6054460000
   27      C      -4.6084810000    -2.5874870000     1.6773080000
   28      H      -5.2119690000    -3.4833290000     1.8980890000
   29      H      -5.0946240000    -1.9649720000     0.9023370000
   30      H      -4.4830920000    -1.9629320000     2.5820980000
   31      H      -0.0660800000    -7.8223180000     0.0259630000
   32      C       0.0000000000     0.0000000000     0.0000000000
   33      S       0.5096860000     0.6077330000     1.5805300000
   34      C       1.5623680000     1.8623120000     0.9049110000
   35      C       0.6413670000     0.7646130000    -0.9854000000
   36      C       1.4899260000     1.7760400000    -0.4935280000
   37      H       0.4899140000     0.5840810000    -2.0599340000
   38      H       2.0561240000     2.4509200000    -1.1525930000
   39      H       2.1283950000     2.5370070000     1.5560250000
 ----------------------------------------------------------------

   10   -1570.6676208341      8.82e-07  Convergence criterion met
 Total energy in the final basis set =    -1570.6676208341
        RIMP2         total energy =     -1575.2978991633 a.u.

                    Orbital Energies (a.u.)
 --------------------------------------------------------------

 Alpha MOs
 -- Occupied --
-91.9942 -20.5584 -20.5560 -20.5559 -20.5544 -15.6311 -15.6301 -11.3999
-11.3957 -11.3919 -11.3904 -11.3157 -11.3021 -11.3013 -11.2992 -11.2970
-11.2968 -11.2918 -11.2851 -11.2850 -11.2849 -11.2795 -11.2765 -11.2646
-11.2640 -11.2626 -11.2534  -8.9936  -6.6743  -6.6738  -6.6732  -1.4247
 -1.4233  -1.4040  -1.4024  -1.2672  -1.2647  -1.2173  -1.1815  -1.1429
 -1.1165  -1.0626  -1.0489  -0.9925  -0.9915  -0.9883  -0.9587  -0.9470
 -0.8967  -0.8786  -0.8762  -0.8591  -0.7946  -0.7763  -0.7736  -0.7640
 -0.7349  -0.7181  -0.7061  -0.6941  -0.6818  -0.6742  -0.6660  -0.6618
 -0.6564  -0.6417  -0.6372  -0.6333  -0.6287  -0.6126  -0.5850  -0.5846
 -0.5775  -0.5761  -0.5672  -0.5639  -0.5632  -0.5550  -0.5529  -0.5480
 -0.5336  -0.5268  -0.5206  -0.5094  -0.4829  -0.4736  -0.4665  -0.4604
 -0.4585  -0.4530  -0.4276  -0.4179  -0.4080  -0.3658  -0.3455  -0.3358
 -0.3180

          Ground-State Mulliken Net Atomic Charges

     Atom                 Charge (a.u.)
  ----------------------------------------
      1 C                    -0.135630
      2 C                    -0.110212
      3 C                    -0.038507
      4 C                     0.001824
      5 H                     0.188467
      6 C                    -0.003459
      7 C                     0.075675
      8 C                    -0.003258
      9 C                    -0.033643
     10 C                    -0.109109
     11 C                     0.029358
     12 H                     0.186990
     13 C                     0.359538
     14 C                     0.364383
     15 N                    -0.101419
     16 C                     0.357814
     17 C                     0.359443
     18 N                    -0.096844
     19 O                    -0.465079
     20 O                    -0.477652
     21 O                    -0.480845
     22 O                    -0.461801
     23 C                    -0.201389
     24 H                     0.141092
     25 H                     0.112430
     26 H                     0.112128
     27 C                    -0.196677
     28 H                     0.133393
     29 H                     0.113181
     30 H                     0.113088
     31 H                     0.213708
     32 C                    -0.011142
     33 S                     0.046164
     34 C                    -0.188734
     35 C                    -0.211418
     36 C                    -0.185067
     37 H                     0.194380
     38 H                     0.194866
     39 H                     0.213962
  ----------------------------------------
  Sum of atomic charges =     0.000000

                    Cartesian Multipole Moments
 -----------------------------------------------------------------
    Charge (ESU x 10^10)
                 0.0000
    Dipole Moment (Debye)
         X       1.7471      Y       1.2123      Z      -0.8932
       Tot       2.3065
    Quadrupole Moments (Debye-Ang)
        XX    -177.6267     XY       6.7920     YY    -170.6173
        XZ       7.3325     YZ       0.5008     ZZ    -159.5024

 Total job time:  280.90s(wall), 7853.64s(cpu)
        *  Thank you very much for using Q-Chem.  Have a nice day.  *
