 Q-Chem 5.4, Q-Chem, Inc., Pleasanton, CA (2021)
 Q-Chem 5.4.0 for Intel X86 EM64T Linux

User input:
--------------------------------------------------------------
$molecule
0 1
C	0.241938	-6.741404	0.086486
C	1.468983	-6.155638	0.532960
C	-0.776651	-5.791452	-0.284733
C	1.730681	-4.803786	0.628455
H	2.294130	-6.821518	0.833086
C	-0.502775	-4.378638	-0.184300
C	0.747353	-3.838032	0.271086
C	-1.484986	-3.413062	-0.541191
C	1.019042	-2.426473	0.370703
C	-1.226525	-2.059348	-0.446468
C	0.000000	-1.478216	0.000000
H	-2.052666	-1.394783	-0.746717
C	-2.131549	-6.187987	-0.779832
C	-2.829295	-3.798164	-1.030596
N	-3.057496	-5.170003	-1.115461
C	3.078712	-4.424987	1.119034
C	2.375300	-2.036627	0.865151
N	3.301374	-3.049156	1.201176
O	-2.498300	-7.353131	-0.916355
O	-3.697195	-2.986854	-1.345486
O	3.936224	-5.248946	1.430379
O	2.762805	-0.878829	1.007714
C	-4.384539	-5.563799	-1.599576
H	-4.426636	-6.664085	-1.616121
H	-4.550487	-5.147101	-2.611458
H	-5.162921	-5.148785	-0.931037
C	4.608454	-2.587487	1.677382
H	5.212668	-3.483329	1.896168
H	4.482719	-1.964972	2.583531
H	5.093988	-1.962932	0.903674
H	0.067309	-7.822318	0.022586
C	0.000000	0.000000	0.000000
S	0.205093	0.766196	1.580530
C	0.628939	2.348114	0.904911
C	0.258137	0.964028	-0.985400
C	0.599745	2.239309	-0.493528
H	0.197169	0.736404	-2.059934
H	0.827678	3.090243	-1.152593
H	0.856796	3.198808	1.556025
$end

$rem
JOBTYPE		SP
EXCHANGE	HF
CORRELATION	pRIMP2
BASIS		cc-pvtz
METHOD		rimp2
AUX_BASIS	rimp2-cc-pvtz
SOLVENT_METHOD	PCM
PURECART	11111
SYMMETRY	false
MEM_TOTAL	110000
SCF_CONVERGENCE = 6
THRESH=10
GUI = 2
$end

$solvent
dielectric 4.90
$end
--------------------------------------------------------------

             Standard Nuclear Orientation (Angstroms)
    I     Atom           X                Y                Z
 ----------------------------------------------------------------
    1      C       0.2419380000    -6.7414040000     0.0864860000
    2      C       1.4689830000    -6.1556380000     0.5329600000
    3      C      -0.7766510000    -5.7914520000    -0.2847330000
    4      C       1.7306810000    -4.8037860000     0.6284550000
    5      H       2.2941300000    -6.8215180000     0.8330860000
    6      C      -0.5027750000    -4.3786380000    -0.1843000000
    7      C       0.7473530000    -3.8380320000     0.2710860000
    8      C      -1.4849860000    -3.4130620000    -0.5411910000
    9      C       1.0190420000    -2.4264730000     0.3707030000
   10      C      -1.2265250000    -2.0593480000    -0.4464680000
   11      C       0.0000000000    -1.4782160000     0.0000000000
   12      H      -2.0526660000    -1.3947830000    -0.7467170000
   13      C      -2.1315490000    -6.1879870000    -0.7798320000
   14      C      -2.8292950000    -3.7981640000    -1.0305960000
   15      N      -3.0574960000    -5.1700030000    -1.1154610000
   16      C       3.0787120000    -4.4249870000     1.1190340000
   17      C       2.3753000000    -2.0366270000     0.8651510000
   18      N       3.3013740000    -3.0491560000     1.2011760000
   19      O      -2.4983000000    -7.3531310000    -0.9163550000
   20      O      -3.6971950000    -2.9868540000    -1.3454860000
   21      O       3.9362240000    -5.2489460000     1.4303790000
   22      O       2.7628050000    -0.8788290000     1.0077140000
   23      C      -4.3845390000    -5.5637990000    -1.5995760000
   24      H      -4.4266360000    -6.6640850000    -1.6161210000
   25      H      -4.5504870000    -5.1471010000    -2.6114580000
   26      H      -5.1629210000    -5.1487850000    -0.9310370000
   27      C       4.6084540000    -2.5874870000     1.6773820000
   28      H       5.2126680000    -3.4833290000     1.8961680000
   29      H       4.4827190000    -1.9649720000     2.5835310000
   30      H       5.0939880000    -1.9629320000     0.9036740000
   31      H       0.0673090000    -7.8223180000     0.0225860000
   32      C       0.0000000000     0.0000000000     0.0000000000
   33      S       0.2050930000     0.7661960000     1.5805300000
   34      C       0.6289390000     2.3481140000     0.9049110000
   35      C       0.2581370000     0.9640280000    -0.9854000000
   36      C       0.5997450000     2.2393090000    -0.4935280000
   37      H       0.1971690000     0.7364040000    -2.0599340000
   38      H       0.8276780000     3.0902430000    -1.1525930000
   39      H       0.8567960000     3.1988080000     1.5560250000
 ----------------------------------------------------------------

   10   -1570.6834802908      7.24e-07  Convergence criterion met
 Total energy in the final basis set =    -1570.6834802908
        RIMP2         total energy =     -1575.3099330543 a.u.

                    Orbital Energies (a.u.)
 --------------------------------------------------------------

 Alpha MOs
 -- Occupied --
-91.9872 -20.5587 -20.5563 -20.5553 -20.5551 -15.6313 -15.6306 -11.4004
-11.3959 -11.3927 -11.3906 -11.3154 -11.3071 -11.3031 -11.3014 -11.2992
-11.2988 -11.2894 -11.2869 -11.2859 -11.2823 -11.2808 -11.2775 -11.2647
-11.2645 -11.2579 -11.2487  -8.9867  -6.6674  -6.6669  -6.6664  -1.4250
 -1.4238  -1.4043  -1.4029  -1.2676  -1.2651  -1.2179  -1.1736  -1.1441
 -1.1179  -1.0629  -1.0502  -0.9931  -0.9887  -0.9819  -0.9593  -0.9487
 -0.8970  -0.8799  -0.8772  -0.8616  -0.7947  -0.7772  -0.7734  -0.7596
 -0.7356  -0.7191  -0.7052  -0.6950  -0.6807  -0.6730  -0.6664  -0.6622
 -0.6571  -0.6424  -0.6376  -0.6340  -0.6301  -0.6127  -0.5852  -0.5842
 -0.5777  -0.5722  -0.5662  -0.5642  -0.5631  -0.5553  -0.5531  -0.5485
 -0.5355  -0.5264  -0.5207  -0.5119  -0.4828  -0.4705  -0.4654  -0.4599
 -0.4576  -0.4526  -0.4281  -0.4182  -0.4091  -0.3562  -0.3482  -0.3349
 -0.3193

          Ground-State Mulliken Net Atomic Charges

     Atom                 Charge (a.u.)
  ----------------------------------------
      1 C                    -0.130710
      2 C                    -0.108048
      3 C                    -0.043308
      4 C                    -0.001174
      5 H                     0.188900
      6 C                    -0.004961
      7 C                     0.071475
      8 C                     0.010557
      9 C                    -0.005851
     10 C                    -0.141157
     11 C                     0.072848
     12 H                     0.180245
     13 C                     0.361089
     14 C                     0.368829
     15 N                    -0.101818
     16 C                     0.358755
     17 C                     0.368315
     18 N                    -0.095705
     19 O                    -0.464829
     20 O                    -0.476313
     21 O                    -0.480348
     22 O                    -0.455848
     23 C                    -0.200953
     24 H                     0.141032
     25 H                     0.112276
     26 H                     0.112623
     27 C                    -0.196237
     28 H                     0.133616
     29 H                     0.113040
     30 H                     0.113090
     31 H                     0.214544
     32 C                    -0.058212
     33 S                     0.039882
     34 C                    -0.202349
     35 C                    -0.182506
     36 C                    -0.202351
     37 H                     0.190097
     38 H                     0.190964
     39 H                     0.210502
  ----------------------------------------
  Sum of atomic charges =     0.000000

                    Cartesian Multipole Moments
 -----------------------------------------------------------------
    Charge (ESU x 10^10)
                 0.0000
    Dipole Moment (Debye)
         X       0.7412      Y       0.8448      Z      -0.8316
       Tot       1.3981
    Quadrupole Moments (Debye-Ang)
        XX    -181.3668     XY       2.0547     YY    -165.1937
        XZ      -6.0486     YZ       0.2948     ZZ    -159.8291

 Total job time:  266.65s(wall), 7736.80s(cpu)
        *  Thank you very much for using Q-Chem.  Have a nice day.  *
