 Q-Chem 5.4, Q-Chem, Inc., Pleasanton, CA (2021)
 Q-Chem 5.4.0 for Intel X86 EM64T Linux

User input:
--------------------------------------------------------------
$molecule
0 1
C	0.256927	-6.741404	-0.001478
C	1.562675	-6.155638	-0.001603
C	-0.827197	-5.791452	-0.001931
C	1.841253	-4.803786	-0.001374
H	2.440709	-6.821518	-0.001794
C	-0.535488	-4.378638	-0.001227
C	0.794999	-3.838032	-0.000872
C	-1.580529	-3.413062	-0.000658
C	1.084374	-2.426473	-0.000186
C	-1.305258	-2.059348	-0.000046
C	-0.000000	-1.478216	-0.000000
H	-2.184267	-1.394783	0.000369
C	-2.269719	-6.187987	-0.003770
C	-3.011152	-3.798164	-0.000767
N	-3.254617	-5.170003	-0.002465
C	3.275775	-4.424987	-0.001433
C	2.527951	-2.036627	0.000576
N	3.513104	-3.049156	-0.000400
O	-2.661046	-7.353131	-0.006623
O	-3.934410	-2.986854	0.000172
O	4.188059	-5.248946	-0.002151
O	2.940845	-0.878829	0.002006
C	-4.667206	-5.563799	-0.003509
H	-4.712423	-6.664085	-0.004658
H	-5.169231	-5.147101	-0.897610
H	-5.169992	-5.148785	0.890935
C	4.904229	-2.587487	0.000039
H	5.546833	-3.483329	-0.001022
H	5.095998	-1.964972	0.894545
H	5.095858	-1.962932	-0.893071
H	0.070974	-7.822318	-0.001797
C	0.000000	0.000000	0.000000
S	0.607475	0.509994	1.580530
C	1.862020	1.562717	0.904911
C	0.764397	0.641624	-0.985400
C	1.775697	1.490335	-0.493528
H	0.583895	0.490135	-2.059934
H	2.450484	2.056643	-1.152593
H	2.536607	2.128872	1.556025
$end

$rem
JOBTYPE		SP
EXCHANGE	HF
CORRELATION	pRIMP2
BASIS		cc-pvtz
METHOD		rimp2
AUX_BASIS	rimp2-cc-pvtz
SOLVENT_METHOD	PCM
PURECART	11111
SYMMETRY	false
MEM_TOTAL	110000
SCF_CONVERGENCE = 6
THRESH=10
GUI = 2
$end

$solvent
dielectric 4.90
$end
--------------------------------------------------------------

             Standard Nuclear Orientation (Angstroms)
    I     Atom           X                Y                Z
 ----------------------------------------------------------------
    1      C       0.2569270000    -6.7414040000    -0.0014780000
    2      C       1.5626750000    -6.1556380000    -0.0016030000
    3      C      -0.8271970000    -5.7914520000    -0.0019310000
    4      C       1.8412530000    -4.8037860000    -0.0013740000
    5      H       2.4407090000    -6.8215180000    -0.0017940000
    6      C      -0.5354880000    -4.3786380000    -0.0012270000
    7      C       0.7949990000    -3.8380320000    -0.0008720000
    8      C      -1.5805290000    -3.4130620000    -0.0006580000
    9      C       1.0843740000    -2.4264730000    -0.0001860000
   10      C      -1.3052580000    -2.0593480000    -0.0000460000
   11      C       0.0000000000    -1.4782160000     0.0000000000
   12      H      -2.1842670000    -1.3947830000     0.0003690000
   13      C      -2.2697190000    -6.1879870000    -0.0037700000
   14      C      -3.0111520000    -3.7981640000    -0.0007670000
   15      N      -3.2546170000    -5.1700030000    -0.0024650000
   16      C       3.2757750000    -4.4249870000    -0.0014330000
   17      C       2.5279510000    -2.0366270000     0.0005760000
   18      N       3.5131040000    -3.0491560000    -0.0004000000
   19      O      -2.6610460000    -7.3531310000    -0.0066230000
   20      O      -3.9344100000    -2.9868540000     0.0001720000
   21      O       4.1880590000    -5.2489460000    -0.0021510000
   22      O       2.9408450000    -0.8788290000     0.0020060000
   23      C      -4.6672060000    -5.5637990000    -0.0035090000
   24      H      -4.7124230000    -6.6640850000    -0.0046580000
   25      H      -5.1692310000    -5.1471010000    -0.8976100000
   26      H      -5.1699920000    -5.1487850000     0.8909350000
   27      C       4.9042290000    -2.5874870000     0.0000390000
   28      H       5.5468330000    -3.4833290000    -0.0010220000
   29      H       5.0959980000    -1.9649720000     0.8945450000
   30      H       5.0958580000    -1.9629320000    -0.8930710000
   31      H       0.0709740000    -7.8223180000    -0.0017970000
   32      C       0.0000000000     0.0000000000     0.0000000000
   33      S       0.6074750000     0.5099940000     1.5805300000
   34      C       1.8620200000     1.5627170000     0.9049110000
   35      C       0.7643970000     0.6416240000    -0.9854000000
   36      C       1.7756970000     1.4903350000    -0.4935280000
   37      H       0.5838950000     0.4901350000    -2.0599340000
   38      H       2.4504840000     2.0566430000    -1.1525930000
   39      H       2.5366070000     2.1288720000     1.5560250000
 ----------------------------------------------------------------

   11   -1570.6350208801      4.53e-07  Convergence criterion met
 Total energy in the final basis set =    -1570.6350208801
        RIMP2         total energy =     -1575.2749661349 a.u.

                    Orbital Energies (a.u.)
 --------------------------------------------------------------

 Alpha MOs
 -- Occupied --
-91.9863 -20.5574 -20.5544 -20.5531 -20.5503 -15.6297 -15.6283 -11.3989
-11.3912 -11.3906 -11.3883 -11.3112 -11.3010 -11.2987 -11.2977 -11.2954
-11.2949 -11.2920 -11.2837 -11.2818 -11.2785 -11.2693 -11.2672 -11.2642
-11.2637 -11.2636 -11.2443  -8.9861  -6.6669  -6.6662  -6.6658  -1.4235
 -1.4218  -1.4027  -1.4010  -1.2658  -1.2633  -1.2150  -1.1770  -1.1405
 -1.1142  -1.0592  -1.0466  -0.9915  -0.9866  -0.9839  -0.9577  -0.9474
 -0.8948  -0.8776  -0.8705  -0.8584  -0.7903  -0.7746  -0.7716  -0.7586
 -0.7347  -0.7169  -0.7038  -0.6936  -0.6788  -0.6693  -0.6648  -0.6608
 -0.6550  -0.6424  -0.6357  -0.6341  -0.6271  -0.6101  -0.5844  -0.5827
 -0.5745  -0.5742  -0.5660  -0.5629  -0.5565  -0.5536  -0.5517  -0.5476
 -0.5366  -0.5251  -0.5181  -0.4980  -0.4791  -0.4687  -0.4623  -0.4580
 -0.4538  -0.4391  -0.4261  -0.4172  -0.4072  -0.3567  -0.3393  -0.3274
 -0.3236

          Ground-State Mulliken Net Atomic Charges

     Atom                 Charge (a.u.)
  ----------------------------------------
      1 C                    -0.138144
      2 C                    -0.109773
      3 C                    -0.039920
      4 C                     0.000412
      5 H                     0.187608
      6 C                    -0.007781
      7 C                     0.069145
      8 C                     0.011847
      9 C                    -0.031040
     10 C                    -0.142398
     11 C                     0.069341
     12 H                     0.180487
     13 C                     0.360207
     14 C                     0.364308
     15 N                    -0.101287
     16 C                     0.355109
     17 C                     0.371537
     18 N                    -0.091521
     19 O                    -0.465768
     20 O                    -0.476709
     21 O                    -0.483863
     22 O                    -0.458093
     23 C                    -0.201501
     24 H                     0.140692
     25 H                     0.111981
     26 H                     0.112215
     27 C                    -0.196798
     28 H                     0.134259
     29 H                     0.111513
     30 H                     0.110831
     31 H                     0.213214
     32 C                    -0.120388
     33 S                     0.022824
     34 C                    -0.144980
     35 C                    -0.139164
     36 C                    -0.160594
     37 H                     0.189522
     38 H                     0.182838
     39 H                     0.209831
  ----------------------------------------
  Sum of atomic charges =     0.000000

                    Cartesian Multipole Moments
 -----------------------------------------------------------------
    Charge (ESU x 10^10)
                 0.0000
    Dipole Moment (Debye)
         X       2.7747      Y       1.4177      Z      -1.0142
       Tot       3.2768
    Quadrupole Moments (Debye-Ang)
        XX    -177.3741     XY       5.8798     YY    -175.9024
        XZ       0.9272     YZ       0.5111     ZZ    -157.2766

 Total job time:  279.21s(wall), 8688.08s(cpu)
        *  Thank you very much for using Q-Chem.  Have a nice day.  *
