 Q-Chem 5.4, Q-Chem, Inc., Pleasanton, CA (2021)
 Q-Chem 5.4.0 for Intel X86 EM64T Linux

User input:
--------------------------------------------------------------
$molecule
0 1
C	-0.223244	-6.741404	-0.127184
C	-1.354118	-6.155638	-0.779949
C	0.715408	-5.791452	0.415271
C	-1.595259	-4.803786	-0.919437
H	-2.114613	-6.821518	-1.218801
C	0.463133	-4.378638	0.268806
C	-0.688925	-3.838032	-0.396744
C	1.368449	-3.413062	0.790835
C	-0.939189	-2.426473	-0.542026
C	1.130363	-2.059348	0.652669
C	-0.000000	-1.478216	-0.000000
H	1.891815	-1.394783	1.091814
C	1.963749	-6.187987	1.138124
C	2.607351	-3.798164	1.506241
N	2.817348	-5.170003	1.629443
C	-2.837621	-4.424987	-1.636646
C	-2.188982	-2.036627	-1.264474
N	-3.042637	-3.049156	-1.756205
O	2.301222	-7.353131	1.336258
O	3.407386	-2.986854	1.967056
O	-3.628041	-5.248946	-2.092167
O	-2.545844	-0.878829	-1.472160
C	4.040164	-5.563799	2.336642
H	4.078749	-6.664085	2.360245
H	4.027880	-5.147101	3.361968
H	4.922811	-5.148785	1.813424
C	-4.247167	-2.587487	-2.452149
H	-4.804209	-3.483329	-2.772531
H	-3.965991	-1.964972	-3.322697
H	-4.859678	-1.962932	-1.774507
H	-0.062364	-7.822318	-0.033931
C	0.000000	0.000000	0.000000
S	0.686805	0.396760	1.580530
C	2.105095	1.215640	0.904911
C	0.864201	0.499140	-0.985400
C	2.007514	1.159347	-0.493528
H	0.660136	0.381296	-2.059934
H	2.770388	1.599875	-1.152593
H	2.867745	1.656053	1.556025
$end

$rem
JOBTYPE		SP
EXCHANGE	HF
CORRELATION	pRIMP2
BASIS		cc-pvtz
METHOD		rimp2
AUX_BASIS	rimp2-cc-pvtz
SOLVENT_METHOD	PCM
PURECART	11111
SYMMETRY	false
MEM_TOTAL	110000
SCF_CONVERGENCE = 6
THRESH=10
GUI = 2
$end

$solvent
dielectric 4.90
$end
--------------------------------------------------------------

             Standard Nuclear Orientation (Angstroms)
    I     Atom           X                Y                Z
 ----------------------------------------------------------------
    1      C      -0.2232440000    -6.7414040000    -0.1271840000
    2      C      -1.3541180000    -6.1556380000    -0.7799490000
    3      C       0.7154080000    -5.7914520000     0.4152710000
    4      C      -1.5952590000    -4.8037860000    -0.9194370000
    5      H      -2.1146130000    -6.8215180000    -1.2188010000
    6      C       0.4631330000    -4.3786380000     0.2688060000
    7      C      -0.6889250000    -3.8380320000    -0.3967440000
    8      C       1.3684490000    -3.4130620000     0.7908350000
    9      C      -0.9391890000    -2.4264730000    -0.5420260000
   10      C       1.1303630000    -2.0593480000     0.6526690000
   11      C       0.0000000000    -1.4782160000     0.0000000000
   12      H       1.8918150000    -1.3947830000     1.0918140000
   13      C       1.9637490000    -6.1879870000     1.1381240000
   14      C       2.6073510000    -3.7981640000     1.5062410000
   15      N       2.8173480000    -5.1700030000     1.6294430000
   16      C      -2.8376210000    -4.4249870000    -1.6366460000
   17      C      -2.1889820000    -2.0366270000    -1.2644740000
   18      N      -3.0426370000    -3.0491560000    -1.7562050000
   19      O       2.3012220000    -7.3531310000     1.3362580000
   20      O       3.4073860000    -2.9868540000     1.9670560000
   21      O      -3.6280410000    -5.2489460000    -2.0921670000
   22      O      -2.5458440000    -0.8788290000    -1.4721600000
   23      C       4.0401640000    -5.5637990000     2.3366420000
   24      H       4.0787490000    -6.6640850000     2.3602450000
   25      H       4.0278800000    -5.1471010000     3.3619680000
   26      H       4.9228110000    -5.1487850000     1.8134240000
   27      C      -4.2471670000    -2.5874870000    -2.4521490000
   28      H      -4.8042090000    -3.4833290000    -2.7725310000
   29      H      -3.9659910000    -1.9649720000    -3.3226970000
   30      H      -4.8596780000    -1.9629320000    -1.7745070000
   31      H      -0.0623640000    -7.8223180000    -0.0339310000
   32      C       0.0000000000     0.0000000000     0.0000000000
   33      S       0.6868050000     0.3967600000     1.5805300000
   34      C       2.1050950000     1.2156400000     0.9049110000
   35      C       0.8642010000     0.4991400000    -0.9854000000
   36      C       2.0075140000     1.1593470000    -0.4935280000
   37      H       0.6601360000     0.3812960000    -2.0599340000
   38      H       2.7703880000     1.5998750000    -1.1525930000
   39      H       2.8677450000     1.6560530000     1.5560250000
 ----------------------------------------------------------------

   11   -1570.6193867532      4.38e-07  Convergence criterion met
 Total energy in the final basis set =    -1570.6193867532
        RIMP2         total energy =     -1575.2607490115 a.u.

                    Orbital Energies (a.u.)
 --------------------------------------------------------------

 Alpha MOs
 -- Occupied --
-91.9920 -20.5569 -20.5544 -20.5521 -20.5520 -15.6296 -15.6277 -11.3982
-11.3920 -11.3895 -11.3884 -11.3171 -11.3077 -11.2990 -11.2953 -11.2921
-11.2921 -11.2918 -11.2825 -11.2811 -11.2804 -11.2759 -11.2749 -11.2709
-11.2639 -11.2629 -11.2591  -8.9930  -6.6736  -6.6728  -6.6727  -1.4232
 -1.4206  -1.4025  -1.3997  -1.2654  -1.2624  -1.2183  -1.1926  -1.1396
 -1.1129  -1.0625  -1.0460  -0.9997  -0.9937  -0.9902  -0.9570  -0.9444
 -0.8944  -0.8762  -0.8731  -0.8557  -0.7966  -0.7783  -0.7713  -0.7653
 -0.7363  -0.7179  -0.7070  -0.6930  -0.6809  -0.6735  -0.6643  -0.6601
 -0.6542  -0.6442  -0.6352  -0.6310  -0.6265  -0.6111  -0.5899  -0.5834
 -0.5800  -0.5785  -0.5675  -0.5622  -0.5599  -0.5547  -0.5522  -0.5469
 -0.5438  -0.5254  -0.5156  -0.4871  -0.4810  -0.4734  -0.4657  -0.4619
 -0.4580  -0.4507  -0.4256  -0.4167  -0.4058  -0.3764  -0.3454  -0.3292
 -0.3130

          Ground-State Mulliken Net Atomic Charges

     Atom                 Charge (a.u.)
  ----------------------------------------
      1 C                    -0.146256
      2 C                    -0.114255
      3 C                    -0.030514
      4 C                     0.002294
      5 H                     0.186922
      6 C                    -0.007015
      7 C                     0.070014
      8 C                     0.011235
      9 C                    -0.050076
     10 C                    -0.160487
     11 C                     0.059483
     12 H                     0.184649
     13 C                     0.358094
     14 C                     0.359813
     15 N                    -0.100491
     16 C                     0.355875
     17 C                     0.366378
     18 N                    -0.095756
     19 O                    -0.466644
     20 O                    -0.482375
     21 O                    -0.483671
     22 O                    -0.466695
     23 C                    -0.201932
     24 H                     0.140965
     25 H                     0.111875
     26 H                     0.111542
     27 C                    -0.197841
     28 H                     0.133047
     29 H                     0.111671
     30 H                     0.112766
     31 H                     0.211766
     32 C                    -0.100388
     33 S                     0.036913
     34 C                    -0.142941
     35 C                    -0.063553
     36 C                    -0.226841
     37 H                     0.198806
     38 H                     0.195137
     39 H                     0.218484
  ----------------------------------------
  Sum of atomic charges =     0.000000

                    Cartesian Multipole Moments
 -----------------------------------------------------------------
    Charge (ESU x 10^10)
                 0.0000
    Dipole Moment (Debye)
         X       3.3068      Y       2.0981      Z      -0.7462
       Tot       3.9867
    Quadrupole Moments (Debye-Ang)
        XX    -170.8948     XY       6.2062     YY    -180.9883
        XZ      -8.6610     YZ       0.3647     ZZ    -161.8399

 Total job time:  294.71s(wall), 8342.80s(cpu)
        *  Thank you very much for using Q-Chem.  Have a nice day.  *
