 Q-Chem 5.4, Q-Chem, Inc., Pleasanton, CA (2021)
 Q-Chem 5.4.0 for Intel X86 EM64T Linux

User input:
--------------------------------------------------------------
$molecule
0 1
C	0.043160	-6.741404	-0.253280
C	0.269777	-6.155638	-1.539213
C	-0.145543	-5.791452	0.814295
C	0.318377	-4.803786	-1.813519
H	0.422058	-6.821518	-2.403941
C	-0.094194	-4.378638	0.527140
C	0.137191	-3.838032	-0.783072
C	-0.275104	-3.413062	1.556403
C	0.188116	-2.426473	-1.067932
C	-0.226701	-2.059348	1.285420
C	-0.000000	-1.478216	-0.000000
H	-0.378931	-1.394783	2.151147
C	-0.397845	-6.187987	2.234582
C	-0.523637	-3.798164	2.965273
N	-0.567586	-5.170003	3.204744
C	0.567421	-4.424987	-3.226257
C	0.439541	-2.036627	-2.489446
N	0.609650	-3.049156	-3.459801
O	-0.468608	-7.353131	2.619468
O	-0.683034	-2.986854	3.874668
O	0.725131	-5.248946	-4.124806
O	0.512648	-0.878829	-2.895819
C	-0.813908	-5.563799	4.595691
H	-0.822891	-6.664085	4.640022
H	-1.781600	-5.147101	4.934830
H	-0.020360	-5.148785	5.246157
C	0.851649	-2.587487	-4.829716
H	0.962191	-3.483329	-5.462742
H	1.765865	-1.964972	-4.863242
H	0.005383	-1.962932	-5.173521
H	0.010555	-7.822318	-0.070208
C	0.000000	0.000000	0.000000
S	0.509686	0.607733	1.580530
C	1.562368	1.862312	0.904911
C	0.641367	0.764613	-0.985400
C	1.489926	1.776040	-0.493528
H	0.489914	0.584081	-2.059934
H	2.056124	2.450920	-1.152593
H	2.128395	2.537007	1.556025
$end

$rem
JOBTYPE		SP
EXCHANGE	HF
CORRELATION	pRIMP2
BASIS		cc-pvtz
METHOD		rimp2
AUX_BASIS	rimp2-cc-pvtz
SOLVENT_METHOD	PCM
PURECART	11111
SYMMETRY	false
MEM_TOTAL	110000
SCF_CONVERGENCE = 6
THRESH=10
GUI = 2
$end

$solvent
dielectric 4.90
$end
--------------------------------------------------------------

             Standard Nuclear Orientation (Angstroms)
    I     Atom           X                Y                Z
 ----------------------------------------------------------------
    1      C       0.0431600000    -6.7414040000    -0.2532800000
    2      C       0.2697770000    -6.1556380000    -1.5392130000
    3      C      -0.1455430000    -5.7914520000     0.8142950000
    4      C       0.3183770000    -4.8037860000    -1.8135190000
    5      H       0.4220580000    -6.8215180000    -2.4039410000
    6      C      -0.0941940000    -4.3786380000     0.5271400000
    7      C       0.1371910000    -3.8380320000    -0.7830720000
    8      C      -0.2751040000    -3.4130620000     1.5564030000
    9      C       0.1881160000    -2.4264730000    -1.0679320000
   10      C      -0.2267010000    -2.0593480000     1.2854200000
   11      C       0.0000000000    -1.4782160000     0.0000000000
   12      H      -0.3789310000    -1.3947830000     2.1511470000
   13      C      -0.3978450000    -6.1879870000     2.2345820000
   14      C      -0.5236370000    -3.7981640000     2.9652730000
   15      N      -0.5675860000    -5.1700030000     3.2047440000
   16      C       0.5674210000    -4.4249870000    -3.2262570000
   17      C       0.4395410000    -2.0366270000    -2.4894460000
   18      N       0.6096500000    -3.0491560000    -3.4598010000
   19      O      -0.4686080000    -7.3531310000     2.6194680000
   20      O      -0.6830340000    -2.9868540000     3.8746680000
   21      O       0.7251310000    -5.2489460000    -4.1248060000
   22      O       0.5126480000    -0.8788290000    -2.8958190000
   23      C      -0.8139080000    -5.5637990000     4.5956910000
   24      H      -0.8228910000    -6.6640850000     4.6400220000
   25      H      -1.7816000000    -5.1471010000     4.9348300000
   26      H      -0.0203600000    -5.1487850000     5.2461570000
   27      C       0.8516490000    -2.5874870000    -4.8297160000
   28      H       0.9621910000    -3.4833290000    -5.4627420000
   29      H       1.7658650000    -1.9649720000    -4.8632420000
   30      H       0.0053830000    -1.9629320000    -5.1735210000
   31      H       0.0105550000    -7.8223180000    -0.0702080000
   32      C       0.0000000000     0.0000000000     0.0000000000
   33      S       0.5096860000     0.6077330000     1.5805300000
   34      C       1.5623680000     1.8623120000     0.9049110000
   35      C       0.6413670000     0.7646130000    -0.9854000000
   36      C       1.4899260000     1.7760400000    -0.4935280000
   37      H       0.4899140000     0.5840810000    -2.0599340000
   38      H       2.0561240000     2.4509200000    -1.1525930000
   39      H       2.1283950000     2.5370070000     1.5560250000
 ----------------------------------------------------------------

   11   -1570.6470648426      5.14e-07  Convergence criterion met
 Total energy in the final basis set =    -1570.6470648426
        RIMP2         total energy =     -1575.2808556654 a.u.

                    Orbital Energies (a.u.)
 --------------------------------------------------------------

 Alpha MOs
 -- Occupied --
-91.9921 -20.5577 -20.5556 -20.5536 -20.5520 -15.6303 -15.6299 -11.3987
-11.3969 -11.3898 -11.3897 -11.3202 -11.3014 -11.3003 -11.2978 -11.2910
-11.2907 -11.2899 -11.2854 -11.2799 -11.2794 -11.2766 -11.2752 -11.2646
-11.2639 -11.2570 -11.2499  -8.9926  -6.6733  -6.6727  -6.6721  -1.4265
 -1.4239  -1.4040  -1.4033  -1.2668  -1.2648  -1.2154  -1.1817  -1.1419
 -1.1137  -1.0622  -1.0472  -0.9925  -0.9909  -0.9901  -0.9578  -0.9460
 -0.8961  -0.8776  -0.8759  -0.8605  -0.7955  -0.7788  -0.7728  -0.7644
 -0.7344  -0.7301  -0.7017  -0.6928  -0.6814  -0.6730  -0.6658  -0.6617
 -0.6548  -0.6403  -0.6382  -0.6336  -0.6259  -0.6123  -0.5905  -0.5829
 -0.5778  -0.5720  -0.5688  -0.5634  -0.5597  -0.5557  -0.5539  -0.5460
 -0.5331  -0.5236  -0.5218  -0.5143  -0.4794  -0.4648  -0.4635  -0.4619
 -0.4564  -0.4451  -0.4286  -0.4188  -0.4087  -0.3774  -0.3542  -0.3346
 -0.2976

          Ground-State Mulliken Net Atomic Charges

     Atom                 Charge (a.u.)
  ----------------------------------------
      1 C                    -0.156012
      2 C                    -0.111730
      3 C                    -0.025894
      4 C                    -0.001979
      5 H                     0.186791
      6 C                    -0.013802
      7 C                     0.078131
      8 C                     0.034126
      9 C                    -0.089017
     10 C                    -0.145100
     11 C                     0.053623
     12 H                     0.166624
     13 C                     0.359186
     14 C                     0.363568
     15 N                    -0.101306
     16 C                     0.357545
     17 C                     0.385966
     18 N                    -0.090875
     19 O                    -0.464464
     20 O                    -0.477428
     21 O                    -0.485094
     22 O                    -0.475792
     23 C                    -0.201463
     24 H                     0.141001
     25 H                     0.112219
     26 H                     0.112197
     27 C                    -0.199173
     28 H                     0.134663
     29 H                     0.111897
     30 H                     0.112537
     31 H                     0.211101
     32 C                    -0.028381
     33 S                     0.024251
     34 C                    -0.161377
     35 C                    -0.135904
     36 C                    -0.232014
     37 H                     0.238839
     38 H                     0.193789
     39 H                     0.218751
  ----------------------------------------
  Sum of atomic charges =     0.000000

                    Cartesian Multipole Moments
 -----------------------------------------------------------------
    Charge (ESU x 10^10)
                -0.0000
    Dipole Moment (Debye)
         X       2.0048      Y       2.8766      Z      -0.7929
       Tot       3.5948
    Quadrupole Moments (Debye-Ang)
        XX    -159.2417     XY       6.3491     YY    -177.1055
        XZ       4.2596     YZ      -0.1236     ZZ    -177.7299

 Total job time:  289.84s(wall), 9076.72s(cpu)
        *  Thank you very much for using Q-Chem.  Have a nice day.  *
