 Q-Chem 5.4, Q-Chem, Inc., Pleasanton, CA (2021)
 Q-Chem 5.4.0 for Intel X86 EM64T Linux

User input:
--------------------------------------------------------------
$molecule
0 1
C	0.197767	-6.741404	0.164018
C	1.198109	-6.155638	1.003240
C	-0.632428	-5.791452	-0.533192
C	1.411364	-4.803786	1.182482
H	1.870845	-6.821518	1.567483
C	-0.409419	-4.378638	-0.345145
C	0.609565	-3.838032	0.510347
C	-1.210332	-3.413062	-1.016449
C	0.830799	-2.426473	0.696879
C	-0.999856	-2.059348	-0.839039
C	-0.000000	-1.478216	-0.000000
H	-1.673483	-1.394783	-1.403737
C	-1.736282	-6.187987	-1.461835
C	-2.306183	-3.798164	-1.936119
N	-2.491597	-5.170003	-2.093916
C	2.510310	-4.424987	2.104529
C	1.936153	-2.036627	1.625377
N	2.691451	-3.049156	2.257873
O	-2.034222	-7.353131	-1.715561
O	-3.014044	-2.986854	-2.528858
O	3.209622	-5.248946	2.690385
O	2.251529	-0.878829	1.891876
C	-3.573032	-5.563799	-3.002711
H	-3.606932	-6.664085	-3.032655
H	-3.382888	-5.147101	-4.010326
H	-4.533125	-5.148785	-2.640711
C	3.756832	-2.587487	3.152408
H	4.249778	-3.483329	3.564653
H	3.328759	-1.964972	3.960905
H	4.477709	-1.962932	2.591422
H	0.055524	-7.822318	0.044245
C	0.000000	0.000000	0.000000
S	-0.000201	0.793171	1.580530
C	-0.000228	2.430885	0.904911
C	-0.000168	0.997990	-0.985400
C	-0.000267	2.318231	-0.493528
H	-0.000145	0.762343	-2.059934
H	-0.000339	3.199164	-1.152593
H	-0.000311	3.311566	1.556025
$end

$rem
JOBTYPE		SP
EXCHANGE	HF
CORRELATION	pRIMP2
BASIS		cc-pvtz
METHOD		rimp2
AUX_BASIS	rimp2-cc-pvtz
SOLVENT_METHOD	PCM
PURECART	11111
SYMMETRY	false
MEM_TOTAL	110000
SCF_CONVERGENCE = 6
THRESH=10
GUI = 2
$end

$solvent
dielectric 4.90
$end
--------------------------------------------------------------

             Standard Nuclear Orientation (Angstroms)
    I     Atom           X                Y                Z
 ----------------------------------------------------------------
    1      C       0.1977670000    -6.7414040000     0.1640180000
    2      C       1.1981090000    -6.1556380000     1.0032400000
    3      C      -0.6324280000    -5.7914520000    -0.5331920000
    4      C       1.4113640000    -4.8037860000     1.1824820000
    5      H       1.8708450000    -6.8215180000     1.5674830000
    6      C      -0.4094190000    -4.3786380000    -0.3451450000
    7      C       0.6095650000    -3.8380320000     0.5103470000
    8      C      -1.2103320000    -3.4130620000    -1.0164490000
    9      C       0.8307990000    -2.4264730000     0.6968790000
   10      C      -0.9998560000    -2.0593480000    -0.8390390000
   11      C       0.0000000000    -1.4782160000     0.0000000000
   12      H      -1.6734830000    -1.3947830000    -1.4037370000
   13      C      -1.7362820000    -6.1879870000    -1.4618350000
   14      C      -2.3061830000    -3.7981640000    -1.9361190000
   15      N      -2.4915970000    -5.1700030000    -2.0939160000
   16      C       2.5103100000    -4.4249870000     2.1045290000
   17      C       1.9361530000    -2.0366270000     1.6253770000
   18      N       2.6914510000    -3.0491560000     2.2578730000
   19      O      -2.0342220000    -7.3531310000    -1.7155610000
   20      O      -3.0140440000    -2.9868540000    -2.5288580000
   21      O       3.2096220000    -5.2489460000     2.6903850000
   22      O       2.2515290000    -0.8788290000     1.8918760000
   23      C      -3.5730320000    -5.5637990000    -3.0027110000
   24      H      -3.6069320000    -6.6640850000    -3.0326550000
   25      H      -3.3828880000    -5.1471010000    -4.0103260000
   26      H      -4.5331250000    -5.1487850000    -2.6407110000
   27      C       3.7568320000    -2.5874870000     3.1524080000
   28      H       4.2497780000    -3.4833290000     3.5646530000
   29      H       3.3287590000    -1.9649720000     3.9609050000
   30      H       4.4777090000    -1.9629320000     2.5914220000
   31      H       0.0555240000    -7.8223180000     0.0442450000
   32      C       0.0000000000     0.0000000000     0.0000000000
   33      S      -0.0002010000     0.7931710000     1.5805300000
   34      C      -0.0002280000     2.4308850000     0.9049110000
   35      C      -0.0001680000     0.9979900000    -0.9854000000
   36      C      -0.0002670000     2.3182310000    -0.4935280000
   37      H      -0.0001450000     0.7623430000    -2.0599340000
   38      H      -0.0003390000     3.1991640000    -1.1525930000
   39      H      -0.0003110000     3.3115660000     1.5560250000
 ----------------------------------------------------------------

   10   -1570.6851769481      7.26e-07  Convergence criterion met
 Total energy in the final basis set =    -1570.6851769481
        RIMP2         total energy =     -1575.3126179785 a.u.

                    Orbital Energies (a.u.)
 --------------------------------------------------------------

 Alpha MOs
 -- Occupied --
-91.9856 -20.5588 -20.5566 -20.5547 -20.5539 -15.6315 -15.6304 -11.4004
-11.3959 -11.3923 -11.3909 -11.3172 -11.3051 -11.3029 -11.3013 -11.2984
-11.2977 -11.2914 -11.2866 -11.2860 -11.2822 -11.2805 -11.2785 -11.2648
-11.2644 -11.2586 -11.2473  -8.9851  -6.6658  -6.6653  -6.6648  -1.4252
 -1.4239  -1.4045  -1.4030  -1.2677  -1.2651  -1.2177  -1.1735  -1.1440
 -1.1177  -1.0630  -1.0502  -0.9931  -0.9886  -0.9820  -0.9592  -0.9482
 -0.8970  -0.8798  -0.8779  -0.8616  -0.7948  -0.7772  -0.7738  -0.7606
 -0.7339  -0.7188  -0.7048  -0.6946  -0.6821  -0.6738  -0.6664  -0.6622
 -0.6570  -0.6417  -0.6375  -0.6337  -0.6295  -0.6132  -0.5846  -0.5838
 -0.5784  -0.5713  -0.5663  -0.5655  -0.5642  -0.5555  -0.5536  -0.5485
 -0.5338  -0.5250  -0.5207  -0.5167  -0.4835  -0.4717  -0.4649  -0.4595
 -0.4584  -0.4507  -0.4281  -0.4181  -0.4092  -0.3650  -0.3450  -0.3365
 -0.3089

          Ground-State Mulliken Net Atomic Charges

     Atom                 Charge (a.u.)
  ----------------------------------------
      1 C                    -0.135130
      2 C                    -0.108359
      3 C                    -0.040732
      4 C                    -0.003716
      5 H                     0.188901
      6 C                    -0.000403
      7 C                     0.075906
      8 C                     0.002034
      9 C                    -0.048444
     10 C                    -0.139090
     11 C                     0.096898
     12 H                     0.185071
     13 C                     0.360885
     14 C                     0.367934
     15 N                    -0.101609
     16 C                     0.359820
     17 C                     0.364617
     18 N                    -0.095068
     19 O                    -0.464503
     20 O                    -0.476528
     21 O                    -0.481121
     22 O                    -0.458206
     23 C                    -0.200952
     24 H                     0.141142
     25 H                     0.112255
     26 H                     0.112509
     27 C                    -0.196152
     28 H                     0.133689
     29 H                     0.112929
     30 H                     0.113139
     31 H                     0.214041
     32 C                    -0.051620
     33 S                     0.059640
     34 C                    -0.204584
     35 C                    -0.175833
     36 C                    -0.214309
     37 H                     0.193786
     38 H                     0.190085
     39 H                     0.211081
  ----------------------------------------
  Sum of atomic charges =     0.000000

                    Cartesian Multipole Moments
 -----------------------------------------------------------------
    Charge (ESU x 10^10)
                 0.0000
    Dipole Moment (Debye)
         X       0.1735      Y       1.0580      Z      -0.6929
       Tot       1.2766
    Quadrupole Moments (Debye-Ang)
        XX    -176.1229     XY      -0.2816     YY    -165.5995
        XZ      -9.6764     YZ       0.3889     ZZ    -165.6064

 Total job time:  250.58s(wall), 7923.50s(cpu)
        *  Thank you very much for using Q-Chem.  Have a nice day.  *
