 Q-Chem 5.4, Q-Chem, Inc., Pleasanton, CA (2021)
 Q-Chem 5.4.0 for Intel X86 EM64T Linux

User input:
--------------------------------------------------------------
$molecule
0 1
C	0.223244	-6.741404	0.127184
C	1.354118	-6.155638	0.779949
C	-0.715408	-5.791452	-0.415271
C	1.595259	-4.803786	0.919437
H	2.114613	-6.821518	1.218801
C	-0.463133	-4.378638	-0.268806
C	0.688925	-3.838032	0.396744
C	-1.368449	-3.413062	-0.790835
C	0.939189	-2.426473	0.542026
C	-1.130363	-2.059348	-0.652669
C	0.000000	-1.478216	0.000000
H	-1.891815	-1.394783	-1.091814
C	-1.963749	-6.187987	-1.138124
C	-2.607351	-3.798164	-1.506241
N	-2.817348	-5.170003	-1.629443
C	2.837621	-4.424987	1.636646
C	2.188982	-2.036627	1.264474
N	3.042637	-3.049156	1.756205
O	-2.301222	-7.353131	-1.336258
O	-3.407386	-2.986854	-1.967056
O	3.628041	-5.248946	2.092167
O	2.545844	-0.878829	1.472160
C	-4.040164	-5.563799	-2.336642
H	-4.078749	-6.664085	-2.360245
H	-4.027880	-5.147101	-3.361968
H	-4.922811	-5.148785	-1.813424
C	4.247167	-2.587487	2.452149
H	4.804209	-3.483329	2.772531
H	3.965991	-1.964972	3.322697
H	4.859678	-1.962932	1.774507
H	0.062364	-7.822318	0.033931
C	0.000000	0.000000	0.000000
S	0.137535	0.781156	1.580530
C	0.421895	2.393994	0.904911
C	0.173134	0.982857	-0.985400
C	0.402294	2.283058	-0.493528
H	0.132237	0.750786	-2.059934
H	0.555196	3.150621	-1.152593
H	0.574741	3.261310	1.556025
$end

$rem
JOBTYPE		SP
EXCHANGE	HF
CORRELATION	pRIMP2
BASIS		cc-pvtz
METHOD		rimp2
AUX_BASIS	rimp2-cc-pvtz
SOLVENT_METHOD	PCM
PURECART	11111
SYMMETRY	false
MEM_TOTAL	110000
SCF_CONVERGENCE = 6
THRESH=10
GUI = 2
$end

$solvent
dielectric 4.90
$end
--------------------------------------------------------------

             Standard Nuclear Orientation (Angstroms)
    I     Atom           X                Y                Z
 ----------------------------------------------------------------
    1      C       0.2232440000    -6.7414040000     0.1271840000
    2      C       1.3541180000    -6.1556380000     0.7799490000
    3      C      -0.7154080000    -5.7914520000    -0.4152710000
    4      C       1.5952590000    -4.8037860000     0.9194370000
    5      H       2.1146130000    -6.8215180000     1.2188010000
    6      C      -0.4631330000    -4.3786380000    -0.2688060000
    7      C       0.6889250000    -3.8380320000     0.3967440000
    8      C      -1.3684490000    -3.4130620000    -0.7908350000
    9      C       0.9391890000    -2.4264730000     0.5420260000
   10      C      -1.1303630000    -2.0593480000    -0.6526690000
   11      C       0.0000000000    -1.4782160000     0.0000000000
   12      H      -1.8918150000    -1.3947830000    -1.0918140000
   13      C      -1.9637490000    -6.1879870000    -1.1381240000
   14      C      -2.6073510000    -3.7981640000    -1.5062410000
   15      N      -2.8173480000    -5.1700030000    -1.6294430000
   16      C       2.8376210000    -4.4249870000     1.6366460000
   17      C       2.1889820000    -2.0366270000     1.2644740000
   18      N       3.0426370000    -3.0491560000     1.7562050000
   19      O      -2.3012220000    -7.3531310000    -1.3362580000
   20      O      -3.4073860000    -2.9868540000    -1.9670560000
   21      O       3.6280410000    -5.2489460000     2.0921670000
   22      O       2.5458440000    -0.8788290000     1.4721600000
   23      C      -4.0401640000    -5.5637990000    -2.3366420000
   24      H      -4.0787490000    -6.6640850000    -2.3602450000
   25      H      -4.0278800000    -5.1471010000    -3.3619680000
   26      H      -4.9228110000    -5.1487850000    -1.8134240000
   27      C       4.2471670000    -2.5874870000     2.4521490000
   28      H       4.8042090000    -3.4833290000     2.7725310000
   29      H       3.9659910000    -1.9649720000     3.3226970000
   30      H       4.8596780000    -1.9629320000     1.7745070000
   31      H       0.0623640000    -7.8223180000     0.0339310000
   32      C       0.0000000000     0.0000000000     0.0000000000
   33      S       0.1375350000     0.7811560000     1.5805300000
   34      C       0.4218950000     2.3939940000     0.9049110000
   35      C       0.1731340000     0.9828570000    -0.9854000000
   36      C       0.4022940000     2.2830580000    -0.4935280000
   37      H       0.1322370000     0.7507860000    -2.0599340000
   38      H       0.5551960000     3.1506210000    -1.1525930000
   39      H       0.5747410000     3.2613100000     1.5560250000
 ----------------------------------------------------------------

   10   -1570.6837070079      7.24e-07  Convergence criterion met
 Total energy in the final basis set =    -1570.6837070079
        RIMP2         total energy =     -1575.3107514298 a.u.

                    Orbital Energies (a.u.)
 --------------------------------------------------------------

 Alpha MOs
 -- Occupied --
-91.9857 -20.5588 -20.5564 -20.5549 -20.5542 -15.6314 -15.6303 -11.4004
-11.3956 -11.3925 -11.3907 -11.3162 -11.3063 -11.3030 -11.3013 -11.2989
-11.2983 -11.2903 -11.2865 -11.2862 -11.2822 -11.2806 -11.2779 -11.2647
-11.2644 -11.2583 -11.2478  -8.9853  -6.6660  -6.6655  -6.6650  -1.4251
 -1.4237  -1.4044  -1.4028  -1.2676  -1.2650  -1.2178  -1.1734  -1.1440
 -1.1178  -1.0629  -1.0502  -0.9931  -0.9885  -0.9817  -0.9592  -0.9484
 -0.8969  -0.8798  -0.8775  -0.8616  -0.7946  -0.7771  -0.7736  -0.7599
 -0.7347  -0.7190  -0.7049  -0.6948  -0.6812  -0.6733  -0.6663  -0.6621
 -0.6570  -0.6420  -0.6375  -0.6339  -0.6298  -0.6128  -0.5850  -0.5840
 -0.5779  -0.5716  -0.5661  -0.5642  -0.5641  -0.5553  -0.5533  -0.5484
 -0.5349  -0.5258  -0.5208  -0.5136  -0.4829  -0.4708  -0.4652  -0.4591
 -0.4580  -0.4523  -0.4281  -0.4182  -0.4091  -0.3605  -0.3456  -0.3359
 -0.3140

          Ground-State Mulliken Net Atomic Charges

     Atom                 Charge (a.u.)
  ----------------------------------------
      1 C                    -0.132646
      2 C                    -0.108261
      3 C                    -0.042137
      4 C                    -0.002251
      5 H                     0.188886
      6 C                    -0.004315
      7 C                     0.074636
      8 C                     0.007759
      9 C                    -0.025745
     10 C                    -0.142817
     11 C                     0.082775
     12 H                     0.182191
     13 C                     0.361105
     14 C                     0.368904
     15 N                    -0.101611
     16 C                     0.359083
     17 C                     0.370904
     18 N                    -0.095237
     19 O                    -0.464752
     20 O                    -0.476463
     21 O                    -0.480673
     22 O                    -0.455893
     23 C                    -0.200953
     24 H                     0.141095
     25 H                     0.112294
     26 H                     0.112553
     27 C                    -0.196195
     28 H                     0.133677
     29 H                     0.112913
     30 H                     0.113064
     31 H                     0.214247
     32 C                    -0.059941
     33 S                     0.048054
     34 C                    -0.201489
     35 C                    -0.177630
     36 C                    -0.208386
     37 H                     0.192145
     38 H                     0.190521
     39 H                     0.210591
  ----------------------------------------
  Sum of atomic charges =     0.000000

                    Cartesian Multipole Moments
 -----------------------------------------------------------------
    Charge (ESU x 10^10)
                 0.0000
    Dipole Moment (Debye)
         X       0.5683      Y       0.9276      Z      -0.7512
       Tot       1.3220
    Quadrupole Moments (Debye-Ang)
        XX    -179.1036     XY       1.4160     YY    -165.3543
        XZ      -8.2965     YZ       0.2959     ZZ    -162.4206

 Total job time:  274.38s(wall), 8022.85s(cpu)
        *  Thank you very much for using Q-Chem.  Have a nice day.  *
