 Q-Chem 5.4, Q-Chem, Inc., Pleasanton, CA (2021)
 Q-Chem 5.4.0 for Intel X86 EM64T Linux

User input:
--------------------------------------------------------------
$molecule
0 1
C	0.256927	-6.741404	-0.001478
C	1.562675	-6.155638	-0.001603
C	-0.827197	-5.791452	-0.001931
C	1.841253	-4.803786	-0.001374
H	2.440709	-6.821518	-0.001794
C	-0.535488	-4.378638	-0.001227
C	0.794999	-3.838032	-0.000872
C	-1.580529	-3.413062	-0.000658
C	1.084374	-2.426473	-0.000186
C	-1.305258	-2.059348	-0.000046
C	-0.000000	-1.478216	-0.000000
H	-2.184267	-1.394783	0.000369
C	-2.269719	-6.187987	-0.003770
C	-3.011152	-3.798164	-0.000767
N	-3.254617	-5.170003	-0.002465
C	3.275775	-4.424987	-0.001433
C	2.527951	-2.036627	0.000576
N	3.513104	-3.049156	-0.000400
O	-2.661046	-7.353131	-0.006623
O	-3.934410	-2.986854	0.000172
O	4.188059	-5.248946	-0.002151
O	2.940845	-0.878829	0.002006
C	-4.667206	-5.563799	-0.003509
H	-4.712423	-6.664085	-0.004658
H	-5.169231	-5.147101	-0.897610
H	-5.169992	-5.148785	0.890935
C	4.904229	-2.587487	0.000039
H	5.546833	-3.483329	-0.001022
H	5.095998	-1.964972	0.894545
H	5.095858	-1.962932	-0.893071
H	0.070974	-7.822318	-0.001797
C	0.000000	0.000000	0.000000
S	0.335026	0.718942	1.580530
C	1.027130	2.203226	0.904911
C	0.421617	0.904557	-0.985400
C	0.979485	2.101144	-0.493528
H	0.322049	0.690978	-2.059934
H	1.351718	2.899571	-1.152593
H	1.399246	3.001430	1.556025
$end

$rem
JOBTYPE		SP
EXCHANGE	HF
CORRELATION	pRIMP2
BASIS		cc-pvtz
METHOD		rimp2
AUX_BASIS	rimp2-cc-pvtz
SOLVENT_METHOD	PCM
PURECART	11111
SYMMETRY	false
MEM_TOTAL	110000
SCF_CONVERGENCE = 6
THRESH=10
GUI = 2
$end

$solvent
dielectric 4.90
$end
--------------------------------------------------------------

             Standard Nuclear Orientation (Angstroms)
    I     Atom           X                Y                Z
 ----------------------------------------------------------------
    1      C       0.2569270000    -6.7414040000    -0.0014780000
    2      C       1.5626750000    -6.1556380000    -0.0016030000
    3      C      -0.8271970000    -5.7914520000    -0.0019310000
    4      C       1.8412530000    -4.8037860000    -0.0013740000
    5      H       2.4407090000    -6.8215180000    -0.0017940000
    6      C      -0.5354880000    -4.3786380000    -0.0012270000
    7      C       0.7949990000    -3.8380320000    -0.0008720000
    8      C      -1.5805290000    -3.4130620000    -0.0006580000
    9      C       1.0843740000    -2.4264730000    -0.0001860000
   10      C      -1.3052580000    -2.0593480000    -0.0000460000
   11      C       0.0000000000    -1.4782160000     0.0000000000
   12      H      -2.1842670000    -1.3947830000     0.0003690000
   13      C      -2.2697190000    -6.1879870000    -0.0037700000
   14      C      -3.0111520000    -3.7981640000    -0.0007670000
   15      N      -3.2546170000    -5.1700030000    -0.0024650000
   16      C       3.2757750000    -4.4249870000    -0.0014330000
   17      C       2.5279510000    -2.0366270000     0.0005760000
   18      N       3.5131040000    -3.0491560000    -0.0004000000
   19      O      -2.6610460000    -7.3531310000    -0.0066230000
   20      O      -3.9344100000    -2.9868540000     0.0001720000
   21      O       4.1880590000    -5.2489460000    -0.0021510000
   22      O       2.9408450000    -0.8788290000     0.0020060000
   23      C      -4.6672060000    -5.5637990000    -0.0035090000
   24      H      -4.7124230000    -6.6640850000    -0.0046580000
   25      H      -5.1692310000    -5.1471010000    -0.8976100000
   26      H      -5.1699920000    -5.1487850000     0.8909350000
   27      C       4.9042290000    -2.5874870000     0.0000390000
   28      H       5.5468330000    -3.4833290000    -0.0010220000
   29      H       5.0959980000    -1.9649720000     0.8945450000
   30      H       5.0958580000    -1.9629320000    -0.8930710000
   31      H       0.0709740000    -7.8223180000    -0.0017970000
   32      C       0.0000000000     0.0000000000     0.0000000000
   33      S       0.3350260000     0.7189420000     1.5805300000
   34      C       1.0271300000     2.2032260000     0.9049110000
   35      C       0.4216170000     0.9045570000    -0.9854000000
   36      C       0.9794850000     2.1011440000    -0.4935280000
   37      H       0.3220490000     0.6909780000    -2.0599340000
   38      H       1.3517180000     2.8995710000    -1.1525930000
   39      H       1.3992460000     3.0014300000     1.5560250000
 ----------------------------------------------------------------

   10   -1570.6781166681      7.85e-07  Convergence criterion met
 Total energy in the final basis set =    -1570.6781166681
        RIMP2         total energy =     -1575.3055309838 a.u.

                    Orbital Energies (a.u.)
 --------------------------------------------------------------

 Alpha MOs
 -- Occupied --
-91.9900 -20.5584 -20.5558 -20.5557 -20.5550 -15.6309 -15.6304 -11.4000
-11.3956 -11.3926 -11.3900 -11.3137 -11.3063 -11.3027 -11.3007 -11.2988
-11.2986 -11.2866 -11.2848 -11.2846 -11.2842 -11.2805 -11.2758 -11.2645
-11.2644 -11.2579 -11.2490  -8.9894  -6.6702  -6.6696  -6.6691  -1.4246
 -1.4235  -1.4039  -1.4026  -1.2673  -1.2649  -1.2173  -1.1741  -1.1436
 -1.1173  -1.0622  -1.0496  -0.9929  -0.9885  -0.9825  -0.9590  -0.9485
 -0.8966  -0.8795  -0.8760  -0.8610  -0.7941  -0.7767  -0.7728  -0.7591
 -0.7365  -0.7185  -0.7051  -0.6949  -0.6798  -0.6719  -0.6661  -0.6620
 -0.6568  -0.6423  -0.6372  -0.6340  -0.6297  -0.6121  -0.5852  -0.5841
 -0.5771  -0.5731  -0.5660  -0.5639  -0.5610  -0.5550  -0.5525  -0.5484
 -0.5358  -0.5266  -0.5201  -0.5095  -0.4824  -0.4704  -0.4650  -0.4599
 -0.4573  -0.4519  -0.4278  -0.4179  -0.4086  -0.3546  -0.3477  -0.3316
 -0.3257

          Ground-State Mulliken Net Atomic Charges

     Atom                 Charge (a.u.)
  ----------------------------------------
      1 C                    -0.130380
      2 C                    -0.107795
      3 C                    -0.044448
      4 C                    -0.000155
      5 H                     0.188652
      6 C                    -0.006446
      7 C                     0.067937
      8 C                     0.017698
      9 C                     0.013492
     10 C                    -0.152353
     11 C                     0.073230
     12 H                     0.179239
     13 C                     0.361066
     14 C                     0.367285
     15 N                    -0.101635
     16 C                     0.357974
     17 C                     0.363061
     18 N                    -0.094932
     19 O                    -0.465127
     20 O                    -0.476113
     21 O                    -0.480399
     22 O                    -0.455978
     23 C                    -0.201048
     24 H                     0.140962
     25 H                     0.112258
     26 H                     0.112480
     27 C                    -0.196702
     28 H                     0.133786
     29 H                     0.113246
     30 H                     0.112475
     31 H                     0.214460
     32 C                    -0.061703
     33 S                     0.030363
     34 C                    -0.201139
     35 C                    -0.181967
     36 C                    -0.190510
     37 H                     0.187222
     38 H                     0.190382
     39 H                     0.211561
  ----------------------------------------
  Sum of atomic charges =     0.000000

                    Cartesian Multipole Moments
 -----------------------------------------------------------------
    Charge (ESU x 10^10)
                 0.0000
    Dipole Moment (Debye)
         X       1.1570      Y       0.9489      Z      -0.9665
       Tot       1.7814
    Quadrupole Moments (Debye-Ang)
        XX    -182.6107     XY       3.4717     YY    -166.5943
        XZ       0.3942     YZ       0.6388     ZZ    -157.4728

 Total job time:  292.35s(wall), 9453.05s(cpu)
        *  Thank you very much for using Q-Chem.  Have a nice day.  *
