 Q-Chem 5.4, Q-Chem, Inc., Pleasanton, CA (2021)
 Q-Chem 5.4.0 for Intel X86 EM64T Linux

User input:
--------------------------------------------------------------
$molecule
0 1
C	0.195868	-6.741404	-0.166281
C	1.196048	-6.155638	-1.005696
C	-0.634911	-5.791452	0.530233
C	1.409599	-4.803786	-1.184587
H	1.868538	-6.821518	-1.570232
C	-0.410996	-4.378638	0.343266
C	0.608444	-3.838032	-0.511683
C	-1.211179	-3.413062	1.015440
C	0.830559	-2.426473	-0.697165
C	-0.999915	-2.059348	0.838968
C	0.000000	-1.478216	0.000000
H	-1.673009	-1.394783	1.404302
C	-1.741129	-6.187987	1.456059
C	-2.307170	-3.798164	1.934944
N	-2.494766	-5.170003	2.090139
C	2.508468	-4.424987	-2.106725
C	1.936893	-2.036627	-1.624494
N	2.690936	-3.049156	-2.258486
O	-2.042736	-7.353131	1.705414
O	-3.013823	-2.986854	2.529122
O	3.206857	-5.248946	-2.693680
O	2.254108	-0.878829	-1.888802
C	-3.577543	-5.563799	2.997334
H	-3.612920	-6.664085	3.025519
H	-4.536833	-5.147101	2.635109
H	-3.387762	-5.148785	4.005702
C	3.756883	-2.587487	-3.152347
H	4.248464	-3.483329	-3.566218
H	4.478763	-1.964972	-2.590383
H	3.329599	-1.962932	-3.959687
H	0.053215	-7.822318	-0.046998
C	0.000000	0.000000	0.000000
S	0.396411	0.687007	1.580530
C	1.215245	2.105322	0.904911
C	0.498850	0.864369	-0.985400
C	1.158885	2.007781	-0.493528
H	0.381046	0.660280	-2.059934
H	1.599289	2.770727	-1.152593
H	1.655514	2.868056	1.556025
$end

$rem
JOBTYPE		SP
EXCHANGE	HF
CORRELATION	pRIMP2
BASIS		cc-pvtz
METHOD		rimp2
AUX_BASIS	rimp2-cc-pvtz
SOLVENT_METHOD	PCM
PURECART	11111
SYMMETRY	false
MEM_TOTAL	110000
SCF_CONVERGENCE = 6
THRESH=10
GUI = 2
$end

$solvent
dielectric 4.90
$end
--------------------------------------------------------------

             Standard Nuclear Orientation (Angstroms)
    I     Atom           X                Y                Z
 ----------------------------------------------------------------
    1      C       0.1958680000    -6.7414040000    -0.1662810000
    2      C       1.1960480000    -6.1556380000    -1.0056960000
    3      C      -0.6349110000    -5.7914520000     0.5302330000
    4      C       1.4095990000    -4.8037860000    -1.1845870000
    5      H       1.8685380000    -6.8215180000    -1.5702320000
    6      C      -0.4109960000    -4.3786380000     0.3432660000
    7      C       0.6084440000    -3.8380320000    -0.5116830000
    8      C      -1.2111790000    -3.4130620000     1.0154400000
    9      C       0.8305590000    -2.4264730000    -0.6971650000
   10      C      -0.9999150000    -2.0593480000     0.8389680000
   11      C       0.0000000000    -1.4782160000     0.0000000000
   12      H      -1.6730090000    -1.3947830000     1.4043020000
   13      C      -1.7411290000    -6.1879870000     1.4560590000
   14      C      -2.3071700000    -3.7981640000     1.9349440000
   15      N      -2.4947660000    -5.1700030000     2.0901390000
   16      C       2.5084680000    -4.4249870000    -2.1067250000
   17      C       1.9368930000    -2.0366270000    -1.6244940000
   18      N       2.6909360000    -3.0491560000    -2.2584860000
   19      O      -2.0427360000    -7.3531310000     1.7054140000
   20      O      -3.0138230000    -2.9868540000     2.5291220000
   21      O       3.2068570000    -5.2489460000    -2.6936800000
   22      O       2.2541080000    -0.8788290000    -1.8888020000
   23      C      -3.5775430000    -5.5637990000     2.9973340000
   24      H      -3.6129200000    -6.6640850000     3.0255190000
   25      H      -4.5368330000    -5.1471010000     2.6351090000
   26      H      -3.3877620000    -5.1487850000     4.0057020000
   27      C       3.7568830000    -2.5874870000    -3.1523470000
   28      H       4.2484640000    -3.4833290000    -3.5662180000
   29      H       4.4787630000    -1.9649720000    -2.5903830000
   30      H       3.3295990000    -1.9629320000    -3.9596870000
   31      H       0.0532150000    -7.8223180000    -0.0469980000
   32      C       0.0000000000     0.0000000000     0.0000000000
   33      S       0.3964110000     0.6870070000     1.5805300000
   34      C       1.2152450000     2.1053220000     0.9049110000
   35      C       0.4988500000     0.8643690000    -0.9854000000
   36      C       1.1588850000     2.0077810000    -0.4935280000
   37      H       0.3810460000     0.6602800000    -2.0599340000
   38      H       1.5992890000     2.7707270000    -1.1525930000
   39      H       1.6555140000     2.8680560000     1.5560250000
 ----------------------------------------------------------------

   10   -1570.6727229386      8.99e-07  Convergence criterion met
 Total energy in the final basis set =    -1570.6727229386
        RIMP2         total energy =     -1575.3014583149 a.u.

                    Orbital Energies (a.u.)
 --------------------------------------------------------------

 Alpha MOs
 -- Occupied --
-91.9927 -20.5581 -20.5556 -20.5539 -20.5523 -15.6306 -15.6297 -11.3995
-11.3950 -11.3914 -11.3898 -11.3155 -11.3017 -11.2999 -11.2989 -11.2955
-11.2951 -11.2926 -11.2852 -11.2838 -11.2790 -11.2779 -11.2752 -11.2645
-11.2641 -11.2621 -11.2499  -8.9921  -6.6729  -6.6724  -6.6718  -1.4243
 -1.4231  -1.4036  -1.4022  -1.2667  -1.2644  -1.2160  -1.1765  -1.1431
 -1.1156  -1.0617  -1.0483  -0.9921  -0.9891  -0.9858  -0.9584  -0.9476
 -0.8957  -0.8786  -0.8752  -0.8604  -0.7942  -0.7762  -0.7721  -0.7613
 -0.7359  -0.7182  -0.7043  -0.6935  -0.6803  -0.6718  -0.6657  -0.6615
 -0.6556  -0.6413  -0.6362  -0.6332  -0.6278  -0.6117  -0.5865  -0.5839
 -0.5766  -0.5757  -0.5649  -0.5622  -0.5595  -0.5548  -0.5511  -0.5479
 -0.5356  -0.5248  -0.5209  -0.5153  -0.4823  -0.4706  -0.4643  -0.4612
 -0.4580  -0.4523  -0.4274  -0.4177  -0.4080  -0.3675  -0.3480  -0.3352
 -0.3068

          Ground-State Mulliken Net Atomic Charges

     Atom                 Charge (a.u.)
  ----------------------------------------
      1 C                    -0.141508
      2 C                    -0.107912
      3 C                    -0.037840
      4 C                    -0.005894
      5 H                     0.187983
      6 C                    -0.014370
      7 C                     0.081747
      8 C                     0.023279
      9 C                    -0.036663
     10 C                    -0.182120
     11 C                     0.114150
     12 H                     0.179858
     13 C                     0.361056
     14 C                     0.364855
     15 N                    -0.101201
     16 C                     0.359375
     17 C                     0.378329
     18 N                    -0.093374
     19 O                    -0.464857
     20 O                    -0.476208
     21 O                    -0.482360
     22 O                    -0.470357
     23 C                    -0.201167
     24 H                     0.140916
     25 H                     0.112240
     26 H                     0.112367
     27 C                    -0.196957
     28 H                     0.134019
     29 H                     0.113004
     30 H                     0.111543
     31 H                     0.213030
     32 C                    -0.103902
     33 S                     0.038233
     34 C                    -0.188210
     35 C                    -0.117394
     36 C                    -0.196876
     37 H                     0.188309
     38 H                     0.189753
     39 H                     0.215125
  ----------------------------------------
  Sum of atomic charges =     0.000000

                    Cartesian Multipole Moments
 -----------------------------------------------------------------
    Charge (ESU x 10^10)
                 0.0000
    Dipole Moment (Debye)
         X       1.3906      Y       1.9148      Z      -1.1012
       Tot       2.6102
    Quadrupole Moments (Debye-Ang)
        XX    -173.3604     XY       5.2494     YY    -170.4098
        XZ      10.7381     YZ       0.8218     ZZ    -165.9914

 Total job time:  271.37s(wall), 8837.52s(cpu)
        *  Thank you very much for using Q-Chem.  Have a nice day.  *
