 Q-Chem 5.4, Q-Chem, Inc., Pleasanton, CA (2021)
 Q-Chem 5.4.0 for Intel X86 EM64T Linux

User input:
--------------------------------------------------------------
$molecule
0 1
C	-0.166281	-6.741404	-0.195868
C	-1.005696	-6.155638	-1.196048
C	0.530233	-5.791452	0.634911
C	-1.184587	-4.803786	-1.409599
H	-1.570232	-6.821518	-1.868538
C	0.343266	-4.378638	0.410996
C	-0.511683	-3.838032	-0.608444
C	1.015440	-3.413062	1.211179
C	-0.697165	-2.426473	-0.830559
C	0.838968	-2.059348	0.999915
C	-0.000000	-1.478216	-0.000000
H	1.404302	-1.394783	1.673009
C	1.456059	-6.187987	1.741129
C	1.934944	-3.798164	2.307170
N	2.090139	-5.170003	2.494766
C	-2.106725	-4.424987	-2.508468
C	-1.624494	-2.036627	-1.936893
N	-2.258486	-3.049156	-2.690936
O	1.705414	-7.353131	2.042736
O	2.529122	-2.986854	3.013823
O	-2.693680	-5.248946	-3.206857
O	-1.888802	-0.878829	-2.254108
C	2.997334	-5.563799	3.577543
H	3.025519	-6.664085	3.612920
H	2.635109	-5.147101	4.536833
H	4.005702	-5.148785	3.387762
C	-3.152347	-2.587487	-3.756883
H	-3.566218	-3.483329	-4.248464
H	-2.590383	-1.964972	-4.478763
H	-3.959687	-1.962932	-3.329599
H	-0.046998	-7.822318	-0.053215
C	0.000000	0.000000	0.000000
S	0.607475	0.509994	1.580530
C	1.862020	1.562717	0.904911
C	0.764397	0.641624	-0.985400
C	1.775697	1.490335	-0.493528
H	0.583895	0.490135	-2.059934
H	2.450484	2.056643	-1.152593
H	2.536607	2.128872	1.556025
$end

$rem
JOBTYPE		SP
EXCHANGE	HF
CORRELATION	pRIMP2
BASIS		cc-pvtz
METHOD		rimp2
AUX_BASIS	rimp2-cc-pvtz
SOLVENT_METHOD	PCM
PURECART	11111
SYMMETRY	false
MEM_TOTAL	110000
SCF_CONVERGENCE = 6
THRESH=10
GUI = 2
$end

$solvent
dielectric 4.90
$end
--------------------------------------------------------------

             Standard Nuclear Orientation (Angstroms)
    I     Atom           X                Y                Z
 ----------------------------------------------------------------
    1      C      -0.1662810000    -6.7414040000    -0.1958680000
    2      C      -1.0056960000    -6.1556380000    -1.1960480000
    3      C       0.5302330000    -5.7914520000     0.6349110000
    4      C      -1.1845870000    -4.8037860000    -1.4095990000
    5      H      -1.5702320000    -6.8215180000    -1.8685380000
    6      C       0.3432660000    -4.3786380000     0.4109960000
    7      C      -0.5116830000    -3.8380320000    -0.6084440000
    8      C       1.0154400000    -3.4130620000     1.2111790000
    9      C      -0.6971650000    -2.4264730000    -0.8305590000
   10      C       0.8389680000    -2.0593480000     0.9999150000
   11      C       0.0000000000    -1.4782160000     0.0000000000
   12      H       1.4043020000    -1.3947830000     1.6730090000
   13      C       1.4560590000    -6.1879870000     1.7411290000
   14      C       1.9349440000    -3.7981640000     2.3071700000
   15      N       2.0901390000    -5.1700030000     2.4947660000
   16      C      -2.1067250000    -4.4249870000    -2.5084680000
   17      C      -1.6244940000    -2.0366270000    -1.9368930000
   18      N      -2.2584860000    -3.0491560000    -2.6909360000
   19      O       1.7054140000    -7.3531310000     2.0427360000
   20      O       2.5291220000    -2.9868540000     3.0138230000
   21      O      -2.6936800000    -5.2489460000    -3.2068570000
   22      O      -1.8888020000    -0.8788290000    -2.2541080000
   23      C       2.9973340000    -5.5637990000     3.5775430000
   24      H       3.0255190000    -6.6640850000     3.6129200000
   25      H       2.6351090000    -5.1471010000     4.5368330000
   26      H       4.0057020000    -5.1487850000     3.3877620000
   27      C      -3.1523470000    -2.5874870000    -3.7568830000
   28      H      -3.5662180000    -3.4833290000    -4.2484640000
   29      H      -2.5903830000    -1.9649720000    -4.4787630000
   30      H      -3.9596870000    -1.9629320000    -3.3295990000
   31      H      -0.0469980000    -7.8223180000    -0.0532150000
   32      C       0.0000000000     0.0000000000     0.0000000000
   33      S       0.6074750000     0.5099940000     1.5805300000
   34      C       1.8620200000     1.5627170000     0.9049110000
   35      C       0.7643970000     0.6416240000    -0.9854000000
   36      C       1.7756970000     1.4903350000    -0.4935280000
   37      H       0.5838950000     0.4901350000    -2.0599340000
   38      H       2.4504840000     2.0566430000    -1.1525930000
   39      H       2.5366070000     2.1288720000     1.5560250000
 ----------------------------------------------------------------

   10   -1570.6336977038      9.60e-07  Convergence criterion met
 Total energy in the final basis set =    -1570.6336977038
        RIMP2         total energy =     -1575.2719647628 a.u.

                    Orbital Energies (a.u.)
 --------------------------------------------------------------

 Alpha MOs
 -- Occupied --
-91.9902 -20.5577 -20.5556 -20.5528 -20.5520 -15.6303 -15.6280 -11.3989
-11.3924 -11.3896 -11.3894 -11.3174 -11.3041 -11.3004 -11.2971 -11.2924
-11.2922 -11.2917 -11.2832 -11.2811 -11.2807 -11.2776 -11.2768 -11.2664
-11.2642 -11.2633 -11.2547  -8.9916  -6.6721  -6.6714  -6.6713  -1.4240
 -1.4211  -1.4033  -1.4002  -1.2660  -1.2627  -1.2165  -1.1881  -1.1407
 -1.1135  -1.0629  -1.0469  -0.9967  -0.9924  -0.9905  -0.9573  -0.9446
 -0.8951  -0.8769  -0.8749  -0.8570  -0.7970  -0.7798  -0.7712  -0.7637
 -0.7349  -0.7183  -0.7055  -0.6941  -0.6794  -0.6734  -0.6648  -0.6605
 -0.6547  -0.6428  -0.6352  -0.6312  -0.6267  -0.6119  -0.5882  -0.5846
 -0.5805  -0.5786  -0.5672  -0.5624  -0.5608  -0.5554  -0.5520  -0.5475
 -0.5425  -0.5256  -0.5204  -0.4943  -0.4818  -0.4698  -0.4654  -0.4612
 -0.4585  -0.4511  -0.4264  -0.4172  -0.4070  -0.3720  -0.3471  -0.3343
 -0.3061

          Ground-State Mulliken Net Atomic Charges

     Atom                 Charge (a.u.)
  ----------------------------------------
      1 C                    -0.147216
      2 C                    -0.109233
      3 C                    -0.029215
      4 C                    -0.002722
      5 H                     0.187563
      6 C                    -0.011987
      7 C                     0.070178
      8 C                     0.043322
      9 C                    -0.071378
     10 C                    -0.172061
     11 C                     0.064585
     12 H                     0.187264
     13 C                     0.357803
     14 C                     0.364024
     15 N                    -0.100822
     16 C                     0.356202
     17 C                     0.362503
     18 N                    -0.095139
     19 O                    -0.465145
     20 O                    -0.479097
     21 O                    -0.484659
     22 O                    -0.471927
     23 C                    -0.201593
     24 H                     0.141007
     25 H                     0.112136
     26 H                     0.111846
     27 C                    -0.197750
     28 H                     0.133271
     29 H                     0.111339
     30 H                     0.112884
     31 H                     0.211961
     32 C                    -0.072722
     33 S                     0.024575
     34 C                    -0.144391
     35 C                    -0.068715
     36 C                    -0.241999
     37 H                     0.203518
     38 H                     0.194065
     39 H                     0.217724
  ----------------------------------------
  Sum of atomic charges =     0.000000

                    Cartesian Multipole Moments
 -----------------------------------------------------------------
    Charge (ESU x 10^10)
                 0.0000
    Dipole Moment (Debye)
         X       2.8171      Y       2.1418      Z      -0.4911
       Tot       3.5727
    Quadrupole Moments (Debye-Ang)
        XX    -165.4733     XY       6.1914     YY    -177.3967
        XZ      -9.8929     YZ       0.2190     ZZ    -169.5139

 Total job time:  249.93s(wall), 7820.73s(cpu)
        *  Thank you very much for using Q-Chem.  Have a nice day.  *
