 Q-Chem 5.4, Q-Chem, Inc., Pleasanton, CA (2021)
 Q-Chem 5.4.0 for Intel X86 EM64T Linux

User input:
--------------------------------------------------------------
$molecule
0 1
C	0.252767	-6.741404	-0.046070
C	1.538656	-6.155638	-0.272935
C	-0.814966	-5.791452	0.141739
C	1.813042	-4.803786	-0.321083
H	2.403318	-6.821518	-0.425592
C	-0.527566	-4.378638	0.091779
C	0.782769	-3.838032	-0.138909
C	-1.556632	-3.413062	0.273808
C	1.067868	-2.426473	-0.188483
C	-1.285436	-2.059348	0.226610
C	-0.000000	-1.478216	-0.000000
H	-2.151019	-1.394783	0.379657
C	-2.235891	-6.187987	0.390420
C	-2.965540	-3.798164	0.522125
N	-3.205600	-5.170003	0.562731
C	3.225760	-4.424987	-0.570244
C	2.489646	-2.036627	-0.438407
N	3.459662	-3.049156	-0.610438
O	-2.621768	-7.353131	0.455563
O	-3.874608	-2.986854	0.683373
O	4.124059	-5.248946	-0.729367
O	2.896516	-0.878829	-0.508697
C	-4.596910	-5.563799	0.806996
H	-4.641640	-6.664085	0.813717
H	-5.246567	-5.147101	0.013655
H	-4.936739	-5.148785	1.775159
C	4.829729	-2.587487	-0.851572
H	5.462387	-3.483329	-0.964204
H	5.173914	-1.964972	-0.003956
H	4.863360	-1.962932	-1.764390
H	0.069584	-7.822318	-0.014094
C	0.000000	0.000000	0.000000
S	0.335026	0.718942	1.580530
C	1.027130	2.203226	0.904911
C	0.421617	0.904557	-0.985400
C	0.979485	2.101144	-0.493528
H	0.322049	0.690978	-2.059934
H	1.351718	2.899571	-1.152593
H	1.399246	3.001430	1.556025
$end

$rem
JOBTYPE		SP
EXCHANGE	HF
CORRELATION	pRIMP2
BASIS		cc-pvtz
METHOD		rimp2
AUX_BASIS	rimp2-cc-pvtz
SOLVENT_METHOD	PCM
PURECART	11111
SYMMETRY	false
MEM_TOTAL	110000
SCF_CONVERGENCE = 6
THRESH=10
GUI = 2
$end

$solvent
dielectric 4.90
$end
--------------------------------------------------------------

             Standard Nuclear Orientation (Angstroms)
    I     Atom           X                Y                Z
 ----------------------------------------------------------------
    1      C       0.2527670000    -6.7414040000    -0.0460700000
    2      C       1.5386560000    -6.1556380000    -0.2729350000
    3      C      -0.8149660000    -5.7914520000     0.1417390000
    4      C       1.8130420000    -4.8037860000    -0.3210830000
    5      H       2.4033180000    -6.8215180000    -0.4255920000
    6      C      -0.5275660000    -4.3786380000     0.0917790000
    7      C       0.7827690000    -3.8380320000    -0.1389090000
    8      C      -1.5566320000    -3.4130620000     0.2738080000
    9      C       1.0678680000    -2.4264730000    -0.1884830000
   10      C      -1.2854360000    -2.0593480000     0.2266100000
   11      C       0.0000000000    -1.4782160000     0.0000000000
   12      H      -2.1510190000    -1.3947830000     0.3796570000
   13      C      -2.2358910000    -6.1879870000     0.3904200000
   14      C      -2.9655400000    -3.7981640000     0.5221250000
   15      N      -3.2056000000    -5.1700030000     0.5627310000
   16      C       3.2257600000    -4.4249870000    -0.5702440000
   17      C       2.4896460000    -2.0366270000    -0.4384070000
   18      N       3.4596620000    -3.0491560000    -0.6104380000
   19      O      -2.6217680000    -7.3531310000     0.4555630000
   20      O      -3.8746080000    -2.9868540000     0.6833730000
   21      O       4.1240590000    -5.2489460000    -0.7293670000
   22      O       2.8965160000    -0.8788290000    -0.5086970000
   23      C      -4.5969100000    -5.5637990000     0.8069960000
   24      H      -4.6416400000    -6.6640850000     0.8137170000
   25      H      -5.2465670000    -5.1471010000     0.0136550000
   26      H      -4.9367390000    -5.1487850000     1.7751590000
   27      C       4.8297290000    -2.5874870000    -0.8515720000
   28      H       5.4623870000    -3.4833290000    -0.9642040000
   29      H       5.1739140000    -1.9649720000    -0.0039560000
   30      H       4.8633600000    -1.9629320000    -1.7643900000
   31      H       0.0695840000    -7.8223180000    -0.0140940000
   32      C       0.0000000000     0.0000000000     0.0000000000
   33      S       0.3350260000     0.7189420000     1.5805300000
   34      C       1.0271300000     2.2032260000     0.9049110000
   35      C       0.4216170000     0.9045570000    -0.9854000000
   36      C       0.9794850000     2.1011440000    -0.4935280000
   37      H       0.3220490000     0.6909780000    -2.0599340000
   38      H       1.3517180000     2.8995710000    -1.1525930000
   39      H       1.3992460000     3.0014300000     1.5560250000
 ----------------------------------------------------------------

   10   -1570.6782402384      7.99e-07  Convergence criterion met
 Total energy in the final basis set =    -1570.6782402384
        RIMP2         total energy =     -1575.3054332232 a.u.

                    Orbital Energies (a.u.)
 --------------------------------------------------------------

 Alpha MOs
 -- Occupied --
-91.9915 -20.5584 -20.5558 -20.5553 -20.5551 -15.6310 -15.6305 -11.4000
-11.3957 -11.3926 -11.3900 -11.3139 -11.3058 -11.3028 -11.3007 -11.2987
-11.2985 -11.2866 -11.2854 -11.2850 -11.2834 -11.2805 -11.2759 -11.2646
-11.2644 -11.2576 -11.2492  -8.9908  -6.6716  -6.6711  -6.6705  -1.4246
 -1.4236  -1.4039  -1.4026  -1.2673  -1.2649  -1.2173  -1.1744  -1.1437
 -1.1173  -1.0623  -1.0496  -0.9929  -0.9887  -0.9830  -0.9591  -0.9485
 -0.8967  -0.8795  -0.8761  -0.8611  -0.7943  -0.7768  -0.7728  -0.7592
 -0.7369  -0.7183  -0.7051  -0.6950  -0.6799  -0.6718  -0.6661  -0.6620
 -0.6567  -0.6424  -0.6372  -0.6339  -0.6296  -0.6121  -0.5853  -0.5842
 -0.5771  -0.5735  -0.5658  -0.5638  -0.5605  -0.5550  -0.5523  -0.5485
 -0.5357  -0.5266  -0.5200  -0.5113  -0.4826  -0.4706  -0.4651  -0.4601
 -0.4580  -0.4524  -0.4278  -0.4179  -0.4086  -0.3557  -0.3488  -0.3329
 -0.3224

          Ground-State Mulliken Net Atomic Charges

     Atom                 Charge (a.u.)
  ----------------------------------------
      1 C                    -0.131054
      2 C                    -0.107549
      3 C                    -0.043933
      4 C                    -0.000899
      5 H                     0.188562
      6 C                    -0.009664
      7 C                     0.070547
      8 C                     0.021193
      9 C                     0.011612
     10 C                    -0.161338
     11 C                     0.081866
     12 H                     0.180159
     13 C                     0.361230
     14 C                     0.367652
     15 N                    -0.101562
     16 C                     0.358426
     17 C                     0.363704
     18 N                    -0.095045
     19 O                    -0.464997
     20 O                    -0.476131
     21 O                    -0.480441
     22 O                    -0.456713
     23 C                    -0.201069
     24 H                     0.140986
     25 H                     0.112316
     26 H                     0.112456
     27 C                    -0.196574
     28 H                     0.133695
     29 H                     0.113453
     30 H                     0.112294
     31 H                     0.214402
     32 C                    -0.072590
     33 S                     0.030492
     34 C                    -0.202906
     35 C                    -0.173434
     36 C                    -0.187489
     37 H                     0.186235
     38 H                     0.189843
     39 H                     0.212264
  ----------------------------------------
  Sum of atomic charges =     0.000000

                    Cartesian Multipole Moments
 -----------------------------------------------------------------
    Charge (ESU x 10^10)
                 0.0000
    Dipole Moment (Debye)
         X       1.1442      Y       1.0368      Z      -1.0189
       Tot       1.8500
    Quadrupole Moments (Debye-Ang)
        XX    -181.9838     XY       3.5668     YY    -166.6641
        XZ       3.8190     YZ       0.8360     ZZ    -158.0559

 Total job time:  262.82s(wall), 8154.77s(cpu)
        *  Thank you very much for using Q-Chem.  Have a nice day.  *
