 Q-Chem 5.4, Q-Chem, Inc., Pleasanton, CA (2021)
 Q-Chem 5.4.0 for Intel X86 EM64T Linux

User input:
--------------------------------------------------------------
$molecule
0 1
C	0.127184	-6.741404	-0.223244
C	0.779949	-6.155638	-1.354118
C	-0.415271	-5.791452	0.715408
C	0.919437	-4.803786	-1.595259
H	1.218801	-6.821518	-2.114613
C	-0.268806	-4.378638	0.463133
C	0.396744	-3.838032	-0.688925
C	-0.790835	-3.413062	1.368449
C	0.542026	-2.426473	-0.939189
C	-0.652669	-2.059348	1.130363
C	0.000000	-1.478216	0.000000
H	-1.091814	-1.394783	1.891815
C	-1.138124	-6.187987	1.963749
C	-1.506241	-3.798164	2.607351
N	-1.629443	-5.170003	2.817348
C	1.636646	-4.424987	-2.837621
C	1.264474	-2.036627	-2.188982
N	1.756205	-3.049156	-3.042637
O	-1.336258	-7.353131	2.301222
O	-1.967056	-2.986854	3.407386
O	2.092167	-5.248946	-3.628041
O	1.472160	-0.878829	-2.545844
C	-2.336642	-5.563799	4.040164
H	-2.360245	-6.664085	4.078749
H	-3.361968	-5.147101	4.027880
H	-1.813424	-5.148785	4.922811
C	2.452149	-2.587487	-4.247167
H	2.772531	-3.483329	-4.804209
H	3.322697	-1.964972	-3.965991
H	1.774507	-1.962932	-4.859678
H	0.033931	-7.822318	-0.062364
C	0.000000	0.000000	0.000000
S	0.509686	0.607733	1.580530
C	1.562368	1.862312	0.904911
C	0.641367	0.764613	-0.985400
C	1.489926	1.776040	-0.493528
H	0.489914	0.584081	-2.059934
H	2.056124	2.450920	-1.152593
H	2.128395	2.537007	1.556025
$end

$rem
JOBTYPE		SP
EXCHANGE	HF
CORRELATION	pRIMP2
BASIS		cc-pvtz
METHOD		rimp2
AUX_BASIS	rimp2-cc-pvtz
SOLVENT_METHOD	PCM
PURECART	11111
SYMMETRY	false
MEM_TOTAL	110000
SCF_CONVERGENCE = 6
THRESH=10
GUI = 2
$end

$solvent
dielectric 4.90
$end
--------------------------------------------------------------

             Standard Nuclear Orientation (Angstroms)
    I     Atom           X                Y                Z
 ----------------------------------------------------------------
    1      C       0.1271840000    -6.7414040000    -0.2232440000
    2      C       0.7799490000    -6.1556380000    -1.3541180000
    3      C      -0.4152710000    -5.7914520000     0.7154080000
    4      C       0.9194370000    -4.8037860000    -1.5952590000
    5      H       1.2188010000    -6.8215180000    -2.1146130000
    6      C      -0.2688060000    -4.3786380000     0.4631330000
    7      C       0.3967440000    -3.8380320000    -0.6889250000
    8      C      -0.7908350000    -3.4130620000     1.3684490000
    9      C       0.5420260000    -2.4264730000    -0.9391890000
   10      C      -0.6526690000    -2.0593480000     1.1303630000
   11      C       0.0000000000    -1.4782160000     0.0000000000
   12      H      -1.0918140000    -1.3947830000     1.8918150000
   13      C      -1.1381240000    -6.1879870000     1.9637490000
   14      C      -1.5062410000    -3.7981640000     2.6073510000
   15      N      -1.6294430000    -5.1700030000     2.8173480000
   16      C       1.6366460000    -4.4249870000    -2.8376210000
   17      C       1.2644740000    -2.0366270000    -2.1889820000
   18      N       1.7562050000    -3.0491560000    -3.0426370000
   19      O      -1.3362580000    -7.3531310000     2.3012220000
   20      O      -1.9670560000    -2.9868540000     3.4073860000
   21      O       2.0921670000    -5.2489460000    -3.6280410000
   22      O       1.4721600000    -0.8788290000    -2.5458440000
   23      C      -2.3366420000    -5.5637990000     4.0401640000
   24      H      -2.3602450000    -6.6640850000     4.0787490000
   25      H      -3.3619680000    -5.1471010000     4.0278800000
   26      H      -1.8134240000    -5.1487850000     4.9228110000
   27      C       2.4521490000    -2.5874870000    -4.2471670000
   28      H       2.7725310000    -3.4833290000    -4.8042090000
   29      H       3.3226970000    -1.9649720000    -3.9659910000
   30      H       1.7745070000    -1.9629320000    -4.8596780000
   31      H       0.0339310000    -7.8223180000    -0.0623640000
   32      C       0.0000000000     0.0000000000     0.0000000000
   33      S       0.5096860000     0.6077330000     1.5805300000
   34      C       1.5623680000     1.8623120000     0.9049110000
   35      C       0.6413670000     0.7646130000    -0.9854000000
   36      C       1.4899260000     1.7760400000    -0.4935280000
   37      H       0.4899140000     0.5840810000    -2.0599340000
   38      H       2.0561240000     2.4509200000    -1.1525930000
   39      H       2.1283950000     2.5370070000     1.5560250000
 ----------------------------------------------------------------

   11   -1570.6494604471      4.90e-07  Convergence criterion met
 Total energy in the final basis set =    -1570.6494604471
        RIMP2         total energy =     -1575.2819040441 a.u.

                    Orbital Energies (a.u.)
 --------------------------------------------------------------

 Alpha MOs
 -- Occupied --
-91.9919 -20.5577 -20.5553 -20.5525 -20.5511 -15.6301 -15.6297 -11.3988
-11.3960 -11.3901 -11.3894 -11.3183 -11.3010 -11.3005 -11.2980 -11.2921
-11.2917 -11.2908 -11.2850 -11.2806 -11.2770 -11.2747 -11.2737 -11.2647
-11.2638 -11.2622 -11.2500  -8.9919  -6.6726  -6.6721  -6.6715  -1.4252
 -1.4238  -1.4035  -1.4032  -1.2666  -1.2646  -1.2150  -1.1800  -1.1421
 -1.1138  -1.0614  -1.0469  -0.9919  -0.9905  -0.9888  -0.9579  -0.9465
 -0.8954  -0.8777  -0.8744  -0.8602  -0.7944  -0.7766  -0.7723  -0.7640
 -0.7347  -0.7266  -0.7028  -0.6921  -0.6802  -0.6722  -0.6656  -0.6615
 -0.6547  -0.6402  -0.6363  -0.6336  -0.6260  -0.6117  -0.5885  -0.5837
 -0.5772  -0.5756  -0.5648  -0.5621  -0.5586  -0.5551  -0.5525  -0.5464
 -0.5330  -0.5226  -0.5207  -0.5159  -0.4805  -0.4686  -0.4647  -0.4616
 -0.4561  -0.4472  -0.4279  -0.4181  -0.4078  -0.3750  -0.3479  -0.3353
 -0.2991

          Ground-State Mulliken Net Atomic Charges

     Atom                 Charge (a.u.)
  ----------------------------------------
      1 C                    -0.153866
      2 C                    -0.109750
      3 C                    -0.029491
      4 C                    -0.005807
      5 H                     0.187049
      6 C                    -0.013691
      7 C                     0.083778
      8 C                     0.014911
      9 C                    -0.077689
     10 C                    -0.152802
     11 C                     0.081762
     12 H                     0.169222
     13 C                     0.360041
     14 C                     0.364749
     15 N                    -0.101289
     16 C                     0.358121
     17 C                     0.396813
     18 N                    -0.091658
     19 O                    -0.464682
     20 O                    -0.476928
     21 O                    -0.484404
     22 O                    -0.483426
     23 C                    -0.201441
     24 H                     0.140899
     25 H                     0.112262
     26 H                     0.112231
     27 C                    -0.198888
     28 H                     0.134660
     29 H                     0.112170
     30 H                     0.112115
     31 H                     0.211361
     32 C                    -0.079723
     33 S                     0.033102
     34 C                    -0.164572
     35 C                    -0.103929
     36 C                    -0.213346
     37 H                     0.210979
     38 H                     0.193170
     39 H                     0.217985
  ----------------------------------------
  Sum of atomic charges =     0.000000

                    Cartesian Multipole Moments
 -----------------------------------------------------------------
    Charge (ESU x 10^10)
                -0.0000
    Dipole Moment (Debye)
         X       1.9940      Y       2.7029      Z      -1.0314
       Tot       3.5136
    Quadrupole Moments (Debye-Ang)
        XX    -163.9642     XY       6.6764     YY    -176.2469
        XZ       9.7909     YZ       0.1932     ZZ    -173.1252

 Total job time:  284.34s(wall), 8901.90s(cpu)
        *  Thank you very much for using Q-Chem.  Have a nice day.  *
