 Q-Chem 5.4, Q-Chem, Inc., Pleasanton, CA (2021)
 Q-Chem 5.4.0 for Intel X86 EM64T Linux

User input:
--------------------------------------------------------------
$molecule
0 1
C	-0.046070	-6.741404	-0.252767
C	-0.272935	-6.155638	-1.538656
C	0.141739	-5.791452	0.814966
C	-0.321083	-4.803786	-1.813042
H	-0.425592	-6.821518	-2.403318
C	0.091779	-4.378638	0.527566
C	-0.138909	-3.838032	-0.782769
C	0.273808	-3.413062	1.556632
C	-0.188483	-2.426473	-1.067868
C	0.226610	-2.059348	1.285436
C	0.000000	-1.478216	0.000000
H	0.379657	-1.394783	2.151019
C	0.390420	-6.187987	2.235891
C	0.522125	-3.798164	2.965540
N	0.562731	-5.170003	3.205600
C	-0.570244	-4.424987	-3.225760
C	-0.438407	-2.036627	-2.489646
N	-0.610438	-3.049156	-3.459662
O	0.455563	-7.353131	2.621768
O	0.683373	-2.986854	3.874608
O	-0.729367	-5.248946	-4.124059
O	-0.508697	-0.878829	-2.896516
C	0.806996	-5.563799	4.596910
H	0.813717	-6.664085	4.641640
H	0.013655	-5.147101	5.246567
H	1.775159	-5.148785	4.936739
C	-0.851572	-2.587487	-4.829729
H	-0.964204	-3.483329	-5.462387
H	-0.003956	-1.964972	-5.173914
H	-1.764390	-1.962932	-4.863360
H	-0.014094	-7.822318	-0.069584
C	0.000000	0.000000	0.000000
S	0.068929	0.790170	1.580530
C	0.211639	2.421655	0.904911
C	0.086813	0.994207	-0.985400
C	0.201782	2.309433	-0.493528
H	0.066299	0.759454	-2.059934
H	0.278488	3.187020	-1.152593
H	0.288312	3.298992	1.556025
$end

$rem
JOBTYPE		SP
EXCHANGE	HF
CORRELATION	pRIMP2
BASIS		cc-pvtz
METHOD		rimp2
AUX_BASIS	rimp2-cc-pvtz
SOLVENT_METHOD	PCM
PURECART	11111
SYMMETRY	false
MEM_TOTAL	110000
SCF_CONVERGENCE = 6
THRESH=10
GUI = 2
$end

$solvent
dielectric 4.90
$end
--------------------------------------------------------------

             Standard Nuclear Orientation (Angstroms)
    I     Atom           X                Y                Z
 ----------------------------------------------------------------
    1      C      -0.0460700000    -6.7414040000    -0.2527670000
    2      C      -0.2729350000    -6.1556380000    -1.5386560000
    3      C       0.1417390000    -5.7914520000     0.8149660000
    4      C      -0.3210830000    -4.8037860000    -1.8130420000
    5      H      -0.4255920000    -6.8215180000    -2.4033180000
    6      C       0.0917790000    -4.3786380000     0.5275660000
    7      C      -0.1389090000    -3.8380320000    -0.7827690000
    8      C       0.2738080000    -3.4130620000     1.5566320000
    9      C      -0.1884830000    -2.4264730000    -1.0678680000
   10      C       0.2266100000    -2.0593480000     1.2854360000
   11      C       0.0000000000    -1.4782160000     0.0000000000
   12      H       0.3796570000    -1.3947830000     2.1510190000
   13      C       0.3904200000    -6.1879870000     2.2358910000
   14      C       0.5221250000    -3.7981640000     2.9655400000
   15      N       0.5627310000    -5.1700030000     3.2056000000
   16      C      -0.5702440000    -4.4249870000    -3.2257600000
   17      C      -0.4384070000    -2.0366270000    -2.4896460000
   18      N      -0.6104380000    -3.0491560000    -3.4596620000
   19      O       0.4555630000    -7.3531310000     2.6217680000
   20      O       0.6833730000    -2.9868540000     3.8746080000
   21      O      -0.7293670000    -5.2489460000    -4.1240590000
   22      O      -0.5086970000    -0.8788290000    -2.8965160000
   23      C       0.8069960000    -5.5637990000     4.5969100000
   24      H       0.8137170000    -6.6640850000     4.6416400000
   25      H       0.0136550000    -5.1471010000     5.2465670000
   26      H       1.7751590000    -5.1487850000     4.9367390000
   27      C      -0.8515720000    -2.5874870000    -4.8297290000
   28      H      -0.9642040000    -3.4833290000    -5.4623870000
   29      H      -0.0039560000    -1.9649720000    -5.1739140000
   30      H      -1.7643900000    -1.9629320000    -4.8633600000
   31      H      -0.0140940000    -7.8223180000    -0.0695840000
   32      C       0.0000000000     0.0000000000     0.0000000000
   33      S       0.0689290000     0.7901700000     1.5805300000
   34      C       0.2116390000     2.4216550000     0.9049110000
   35      C       0.0868130000     0.9942070000    -0.9854000000
   36      C       0.2017820000     2.3094330000    -0.4935280000
   37      H       0.0662990000     0.7594540000    -2.0599340000
   38      H       0.2784880000     3.1870200000    -1.1525930000
   39      H       0.2883120000     3.2989920000     1.5560250000
 ----------------------------------------------------------------

   10   -1570.6862448164      7.81e-07  Convergence criterion met
 Total energy in the final basis set =    -1570.6862448164
        RIMP2         total energy =     -1575.3139308108 a.u.

                    Orbital Energies (a.u.)
 --------------------------------------------------------------

 Alpha MOs
 -- Occupied --
-91.9934 -20.5586 -20.5566 -20.5558 -20.5538 -15.6312 -15.6307 -11.3999
-11.3972 -11.3915 -11.3909 -11.3198 -11.3022 -11.3004 -11.2990 -11.2957
-11.2945 -11.2919 -11.2899 -11.2876 -11.2836 -11.2792 -11.2786 -11.2649
-11.2644 -11.2537 -11.2501  -8.9933  -6.6741  -6.6736  -6.6729  -1.4254
 -1.4249  -1.4043  -1.4040  -1.2676  -1.2654  -1.2172  -1.1775  -1.1442
 -1.1165  -1.0639  -1.0496  -0.9927  -0.9904  -0.9870  -0.9589  -0.9475
 -0.8974  -0.8794  -0.8789  -0.8616  -0.7967  -0.7801  -0.7732  -0.7623
 -0.7360  -0.7227  -0.7036  -0.6942  -0.6823  -0.6741  -0.6666  -0.6624
 -0.6562  -0.6417  -0.6375  -0.6339  -0.6283  -0.6130  -0.5911  -0.5838
 -0.5793  -0.5715  -0.5660  -0.5637  -0.5618  -0.5561  -0.5539  -0.5472
 -0.5360  -0.5257  -0.5246  -0.5160  -0.4821  -0.4695  -0.4658  -0.4621
 -0.4586  -0.4514  -0.4293  -0.4192  -0.4099  -0.3772  -0.3553  -0.3367
 -0.2998

          Ground-State Mulliken Net Atomic Charges

     Atom                 Charge (a.u.)
  ----------------------------------------
      1 C                    -0.143178
      2 C                    -0.111239
      3 C                    -0.030138
      4 C                    -0.003625
      5 H                     0.188076
      6 C                     0.004370
      7 C                     0.070759
      8 C                     0.053076
      9 C                    -0.071567
     10 C                    -0.176808
     11 C                     0.052682
     12 H                     0.167815
     13 C                     0.358255
     14 C                     0.365145
     15 N                    -0.101485
     16 C                     0.359644
     17 C                     0.383674
     18 N                    -0.092181
     19 O                    -0.464137
     20 O                    -0.476600
     21 O                    -0.483046
     22 O                    -0.479192
     23 C                    -0.201140
     24 H                     0.141138
     25 H                     0.112578
     26 H                     0.112488
     27 C                    -0.197922
     28 H                     0.134477
     29 H                     0.112371
     30 H                     0.112983
     31 H                     0.212801
     32 C                    -0.015611
     33 S                     0.006253
     34 C                    -0.182754
     35 C                    -0.107684
     36 C                    -0.247989
     37 H                     0.226911
     38 H                     0.191434
     39 H                     0.219365
  ----------------------------------------
  Sum of atomic charges =     0.000000

                    Cartesian Multipole Moments
 -----------------------------------------------------------------
    Charge (ESU x 10^10)
                -0.0000
    Dipole Moment (Debye)
         X       0.2582      Y       2.0971      Z      -0.8266
       Tot       2.2689
    Quadrupole Moments (Debye-Ang)
        XX    -164.5371     XY       0.8928     YY    -167.5082
        XZ      -3.4621     YZ       0.6094     ZZ    -177.4368

 Total job time:  267.54s(wall), 8207.58s(cpu)
        *  Thank you very much for using Q-Chem.  Have a nice day.  *
