 Q-Chem 5.4, Q-Chem, Inc., Pleasanton, CA (2021)
 Q-Chem 5.4.0 for Intel X86 EM64T Linux

User input:
--------------------------------------------------------------
$molecule
0 1
C	-0.164018	-6.741404	0.197767
C	-1.003240	-6.155638	1.198109
C	0.533192	-5.791452	-0.632428
C	-1.182482	-4.803786	1.411364
H	-1.567483	-6.821518	1.870845
C	0.345145	-4.378638	-0.409419
C	-0.510347	-3.838032	0.609565
C	1.016449	-3.413062	-1.210332
C	-0.696879	-2.426473	0.830799
C	0.839039	-2.059348	-0.999856
C	-0.000000	-1.478216	-0.000000
H	1.403737	-1.394783	-1.673483
C	1.461835	-6.187987	-1.736282
C	1.936119	-3.798164	-2.306183
N	2.093916	-5.170003	-2.491597
C	-2.104529	-4.424987	2.510310
C	-1.625377	-2.036627	1.936153
N	-2.257873	-3.049156	2.691451
O	1.715561	-7.353131	-2.034222
O	2.528858	-2.986854	-3.014044
O	-2.690385	-5.248946	3.209622
O	-1.891876	-0.878829	2.251529
C	3.002711	-5.563799	-3.573032
H	3.032655	-6.664085	-3.606932
H	4.010326	-5.147101	-3.382888
H	2.640711	-5.148785	-4.533125
C	-3.152408	-2.587487	3.756832
H	-3.564653	-3.483329	4.249778
H	-3.960905	-1.964972	3.328759
H	-2.591422	-1.962932	4.477709
H	-0.044245	-7.822318	0.055524
C	0.000000	0.000000	0.000000
S	0.607475	0.509994	1.580530
C	1.862020	1.562717	0.904911
C	0.764397	0.641624	-0.985400
C	1.775697	1.490335	-0.493528
H	0.583895	0.490135	-2.059934
H	2.450484	2.056643	-1.152593
H	2.536607	2.128872	1.556025
$end

$rem
JOBTYPE		SP
EXCHANGE	HF
CORRELATION	pRIMP2
BASIS		cc-pvtz
METHOD		rimp2
AUX_BASIS	rimp2-cc-pvtz
SOLVENT_METHOD	PCM
PURECART	11111
SYMMETRY	false
MEM_TOTAL	110000
SCF_CONVERGENCE = 6
THRESH=10
GUI = 2
$end

$solvent
dielectric 4.90
$end
--------------------------------------------------------------

             Standard Nuclear Orientation (Angstroms)
    I     Atom           X                Y                Z
 ----------------------------------------------------------------
    1      C      -0.1640180000    -6.7414040000     0.1977670000
    2      C      -1.0032400000    -6.1556380000     1.1981090000
    3      C       0.5331920000    -5.7914520000    -0.6324280000
    4      C      -1.1824820000    -4.8037860000     1.4113640000
    5      H      -1.5674830000    -6.8215180000     1.8708450000
    6      C       0.3451450000    -4.3786380000    -0.4094190000
    7      C      -0.5103470000    -3.8380320000     0.6095650000
    8      C       1.0164490000    -3.4130620000    -1.2103320000
    9      C      -0.6968790000    -2.4264730000     0.8307990000
   10      C       0.8390390000    -2.0593480000    -0.9998560000
   11      C       0.0000000000    -1.4782160000     0.0000000000
   12      H       1.4037370000    -1.3947830000    -1.6734830000
   13      C       1.4618350000    -6.1879870000    -1.7362820000
   14      C       1.9361190000    -3.7981640000    -2.3061830000
   15      N       2.0939160000    -5.1700030000    -2.4915970000
   16      C      -2.1045290000    -4.4249870000     2.5103100000
   17      C      -1.6253770000    -2.0366270000     1.9361530000
   18      N      -2.2578730000    -3.0491560000     2.6914510000
   19      O       1.7155610000    -7.3531310000    -2.0342220000
   20      O       2.5288580000    -2.9868540000    -3.0140440000
   21      O      -2.6903850000    -5.2489460000     3.2096220000
   22      O      -1.8918760000    -0.8788290000     2.2515290000
   23      C       3.0027110000    -5.5637990000    -3.5730320000
   24      H       3.0326550000    -6.6640850000    -3.6069320000
   25      H       4.0103260000    -5.1471010000    -3.3828880000
   26      H       2.6407110000    -5.1487850000    -4.5331250000
   27      C      -3.1524080000    -2.5874870000     3.7568320000
   28      H      -3.5646530000    -3.4833290000     4.2497780000
   29      H      -3.9609050000    -1.9649720000     3.3287590000
   30      H      -2.5914220000    -1.9629320000     4.4777090000
   31      H      -0.0442450000    -7.8223180000     0.0555240000
   32      C       0.0000000000     0.0000000000     0.0000000000
   33      S       0.6074750000     0.5099940000     1.5805300000
   34      C       1.8620200000     1.5627170000     0.9049110000
   35      C       0.7643970000     0.6416240000    -0.9854000000
   36      C       1.7756970000     1.4903350000    -0.4935280000
   37      H       0.5838950000     0.4901350000    -2.0599340000
   38      H       2.4504840000     2.0566430000    -1.1525930000
   39      H       2.5366070000     2.1288720000     1.5560250000
 ----------------------------------------------------------------

   11   -1570.6506443805      4.72e-07  Convergence criterion met
 Total energy in the final basis set =    -1570.6506443805
        RIMP2         total energy =     -1575.2865713106 a.u.

                    Orbital Energies (a.u.)
 --------------------------------------------------------------

 Alpha MOs
 -- Occupied --
-91.9944 -20.5581 -20.5564 -20.5536 -20.5517 -15.6308 -15.6280 -11.3993
-11.3929 -11.3904 -11.3895 -11.3176 -11.3021 -11.3008 -11.2978 -11.2922
-11.2921 -11.2915 -11.2850 -11.2809 -11.2777 -11.2776 -11.2732 -11.2727
-11.2646 -11.2629 -11.2554  -8.9938  -6.6744  -6.6737  -6.6733  -1.4246
 -1.4219  -1.4040  -1.4009  -1.2666  -1.2630  -1.2161  -1.1859  -1.1413
 -1.1140  -1.0621  -1.0471  -0.9942  -0.9925  -0.9903  -0.9574  -0.9457
 -0.8949  -0.8771  -0.8741  -0.8581  -0.7933  -0.7756  -0.7755  -0.7673
 -0.7326  -0.7157  -0.7066  -0.6930  -0.6829  -0.6745  -0.6653  -0.6607
 -0.6551  -0.6404  -0.6353  -0.6314  -0.6260  -0.6126  -0.5878  -0.5855
 -0.5804  -0.5739  -0.5666  -0.5651  -0.5631  -0.5548  -0.5532  -0.5474
 -0.5295  -0.5288  -0.5172  -0.5115  -0.4834  -0.4734  -0.4635  -0.4586
 -0.4557  -0.4495  -0.4266  -0.4171  -0.4072  -0.3709  -0.3546  -0.3351
 -0.3038

          Ground-State Mulliken Net Atomic Charges

     Atom                 Charge (a.u.)
  ----------------------------------------
      1 C                    -0.149296
      2 C                    -0.108030
      3 C                    -0.028636
      4 C                    -0.005359
      5 H                     0.187649
      6 C                    -0.012152
      7 C                     0.079578
      8 C                     0.021909
      9 C                    -0.085612
     10 C                    -0.174546
     11 C                     0.115559
     12 H                     0.179801
     13 C                     0.358379
     14 C                     0.363916
     15 N                    -0.101112
     16 C                     0.356185
     17 C                     0.365650
     18 N                    -0.094387
     19 O                    -0.464513
     20 O                    -0.478772
     21 O                    -0.484790
     22 O                    -0.474897
     23 C                    -0.201493
     24 H                     0.141235
     25 H                     0.112044
     26 H                     0.111982
     27 C                    -0.197776
     28 H                     0.133283
     29 H                     0.112686
     30 H                     0.112316
     31 H                     0.211889
     32 C                    -0.100113
     33 S                     0.081650
     34 C                    -0.161343
     35 C                    -0.119679
     36 C                    -0.212218
     37 H                     0.196419
     38 H                     0.195356
     39 H                     0.217240
  ----------------------------------------
  Sum of atomic charges =     0.000000

                    Cartesian Multipole Moments
 -----------------------------------------------------------------
    Charge (ESU x 10^10)
                 0.0000
    Dipole Moment (Debye)
         X       2.6558      Y       2.2129      Z      -1.0407
       Tot       3.6102
    Quadrupole Moments (Debye-Ang)
        XX    -165.5589     XY       6.2106     YY    -176.9657
        XZ      11.7610     YZ       1.1221     ZZ    -169.3269

 Total job time:  266.10s(wall), 8258.69s(cpu)
        *  Thank you very much for using Q-Chem.  Have a nice day.  *
