 Q-Chem 5.4, Q-Chem, Inc., Pleasanton, CA (2021)
 Q-Chem 5.4.0 for Intel X86 EM64T Linux

User input:
--------------------------------------------------------------
$molecule
0 1
C	-0.256927	-6.741404	0.001478
C	-1.562675	-6.155638	0.001603
C	0.827197	-5.791452	0.001931
C	-1.841253	-4.803786	0.001374
H	-2.440709	-6.821518	0.001794
C	0.535488	-4.378638	0.001227
C	-0.794999	-3.838032	0.000872
C	1.580529	-3.413062	0.000658
C	-1.084374	-2.426473	0.000186
C	1.305258	-2.059348	0.000046
C	-0.000000	-1.478216	-0.000000
H	2.184267	-1.394783	-0.000369
C	2.269719	-6.187987	0.003770
C	3.011152	-3.798164	0.000767
N	3.254617	-5.170003	0.002465
C	-3.275775	-4.424987	0.001433
C	-2.527951	-2.036627	-0.000576
N	-3.513104	-3.049156	0.000400
O	2.661046	-7.353131	0.006623
O	3.934410	-2.986854	-0.000172
O	-4.188059	-5.248946	0.002151
O	-2.940845	-0.878829	-0.002006
C	4.667206	-5.563799	0.003509
H	4.712423	-6.664085	0.004658
H	5.169231	-5.147101	0.897610
H	5.169992	-5.148785	-0.890935
C	-4.904229	-2.587487	-0.000039
H	-5.546833	-3.483329	0.001022
H	-5.095998	-1.964972	-0.894545
H	-5.095858	-1.962932	0.893071
H	-0.070974	-7.822318	0.001797
C	0.000000	0.000000	0.000000
S	-0.000201	0.793171	1.580530
C	-0.000228	2.430885	0.904911
C	-0.000168	0.997990	-0.985400
C	-0.000267	2.318231	-0.493528
H	-0.000145	0.762343	-2.059934
H	-0.000339	3.199164	-1.152593
H	-0.000311	3.311566	1.556025
$end

$rem
JOBTYPE		SP
EXCHANGE	HF
CORRELATION	pRIMP2
BASIS		cc-pvtz
METHOD		rimp2
AUX_BASIS	rimp2-cc-pvtz
SOLVENT_METHOD	PCM
PURECART	11111
SYMMETRY	false
MEM_TOTAL	110000
SCF_CONVERGENCE = 6
THRESH=10
GUI = 2
$end

$solvent
dielectric 4.90
$end
--------------------------------------------------------------

             Standard Nuclear Orientation (Angstroms)
    I     Atom           X                Y                Z
 ----------------------------------------------------------------
    1      C      -0.2569270000    -6.7414040000     0.0014780000
    2      C      -1.5626750000    -6.1556380000     0.0016030000
    3      C       0.8271970000    -5.7914520000     0.0019310000
    4      C      -1.8412530000    -4.8037860000     0.0013740000
    5      H      -2.4407090000    -6.8215180000     0.0017940000
    6      C       0.5354880000    -4.3786380000     0.0012270000
    7      C      -0.7949990000    -3.8380320000     0.0008720000
    8      C       1.5805290000    -3.4130620000     0.0006580000
    9      C      -1.0843740000    -2.4264730000     0.0001860000
   10      C       1.3052580000    -2.0593480000     0.0000460000
   11      C       0.0000000000    -1.4782160000     0.0000000000
   12      H       2.1842670000    -1.3947830000    -0.0003690000
   13      C       2.2697190000    -6.1879870000     0.0037700000
   14      C       3.0111520000    -3.7981640000     0.0007670000
   15      N       3.2546170000    -5.1700030000     0.0024650000
   16      C      -3.2757750000    -4.4249870000     0.0014330000
   17      C      -2.5279510000    -2.0366270000    -0.0005760000
   18      N      -3.5131040000    -3.0491560000     0.0004000000
   19      O       2.6610460000    -7.3531310000     0.0066230000
   20      O       3.9344100000    -2.9868540000    -0.0001720000
   21      O      -4.1880590000    -5.2489460000     0.0021510000
   22      O      -2.9408450000    -0.8788290000    -0.0020060000
   23      C       4.6672060000    -5.5637990000     0.0035090000
   24      H       4.7124230000    -6.6640850000     0.0046580000
   25      H       5.1692310000    -5.1471010000     0.8976100000
   26      H       5.1699920000    -5.1487850000    -0.8909350000
   27      C      -4.9042290000    -2.5874870000    -0.0000390000
   28      H      -5.5468330000    -3.4833290000     0.0010220000
   29      H      -5.0959980000    -1.9649720000    -0.8945450000
   30      H      -5.0958580000    -1.9629320000     0.8930710000
   31      H      -0.0709740000    -7.8223180000     0.0017970000
   32      C       0.0000000000     0.0000000000     0.0000000000
   33      S      -0.0002010000     0.7931710000     1.5805300000
   34      C      -0.0002280000     2.4308850000     0.9049110000
   35      C      -0.0001680000     0.9979900000    -0.9854000000
   36      C      -0.0002670000     2.3182310000    -0.4935280000
   37      H      -0.0001450000     0.7623430000    -2.0599340000
   38      H      -0.0003390000     3.1991640000    -1.1525930000
   39      H      -0.0003110000     3.3115660000     1.5560250000
 ----------------------------------------------------------------

   10   -1570.6906330436      6.94e-07  Convergence criterion met
 Total energy in the final basis set =    -1570.6906330436
        RIMP2         total energy =     -1575.3137452177 a.u.

                    Orbital Energies (a.u.)
 --------------------------------------------------------------

 Alpha MOs
 -- Occupied --
-91.9918 -20.5589 -20.5579 -20.5564 -20.5560 -15.6316 -15.6316 -11.4006
-11.3978 -11.3935 -11.3909 -11.3160 -11.3091 -11.3035 -11.3018 -11.3003
-11.2998 -11.2939 -11.2878 -11.2865 -11.2813 -11.2799 -11.2793 -11.2649
-11.2648 -11.2544 -11.2498  -8.9910  -6.6718  -6.6714  -6.6707  -1.4253
 -1.4249  -1.4045  -1.4040  -1.2681  -1.2658  -1.2187  -1.1744  -1.1448
 -1.1187  -1.0638  -1.0510  -0.9937  -0.9895  -0.9824  -0.9597  -0.9490
 -0.8980  -0.8803  -0.8785  -0.8619  -0.7961  -0.7780  -0.7736  -0.7593
 -0.7375  -0.7195  -0.7055  -0.6956  -0.6813  -0.6734  -0.6669  -0.6627
 -0.6576  -0.6430  -0.6383  -0.6347  -0.6309  -0.6130  -0.5857  -0.5849
 -0.5784  -0.5729  -0.5665  -0.5646  -0.5621  -0.5556  -0.5532  -0.5489
 -0.5349  -0.5270  -0.5190  -0.5181  -0.4839  -0.4712  -0.4671  -0.4611
 -0.4602  -0.4541  -0.4288  -0.4185  -0.4093  -0.3553  -0.3501  -0.3337
 -0.3250

          Ground-State Mulliken Net Atomic Charges

     Atom                 Charge (a.u.)
  ----------------------------------------
      1 C                    -0.128605
      2 C                    -0.107525
      3 C                    -0.044566
      4 C                     0.000028
      5 H                     0.189136
      6 C                    -0.001838
      7 C                     0.072463
      8 C                     0.002469
      9 C                    -0.008038
     10 C                    -0.114117
     11 C                     0.047694
     12 H                     0.182284
     13 C                     0.361133
     14 C                     0.369343
     15 N                    -0.102010
     16 C                     0.359833
     17 C                     0.357772
     18 N                    -0.097848
     19 O                    -0.464784
     20 O                    -0.476307
     21 O                    -0.479125
     22 O                    -0.457485
     23 C                    -0.200939
     24 H                     0.141080
     25 H                     0.112620
     26 H                     0.112436
     27 C                    -0.195720
     28 H                     0.133893
     29 H                     0.113162
     30 H                     0.113715
     31 H                     0.214913
     32 C                    -0.038124
     33 S                     0.031908
     34 C                    -0.212815
     35 C                    -0.174739
     36 C                    -0.201988
     37 H                     0.188713
     38 H                     0.191206
     39 H                     0.210771
  ----------------------------------------
  Sum of atomic charges =     0.000000

                    Cartesian Multipole Moments
 -----------------------------------------------------------------
    Charge (ESU x 10^10)
                 0.0000
    Dipole Moment (Debye)
         X      -0.1107      Y       0.5630      Z      -0.9403
       Tot       1.1015
    Quadrupole Moments (Debye-Ang)
        XX    -184.2162     XY       1.2958     YY    -163.0979
        XZ      -0.0508     YZ       0.7403     ZZ    -157.5531

 Total job time:  263.08s(wall), 8006.47s(cpu)
        *  Thank you very much for using Q-Chem.  Have a nice day.  *
