 Q-Chem 5.4, Q-Chem, Inc., Pleasanton, CA (2021)
 Q-Chem 5.4.0 for Intel X86 EM64T Linux

User input:
--------------------------------------------------------------
$molecule
0 1
C	0.043160	-6.741404	-0.253280
C	0.269777	-6.155638	-1.539213
C	-0.145543	-5.791452	0.814295
C	0.318377	-4.803786	-1.813519
H	0.422058	-6.821518	-2.403941
C	-0.094194	-4.378638	0.527140
C	0.137191	-3.838032	-0.783072
C	-0.275104	-3.413062	1.556403
C	0.188116	-2.426473	-1.067932
C	-0.226701	-2.059348	1.285420
C	-0.000000	-1.478216	-0.000000
H	-0.378931	-1.394783	2.151147
C	-0.397845	-6.187987	2.234582
C	-0.523637	-3.798164	2.965273
N	-0.567586	-5.170003	3.204744
C	0.567421	-4.424987	-3.226257
C	0.439541	-2.036627	-2.489446
N	0.609650	-3.049156	-3.459801
O	-0.468608	-7.353131	2.619468
O	-0.683034	-2.986854	3.874668
O	0.725131	-5.248946	-4.124806
O	0.512648	-0.878829	-2.895819
C	-0.813908	-5.563799	4.595691
H	-0.822891	-6.664085	4.640022
H	-1.781600	-5.147101	4.934830
H	-0.020360	-5.148785	5.246157
C	0.851649	-2.587487	-4.829716
H	0.962191	-3.483329	-5.462742
H	1.765865	-1.964972	-4.863242
H	0.005383	-1.962932	-5.173521
H	0.010555	-7.822318	-0.070208
C	0.000000	0.000000	0.000000
S	0.607475	0.509994	1.580530
C	1.862020	1.562717	0.904911
C	0.764397	0.641624	-0.985400
C	1.775697	1.490335	-0.493528
H	0.583895	0.490135	-2.059934
H	2.450484	2.056643	-1.152593
H	2.536607	2.128872	1.556025
$end

$rem
JOBTYPE		SP
EXCHANGE	HF
CORRELATION	pRIMP2
BASIS		cc-pvtz
METHOD		rimp2
AUX_BASIS	rimp2-cc-pvtz
SOLVENT_METHOD	PCM
PURECART	11111
SYMMETRY	false
MEM_TOTAL	110000
SCF_CONVERGENCE = 6
THRESH=10
GUI = 2
$end

$solvent
dielectric 4.90
$end
--------------------------------------------------------------

             Standard Nuclear Orientation (Angstroms)
    I     Atom           X                Y                Z
 ----------------------------------------------------------------
    1      C       0.0431600000    -6.7414040000    -0.2532800000
    2      C       0.2697770000    -6.1556380000    -1.5392130000
    3      C      -0.1455430000    -5.7914520000     0.8142950000
    4      C       0.3183770000    -4.8037860000    -1.8135190000
    5      H       0.4220580000    -6.8215180000    -2.4039410000
    6      C      -0.0941940000    -4.3786380000     0.5271400000
    7      C       0.1371910000    -3.8380320000    -0.7830720000
    8      C      -0.2751040000    -3.4130620000     1.5564030000
    9      C       0.1881160000    -2.4264730000    -1.0679320000
   10      C      -0.2267010000    -2.0593480000     1.2854200000
   11      C       0.0000000000    -1.4782160000     0.0000000000
   12      H      -0.3789310000    -1.3947830000     2.1511470000
   13      C      -0.3978450000    -6.1879870000     2.2345820000
   14      C      -0.5236370000    -3.7981640000     2.9652730000
   15      N      -0.5675860000    -5.1700030000     3.2047440000
   16      C       0.5674210000    -4.4249870000    -3.2262570000
   17      C       0.4395410000    -2.0366270000    -2.4894460000
   18      N       0.6096500000    -3.0491560000    -3.4598010000
   19      O      -0.4686080000    -7.3531310000     2.6194680000
   20      O      -0.6830340000    -2.9868540000     3.8746680000
   21      O       0.7251310000    -5.2489460000    -4.1248060000
   22      O       0.5126480000    -0.8788290000    -2.8958190000
   23      C      -0.8139080000    -5.5637990000     4.5956910000
   24      H      -0.8228910000    -6.6640850000     4.6400220000
   25      H      -1.7816000000    -5.1471010000     4.9348300000
   26      H      -0.0203600000    -5.1487850000     5.2461570000
   27      C       0.8516490000    -2.5874870000    -4.8297160000
   28      H       0.9621910000    -3.4833290000    -5.4627420000
   29      H       1.7658650000    -1.9649720000    -4.8632420000
   30      H       0.0053830000    -1.9629320000    -5.1735210000
   31      H       0.0105550000    -7.8223180000    -0.0702080000
   32      C       0.0000000000     0.0000000000     0.0000000000
   33      S       0.6074750000     0.5099940000     1.5805300000
   34      C       1.8620200000     1.5627170000     0.9049110000
   35      C       0.7643970000     0.6416240000    -0.9854000000
   36      C       1.7756970000     1.4903350000    -0.4935280000
   37      H       0.5838950000     0.4901350000    -2.0599340000
   38      H       2.4504840000     2.0566430000    -1.1525930000
   39      H       2.5366070000     2.1288720000     1.5560250000
 ----------------------------------------------------------------

   11   -1570.6236178071      5.69e-07  Convergence criterion met
 Total energy in the final basis set =    -1570.6236178071
        RIMP2         total energy =     -1575.2604472458 a.u.

                    Orbital Energies (a.u.)
 --------------------------------------------------------------

 Alpha MOs
 -- Occupied --
-91.9916 -20.5573 -20.5551 -20.5533 -20.5513 -15.6298 -15.6297 -11.3982
-11.3971 -11.3892 -11.3891 -11.3208 -11.3074 -11.2994 -11.2967 -11.2890
-11.2878 -11.2868 -11.2842 -11.2783 -11.2755 -11.2735 -11.2735 -11.2646
-11.2637 -11.2595 -11.2500  -8.9924  -6.6731  -6.6724  -6.6719  -1.4278
 -1.4235  -1.4042  -1.4029  -1.2667  -1.2646  -1.2153  -1.1847  -1.1408
 -1.1125  -1.0619  -1.0463  -0.9954  -0.9906  -0.9906  -0.9574  -0.9453
 -0.8959  -0.8770  -0.8746  -0.8601  -0.7957  -0.7787  -0.7734  -0.7658
 -0.7347  -0.7322  -0.7007  -0.6923  -0.6814  -0.6728  -0.6657  -0.6615
 -0.6543  -0.6401  -0.6389  -0.6332  -0.6250  -0.6122  -0.5906  -0.5832
 -0.5778  -0.5730  -0.5699  -0.5631  -0.5594  -0.5555  -0.5540  -0.5456
 -0.5330  -0.5229  -0.5204  -0.5124  -0.4783  -0.4634  -0.4629  -0.4596
 -0.4556  -0.4420  -0.4282  -0.4186  -0.4082  -0.3777  -0.3541  -0.3332
 -0.2970

          Ground-State Mulliken Net Atomic Charges

     Atom                 Charge (a.u.)
  ----------------------------------------
      1 C                    -0.161760
      2 C                    -0.111813
      3 C                    -0.023240
      4 C                    -0.002539
      5 H                     0.186280
      6 C                    -0.020151
      7 C                     0.079375
      8 C                     0.032263
      9 C                    -0.102809
     10 C                    -0.136955
     11 C                     0.058487
     12 H                     0.165905
     13 C                     0.359086
     14 C                     0.363710
     15 N                    -0.101205
     16 C                     0.356638
     17 C                     0.386143
     18 N                    -0.089962
     19 O                    -0.464681
     20 O                    -0.478136
     21 O                    -0.486024
     22 O                    -0.472178
     23 C                    -0.201598
     24 H                     0.140934
     25 H                     0.112112
     26 H                     0.111995
     27 C                    -0.199558
     28 H                     0.134721
     29 H                     0.111639
     30 H                     0.112577
     31 H                     0.210299
     32 C                    -0.068121
     33 S                     0.026044
     34 C                    -0.135047
     35 C                    -0.102653
     36 C                    -0.249236
     37 H                     0.246563
     38 H                     0.193660
     39 H                     0.219234
  ----------------------------------------
  Sum of atomic charges =     0.000000

                    Cartesian Multipole Moments
 -----------------------------------------------------------------
    Charge (ESU x 10^10)
                 0.0000
    Dipole Moment (Debye)
         X       2.6344      Y       3.1063      Z      -0.7369
       Tot       4.1391
    Quadrupole Moments (Debye-Ang)
        XX    -156.7748     XY       6.5905     YY    -181.5300
        XZ       4.5494     YZ      -0.4718     ZZ    -177.7370

 Total job time:  284.59s(wall), 9006.70s(cpu)
        *  Thank you very much for using Q-Chem.  Have a nice day.  *
