 Q-Chem 5.4, Q-Chem, Inc., Pleasanton, CA (2021)
 Q-Chem 5.4.0 for Intel X86 EM64T Linux

User input:
--------------------------------------------------------------
$molecule
0 1
C	-0.129743	-6.741404	-0.221766
C	-0.782726	-6.155638	-1.352515
C	0.411926	-5.791452	0.717339
C	-0.921816	-4.803786	-1.593885
H	-1.221908	-6.821518	-2.112819
C	0.266682	-4.378638	0.464360
C	-0.398255	-3.838032	-0.688053
C	0.789694	-3.413062	1.369108
C	-0.542349	-2.426473	-0.939002
C	0.652589	-2.059348	1.130409
C	-0.000000	-1.478216	-0.000000
H	1.092453	-1.394783	1.891446
C	1.131595	-6.187987	1.967519
C	1.504912	-3.798164	2.608118
N	1.625174	-5.170003	2.819813
C	-1.639129	-4.424987	-2.836188
C	-1.263477	-2.036627	-2.189558
N	-1.756898	-3.049156	-3.042237
O	1.324787	-7.353131	2.307845
O	1.967354	-2.986854	3.407213
O	-2.095892	-5.248946	-3.625890
O	-1.468685	-0.878829	-2.547850
C	2.330564	-5.563799	4.043674
H	2.352178	-6.664085	4.083407
H	1.807263	-5.147101	4.925490
H	3.356568	-5.148785	4.031877
C	-2.452080	-2.587487	-4.247206
H	-2.774302	-3.483329	-4.803187
H	-1.773301	-1.964972	-4.860536
H	-3.321351	-1.962932	-3.966607
H	-0.037043	-7.822318	-0.060567
C	0.000000	0.000000	0.000000
S	0.271091	0.745405	1.580530
C	0.831198	2.284363	0.904911
C	0.341175	0.937861	-0.985400
C	0.792631	2.178516	-0.493528
H	0.260601	0.716417	-2.059934
H	1.093860	3.006347	-1.152593
H	1.132330	3.111961	1.556025
$end

$rem
JOBTYPE		SP
EXCHANGE	HF
CORRELATION	pRIMP2
BASIS		cc-pvtz
METHOD		rimp2
AUX_BASIS	rimp2-cc-pvtz
SOLVENT_METHOD	PCM
PURECART	11111
SYMMETRY	false
MEM_TOTAL	110000
SCF_CONVERGENCE = 6
THRESH=10
GUI = 2
$end

$solvent
dielectric 4.90
$end
--------------------------------------------------------------

             Standard Nuclear Orientation (Angstroms)
    I     Atom           X                Y                Z
 ----------------------------------------------------------------
    1      C      -0.1297430000    -6.7414040000    -0.2217660000
    2      C      -0.7827260000    -6.1556380000    -1.3525150000
    3      C       0.4119260000    -5.7914520000     0.7173390000
    4      C      -0.9218160000    -4.8037860000    -1.5938850000
    5      H      -1.2219080000    -6.8215180000    -2.1128190000
    6      C       0.2666820000    -4.3786380000     0.4643600000
    7      C      -0.3982550000    -3.8380320000    -0.6880530000
    8      C       0.7896940000    -3.4130620000     1.3691080000
    9      C      -0.5423490000    -2.4264730000    -0.9390020000
   10      C       0.6525890000    -2.0593480000     1.1304090000
   11      C       0.0000000000    -1.4782160000     0.0000000000
   12      H       1.0924530000    -1.3947830000     1.8914460000
   13      C       1.1315950000    -6.1879870000     1.9675190000
   14      C       1.5049120000    -3.7981640000     2.6081180000
   15      N       1.6251740000    -5.1700030000     2.8198130000
   16      C      -1.6391290000    -4.4249870000    -2.8361880000
   17      C      -1.2634770000    -2.0366270000    -2.1895580000
   18      N      -1.7568980000    -3.0491560000    -3.0422370000
   19      O       1.3247870000    -7.3531310000     2.3078450000
   20      O       1.9673540000    -2.9868540000     3.4072130000
   21      O      -2.0958920000    -5.2489460000    -3.6258900000
   22      O      -1.4686850000    -0.8788290000    -2.5478500000
   23      C       2.3305640000    -5.5637990000     4.0436740000
   24      H       2.3521780000    -6.6640850000     4.0834070000
   25      H       1.8072630000    -5.1471010000     4.9254900000
   26      H       3.3565680000    -5.1487850000     4.0318770000
   27      C      -2.4520800000    -2.5874870000    -4.2472060000
   28      H      -2.7743020000    -3.4833290000    -4.8031870000
   29      H      -1.7733010000    -1.9649720000    -4.8605360000
   30      H      -3.3213510000    -1.9629320000    -3.9666070000
   31      H      -0.0370430000    -7.8223180000    -0.0605670000
   32      C       0.0000000000     0.0000000000     0.0000000000
   33      S       0.2710910000     0.7454050000     1.5805300000
   34      C       0.8311980000     2.2843630000     0.9049110000
   35      C       0.3411750000     0.9378610000    -0.9854000000
   36      C       0.7926310000     2.1785160000    -0.4935280000
   37      H       0.2606010000     0.7164170000    -2.0599340000
   38      H       1.0938600000     3.0063470000    -1.1525930000
   39      H       1.1323300000     3.1119610000     1.5560250000
 ----------------------------------------------------------------

   10   -1570.6829916222      7.50e-07  Convergence criterion met
 Total energy in the final basis set =    -1570.6829916222
        RIMP2         total energy =     -1575.3110784499 a.u.

                    Orbital Energies (a.u.)
 --------------------------------------------------------------

 Alpha MOs
 -- Occupied --
-91.9929 -20.5584 -20.5562 -20.5550 -20.5537 -15.6310 -15.6299 -11.3998
-11.3953 -11.3913 -11.3905 -11.3184 -11.3020 -11.3001 -11.2990 -11.2956
-11.2951 -11.2914 -11.2906 -11.2864 -11.2837 -11.2793 -11.2755 -11.2644
-11.2644 -11.2612 -11.2516  -8.9929  -6.6736  -6.6731  -6.6725  -1.4247
 -1.4234  -1.4040  -1.4024  -1.2671  -1.2646  -1.2169  -1.1790  -1.1437
 -1.1162  -1.0636  -1.0491  -0.9924  -0.9908  -0.9878  -0.9585  -0.9471
 -0.8968  -0.8786  -0.8780  -0.8603  -0.7965  -0.7792  -0.7725  -0.7621
 -0.7361  -0.7176  -0.7049  -0.6948  -0.6807  -0.6735  -0.6660  -0.6618
 -0.6560  -0.6416  -0.6365  -0.6326  -0.6283  -0.6127  -0.5883  -0.5841
 -0.5800  -0.5733  -0.5663  -0.5631  -0.5617  -0.5556  -0.5525  -0.5477
 -0.5398  -0.5261  -0.5227  -0.5121  -0.4829  -0.4682  -0.4675  -0.4628
 -0.4596  -0.4527  -0.4281  -0.4183  -0.4090  -0.3729  -0.3544  -0.3362
 -0.3032

          Ground-State Mulliken Net Atomic Charges

     Atom                 Charge (a.u.)
  ----------------------------------------
      1 C                    -0.141366
      2 C                    -0.108870
      3 C                    -0.033611
      4 C                    -0.005186
      5 H                     0.188360
      6 C                    -0.000050
      7 C                     0.073554
      8 C                     0.033846
      9 C                    -0.056983
     10 C                    -0.164090
     11 C                     0.061953
     12 H                     0.179278
     13 C                     0.358825
     14 C                     0.362961
     15 N                    -0.101527
     16 C                     0.358829
     17 C                     0.358105
     18 N                    -0.094652
     19 O                    -0.464575
     20 O                    -0.476416
     21 O                    -0.482643
     22 O                    -0.471028
     23 C                    -0.201223
     24 H                     0.141047
     25 H                     0.112473
     26 H                     0.112387
     27 C                    -0.197102
     28 H                     0.133927
     29 H                     0.111902
     30 H                     0.113119
     31 H                     0.212999
     32 C                    -0.026200
     33 S                     0.011935
     34 C                    -0.168097
     35 C                    -0.104434
     36 C                    -0.237623
     37 H                     0.202265
     38 H                     0.191879
     39 H                     0.216037
  ----------------------------------------
  Sum of atomic charges =     0.000000

                    Cartesian Multipole Moments
 -----------------------------------------------------------------
    Charge (ESU x 10^10)
                 0.0000
    Dipole Moment (Debye)
         X       1.0286      Y       1.9048      Z      -0.7193
       Tot       2.2812
    Quadrupole Moments (Debye-Ang)
        XX    -167.8676     XY       3.7736     YY    -168.4731
        XZ      -8.8257     YZ       0.8285     ZZ    -173.0373

 Total job time:  269.16s(wall), 8472.13s(cpu)
        *  Thank you very much for using Q-Chem.  Have a nice day.  *
