 Q-Chem 5.4, Q-Chem, Inc., Pleasanton, CA (2021)
 Q-Chem 5.4.0 for Intel X86 EM64T Linux

User input:
--------------------------------------------------------------
$molecule
0 1
C	-0.089263	-6.741404	-0.240927
C	-0.535973	-6.155638	-1.467886
C	0.281103	-5.791452	0.777972
C	-0.631036	-4.803786	-1.729742
H	-0.836458	-6.821518	-2.292903
C	0.181995	-4.378638	0.503614
C	-0.272725	-3.838032	-0.746756
C	0.539954	-3.413062	1.485437
C	-0.371053	-2.426473	-1.018915
C	0.446381	-2.059348	1.226557
C	-0.000000	-1.478216	-0.000000
H	0.747410	-1.394783	2.052413
C	0.772747	-6.187987	2.134128
C	1.029154	-3.798164	2.829820
N	1.110828	-5.170003	3.059182
C	-1.121728	-4.424987	-3.077731
C	-0.864069	-2.036627	-2.375694
N	-1.201928	-3.049156	-3.301101
O	0.903908	-7.353131	2.502830
O	1.345809	-2.986854	3.697078
O	-1.434422	-5.248946	-3.934752
O	-1.003943	-0.878829	-2.764177
C	1.592981	-5.563799	4.386939
H	1.607367	-6.664085	4.429822
H	0.924504	-5.147101	5.164489
H	2.605446	-5.148785	4.553486
C	-1.677308	-2.587487	-4.608481
H	-1.898089	-3.483329	-5.211969
H	-0.902337	-1.964972	-5.094624
H	-2.582098	-1.962932	-4.483092
H	-0.025963	-7.822318	-0.066080
C	0.000000	0.000000	0.000000
S	0.271091	0.745405	1.580530
C	0.831198	2.284363	0.904911
C	0.341175	0.937861	-0.985400
C	0.792631	2.178516	-0.493528
H	0.260601	0.716417	-2.059934
H	1.093860	3.006347	-1.152593
H	1.132330	3.111961	1.556025
$end

$rem
JOBTYPE		SP
EXCHANGE	HF
CORRELATION	pRIMP2
BASIS		cc-pvtz
METHOD		rimp2
AUX_BASIS	rimp2-cc-pvtz
SOLVENT_METHOD	PCM
PURECART	11111
SYMMETRY	false
MEM_TOTAL	110000
SCF_CONVERGENCE = 6
THRESH=10
GUI = 2
$end

$solvent
dielectric 4.90
$end
--------------------------------------------------------------

             Standard Nuclear Orientation (Angstroms)
    I     Atom           X                Y                Z
 ----------------------------------------------------------------
    1      C      -0.0892630000    -6.7414040000    -0.2409270000
    2      C      -0.5359730000    -6.1556380000    -1.4678860000
    3      C       0.2811030000    -5.7914520000     0.7779720000
    4      C      -0.6310360000    -4.8037860000    -1.7297420000
    5      H      -0.8364580000    -6.8215180000    -2.2929030000
    6      C       0.1819950000    -4.3786380000     0.5036140000
    7      C      -0.2727250000    -3.8380320000    -0.7467560000
    8      C       0.5399540000    -3.4130620000     1.4854370000
    9      C      -0.3710530000    -2.4264730000    -1.0189150000
   10      C       0.4463810000    -2.0593480000     1.2265570000
   11      C       0.0000000000    -1.4782160000     0.0000000000
   12      H       0.7474100000    -1.3947830000     2.0524130000
   13      C       0.7727470000    -6.1879870000     2.1341280000
   14      C       1.0291540000    -3.7981640000     2.8298200000
   15      N       1.1108280000    -5.1700030000     3.0591820000
   16      C      -1.1217280000    -4.4249870000    -3.0777310000
   17      C      -0.8640690000    -2.0366270000    -2.3756940000
   18      N      -1.2019280000    -3.0491560000    -3.3011010000
   19      O       0.9039080000    -7.3531310000     2.5028300000
   20      O       1.3458090000    -2.9868540000     3.6970780000
   21      O      -1.4344220000    -5.2489460000    -3.9347520000
   22      O      -1.0039430000    -0.8788290000    -2.7641770000
   23      C       1.5929810000    -5.5637990000     4.3869390000
   24      H       1.6073670000    -6.6640850000     4.4298220000
   25      H       0.9245040000    -5.1471010000     5.1644890000
   26      H       2.6054460000    -5.1487850000     4.5534860000
   27      C      -1.6773080000    -2.5874870000    -4.6084810000
   28      H      -1.8980890000    -3.4833290000    -5.2119690000
   29      H      -0.9023370000    -1.9649720000    -5.0946240000
   30      H      -2.5820980000    -1.9629320000    -4.4830920000
   31      H      -0.0259630000    -7.8223180000    -0.0660800000
   32      C       0.0000000000     0.0000000000     0.0000000000
   33      S       0.2710910000     0.7454050000     1.5805300000
   34      C       0.8311980000     2.2843630000     0.9049110000
   35      C       0.3411750000     0.9378610000    -0.9854000000
   36      C       0.7926310000     2.1785160000    -0.4935280000
   37      H       0.2606010000     0.7164170000    -2.0599340000
   38      H       1.0938600000     3.0063470000    -1.1525930000
   39      H       1.1323300000     3.1119610000     1.5560250000
 ----------------------------------------------------------------

   10   -1570.6811801169      7.87e-07  Convergence criterion met
 Total energy in the final basis set =    -1570.6811801169
        RIMP2         total energy =     -1575.3099524737 a.u.

                    Orbital Energies (a.u.)
 --------------------------------------------------------------

 Alpha MOs
 -- Occupied --
-91.9930 -20.5584 -20.5563 -20.5551 -20.5534 -15.6310 -15.6299 -11.3997
-11.3956 -11.3911 -11.3905 -11.3191 -11.3018 -11.2997 -11.2979 -11.2949
-11.2942 -11.2920 -11.2910 -11.2866 -11.2831 -11.2789 -11.2758 -11.2645
-11.2644 -11.2600 -11.2514  -8.9931  -6.6739  -6.6733  -6.6727  -1.4247
 -1.4239  -1.4040  -1.4028  -1.2671  -1.2647  -1.2167  -1.1793  -1.1437
 -1.1159  -1.0636  -1.0490  -0.9923  -0.9909  -0.9884  -0.9585  -0.9470
 -0.8968  -0.8785  -0.8782  -0.8605  -0.7967  -0.7798  -0.7725  -0.7624
 -0.7357  -0.7192  -0.7041  -0.6946  -0.6812  -0.6738  -0.6661  -0.6619
 -0.6558  -0.6415  -0.6365  -0.6329  -0.6279  -0.6128  -0.5898  -0.5839
 -0.5801  -0.5728  -0.5665  -0.5630  -0.5622  -0.5559  -0.5529  -0.5474
 -0.5388  -0.5258  -0.5236  -0.5126  -0.4825  -0.4683  -0.4664  -0.4617
 -0.4593  -0.4522  -0.4283  -0.4185  -0.4093  -0.3754  -0.3552  -0.3362
 -0.3011

          Ground-State Mulliken Net Atomic Charges

     Atom                 Charge (a.u.)
  ----------------------------------------
      1 C                    -0.143876
      2 C                    -0.109996
      3 C                    -0.030228
      4 C                    -0.005488
      5 H                     0.188152
      6 C                     0.000189
      7 C                     0.073953
      8 C                     0.046095
      9 C                    -0.069799
     10 C                    -0.172017
     11 C                     0.051146
     12 H                     0.174565
     13 C                     0.358244
     14 C                     0.362650
     15 N                    -0.101616
     16 C                     0.358894
     17 C                     0.371364
     18 N                    -0.094233
     19 O                    -0.464428
     20 O                    -0.476799
     21 O                    -0.483260
     22 O                    -0.478399
     23 C                    -0.201237
     24 H                     0.141037
     25 H                     0.112546
     26 H                     0.112370
     27 C                    -0.197478
     28 H                     0.134090
     29 H                     0.111999
     30 H                     0.112920
     31 H                     0.212738
     32 C                    -0.014481
     33 S                     0.008311
     34 C                    -0.164408
     35 C                    -0.100926
     36 C                    -0.245342
     37 H                     0.213015
     38 H                     0.192071
     39 H                     0.217662
  ----------------------------------------
  Sum of atomic charges =     0.000000

                    Cartesian Multipole Moments
 -----------------------------------------------------------------
    Charge (ESU x 10^10)
                 0.0000
    Dipole Moment (Debye)
         X       1.0172      Y       2.1421      Z      -0.6945
       Tot       2.4709
    Quadrupole Moments (Debye-Ang)
        XX    -165.0413     XY       3.7117     YY    -169.1851
        XZ      -6.4910     YZ       0.6196     ZZ    -175.8512

 Total job time:  263.98s(wall), 8263.03s(cpu)
        *  Thank you very much for using Q-Chem.  Have a nice day.  *
