 Q-Chem 5.4, Q-Chem, Inc., Pleasanton, CA (2021)
 Q-Chem 5.4.0 for Intel X86 EM64T Linux

User input:
--------------------------------------------------------------
$molecule
0 1
C	-0.252767	-6.741404	0.046070
C	-1.538656	-6.155638	0.272935
C	0.814966	-5.791452	-0.141739
C	-1.813042	-4.803786	0.321083
H	-2.403318	-6.821518	0.425592
C	0.527566	-4.378638	-0.091779
C	-0.782769	-3.838032	0.138909
C	1.556632	-3.413062	-0.273808
C	-1.067868	-2.426473	0.188483
C	1.285436	-2.059348	-0.226610
C	0.000000	-1.478216	0.000000
H	2.151019	-1.394783	-0.379657
C	2.235891	-6.187987	-0.390420
C	2.965540	-3.798164	-0.522125
N	3.205600	-5.170003	-0.562731
C	-3.225760	-4.424987	0.570244
C	-2.489646	-2.036627	0.438407
N	-3.459662	-3.049156	0.610438
O	2.621768	-7.353131	-0.455563
O	3.874608	-2.986854	-0.683373
O	-4.124059	-5.248946	0.729367
O	-2.896516	-0.878829	0.508697
C	4.596910	-5.563799	-0.806996
H	4.641640	-6.664085	-0.813717
H	5.246567	-5.147101	-0.013655
H	4.936739	-5.148785	-1.775159
C	-4.829729	-2.587487	0.851572
H	-5.462387	-3.483329	0.964204
H	-5.173914	-1.964972	0.003956
H	-4.863360	-1.962932	1.764390
H	-0.069584	-7.822318	0.014094
C	0.000000	0.000000	0.000000
S	0.509686	0.607733	1.580530
C	1.562368	1.862312	0.904911
C	0.641367	0.764613	-0.985400
C	1.489926	1.776040	-0.493528
H	0.489914	0.584081	-2.059934
H	2.056124	2.450920	-1.152593
H	2.128395	2.537007	1.556025
$end

$rem
JOBTYPE		SP
EXCHANGE	HF
CORRELATION	pRIMP2
BASIS		cc-pvtz
METHOD		rimp2
AUX_BASIS	rimp2-cc-pvtz
SOLVENT_METHOD	PCM
PURECART	11111
SYMMETRY	false
MEM_TOTAL	110000
SCF_CONVERGENCE = 6
THRESH=10
GUI = 2
$end

$solvent
dielectric 4.90
$end
--------------------------------------------------------------

             Standard Nuclear Orientation (Angstroms)
    I     Atom           X                Y                Z
 ----------------------------------------------------------------
    1      C      -0.2527670000    -6.7414040000     0.0460700000
    2      C      -1.5386560000    -6.1556380000     0.2729350000
    3      C       0.8149660000    -5.7914520000    -0.1417390000
    4      C      -1.8130420000    -4.8037860000     0.3210830000
    5      H      -2.4033180000    -6.8215180000     0.4255920000
    6      C       0.5275660000    -4.3786380000    -0.0917790000
    7      C      -0.7827690000    -3.8380320000     0.1389090000
    8      C       1.5566320000    -3.4130620000    -0.2738080000
    9      C      -1.0678680000    -2.4264730000     0.1884830000
   10      C       1.2854360000    -2.0593480000    -0.2266100000
   11      C       0.0000000000    -1.4782160000     0.0000000000
   12      H       2.1510190000    -1.3947830000    -0.3796570000
   13      C       2.2358910000    -6.1879870000    -0.3904200000
   14      C       2.9655400000    -3.7981640000    -0.5221250000
   15      N       3.2056000000    -5.1700030000    -0.5627310000
   16      C      -3.2257600000    -4.4249870000     0.5702440000
   17      C      -2.4896460000    -2.0366270000     0.4384070000
   18      N      -3.4596620000    -3.0491560000     0.6104380000
   19      O       2.6217680000    -7.3531310000    -0.4555630000
   20      O       3.8746080000    -2.9868540000    -0.6833730000
   21      O      -4.1240590000    -5.2489460000     0.7293670000
   22      O      -2.8965160000    -0.8788290000     0.5086970000
   23      C       4.5969100000    -5.5637990000    -0.8069960000
   24      H       4.6416400000    -6.6640850000    -0.8137170000
   25      H       5.2465670000    -5.1471010000    -0.0136550000
   26      H       4.9367390000    -5.1487850000    -1.7751590000
   27      C      -4.8297290000    -2.5874870000     0.8515720000
   28      H      -5.4623870000    -3.4833290000     0.9642040000
   29      H      -5.1739140000    -1.9649720000     0.0039560000
   30      H      -4.8633600000    -1.9629320000     1.7643900000
   31      H      -0.0695840000    -7.8223180000     0.0140940000
   32      C       0.0000000000     0.0000000000     0.0000000000
   33      S       0.5096860000     0.6077330000     1.5805300000
   34      C       1.5623680000     1.8623120000     0.9049110000
   35      C       0.6413670000     0.7646130000    -0.9854000000
   36      C       1.4899260000     1.7760400000    -0.4935280000
   37      H       0.4899140000     0.5840810000    -2.0599340000
   38      H       2.0561240000     2.4509200000    -1.1525930000
   39      H       2.1283950000     2.5370070000     1.5560250000
 ----------------------------------------------------------------

   10   -1570.6671217014      8.66e-07  Convergence criterion met
 Total energy in the final basis set =    -1570.6671217014
        RIMP2         total energy =     -1575.2970664081 a.u.

                    Orbital Energies (a.u.)
 --------------------------------------------------------------

 Alpha MOs
 -- Occupied --
-91.9940 -20.5583 -20.5562 -20.5558 -20.5548 -15.6310 -15.6304 -11.3998
-11.3961 -11.3922 -11.3902 -11.3156 -11.3023 -11.3021 -11.2992 -11.2974
-11.2972 -11.2909 -11.2855 -11.2853 -11.2847 -11.2794 -11.2772 -11.2645
-11.2642 -11.2622 -11.2533  -8.9935  -6.6742  -6.6736  -6.6731  -1.4246
 -1.4236  -1.4039  -1.4027  -1.2672  -1.2648  -1.2175  -1.1815  -1.1429
 -1.1167  -1.0627  -1.0491  -0.9925  -0.9915  -0.9880  -0.9588  -0.9471
 -0.8968  -0.8787  -0.8763  -0.8591  -0.7948  -0.7766  -0.7734  -0.7632
 -0.7359  -0.7184  -0.7060  -0.6942  -0.6817  -0.6740  -0.6660  -0.6619
 -0.6565  -0.6419  -0.6374  -0.6336  -0.6291  -0.6126  -0.5849  -0.5847
 -0.5775  -0.5760  -0.5673  -0.5639  -0.5627  -0.5550  -0.5529  -0.5480
 -0.5356  -0.5269  -0.5203  -0.5073  -0.4830  -0.4735  -0.4667  -0.4604
 -0.4592  -0.4531  -0.4276  -0.4179  -0.4080  -0.3665  -0.3407  -0.3349
 -0.3233

          Ground-State Mulliken Net Atomic Charges

     Atom                 Charge (a.u.)
  ----------------------------------------
      1 C                    -0.134256
      2 C                    -0.111295
      3 C                    -0.039757
      4 C                     0.002522
      5 H                     0.188368
      6 C                    -0.002074
      7 C                     0.076915
      8 C                    -0.011271
      9 C                    -0.024404
     10 C                    -0.093390
     11 C                     0.001011
     12 H                     0.187669
     13 C                     0.360006
     14 C                     0.363724
     15 N                    -0.101306
     16 C                     0.358369
     17 C                     0.361823
     18 N                    -0.097440
     19 O                    -0.465264
     20 O                    -0.477881
     21 O                    -0.480351
     22 O                    -0.459048
     23 C                    -0.201433
     24 H                     0.141119
     25 H                     0.112388
     26 H                     0.112115
     27 C                    -0.196551
     28 H                     0.133434
     29 H                     0.113127
     30 H                     0.113205
     31 H                     0.213862
     32 C                     0.001548
     33 S                     0.040276
     34 C                    -0.191094
     35 C                    -0.208810
     36 C                    -0.184600
     37 H                     0.190743
     38 H                     0.194572
     39 H                     0.213431
  ----------------------------------------
  Sum of atomic charges =     0.000000

                    Cartesian Multipole Moments
 -----------------------------------------------------------------
    Charge (ESU x 10^10)
                 0.0000
    Dipole Moment (Debye)
         X       1.6747      Y       1.1228      Z      -0.8873
       Tot       2.2029
    Quadrupole Moments (Debye-Ang)
        XX    -179.4060     XY       6.9697     YY    -170.4675
        XZ       4.1363     YZ       0.5844     ZZ    -157.6998

 Total job time:  286.36s(wall), 8550.21s(cpu)
        *  Thank you very much for using Q-Chem.  Have a nice day.  *
