 Q-Chem 5.4, Q-Chem, Inc., Pleasanton, CA (2021)
 Q-Chem 5.4.0 for Intel X86 EM64T Linux

User input:
--------------------------------------------------------------
$molecule
0 1
C	0.129743	-6.741404	0.221766
C	0.782726	-6.155638	1.352515
C	-0.411926	-5.791452	-0.717339
C	0.921816	-4.803786	1.593885
H	1.221908	-6.821518	2.112819
C	-0.266682	-4.378638	-0.464360
C	0.398255	-3.838032	0.688053
C	-0.789694	-3.413062	-1.369108
C	0.542349	-2.426473	0.939002
C	-0.652589	-2.059348	-1.130409
C	0.000000	-1.478216	0.000000
H	-1.092453	-1.394783	-1.891446
C	-1.131595	-6.187987	-1.967519
C	-1.504912	-3.798164	-2.608118
N	-1.625174	-5.170003	-2.819813
C	1.639129	-4.424987	2.836188
C	1.263477	-2.036627	2.189558
N	1.756898	-3.049156	3.042237
O	-1.324787	-7.353131	-2.307845
O	-1.967354	-2.986854	-3.407213
O	2.095892	-5.248946	3.625890
O	1.468685	-0.878829	2.547850
C	-2.330564	-5.563799	-4.043674
H	-2.352178	-6.664085	-4.083407
H	-1.807263	-5.147101	-4.925490
H	-3.356568	-5.148785	-4.031877
C	2.452080	-2.587487	4.247206
H	2.774302	-3.483329	4.803187
H	1.773301	-1.964972	4.860536
H	3.321351	-1.962932	3.966607
H	0.037043	-7.822318	0.060567
C	0.000000	0.000000	0.000000
S	0.205093	0.766196	1.580530
C	0.628939	2.348114	0.904911
C	0.258137	0.964028	-0.985400
C	0.599745	2.239309	-0.493528
H	0.197169	0.736404	-2.059934
H	0.827678	3.090243	-1.152593
H	0.856796	3.198808	1.556025
$end

$rem
JOBTYPE		SP
EXCHANGE	HF
CORRELATION	pRIMP2
BASIS		cc-pvtz
METHOD		rimp2
AUX_BASIS	rimp2-cc-pvtz
SOLVENT_METHOD	PCM
PURECART	11111
SYMMETRY	false
MEM_TOTAL	110000
SCF_CONVERGENCE = 6
THRESH=10
GUI = 2
$end

$solvent
dielectric 4.90
$end
--------------------------------------------------------------

             Standard Nuclear Orientation (Angstroms)
    I     Atom           X                Y                Z
 ----------------------------------------------------------------
    1      C       0.1297430000    -6.7414040000     0.2217660000
    2      C       0.7827260000    -6.1556380000     1.3525150000
    3      C      -0.4119260000    -5.7914520000    -0.7173390000
    4      C       0.9218160000    -4.8037860000     1.5938850000
    5      H       1.2219080000    -6.8215180000     2.1128190000
    6      C      -0.2666820000    -4.3786380000    -0.4643600000
    7      C       0.3982550000    -3.8380320000     0.6880530000
    8      C      -0.7896940000    -3.4130620000    -1.3691080000
    9      C       0.5423490000    -2.4264730000     0.9390020000
   10      C      -0.6525890000    -2.0593480000    -1.1304090000
   11      C       0.0000000000    -1.4782160000     0.0000000000
   12      H      -1.0924530000    -1.3947830000    -1.8914460000
   13      C      -1.1315950000    -6.1879870000    -1.9675190000
   14      C      -1.5049120000    -3.7981640000    -2.6081180000
   15      N      -1.6251740000    -5.1700030000    -2.8198130000
   16      C       1.6391290000    -4.4249870000     2.8361880000
   17      C       1.2634770000    -2.0366270000     2.1895580000
   18      N       1.7568980000    -3.0491560000     3.0422370000
   19      O      -1.3247870000    -7.3531310000    -2.3078450000
   20      O      -1.9673540000    -2.9868540000    -3.4072130000
   21      O       2.0958920000    -5.2489460000     3.6258900000
   22      O       1.4686850000    -0.8788290000     2.5478500000
   23      C      -2.3305640000    -5.5637990000    -4.0436740000
   24      H      -2.3521780000    -6.6640850000    -4.0834070000
   25      H      -1.8072630000    -5.1471010000    -4.9254900000
   26      H      -3.3565680000    -5.1487850000    -4.0318770000
   27      C       2.4520800000    -2.5874870000     4.2472060000
   28      H       2.7743020000    -3.4833290000     4.8031870000
   29      H       1.7733010000    -1.9649720000     4.8605360000
   30      H       3.3213510000    -1.9629320000     3.9666070000
   31      H       0.0370430000    -7.8223180000     0.0605670000
   32      C       0.0000000000     0.0000000000     0.0000000000
   33      S       0.2050930000     0.7661960000     1.5805300000
   34      C       0.6289390000     2.3481140000     0.9049110000
   35      C       0.2581370000     0.9640280000    -0.9854000000
   36      C       0.5997450000     2.2393090000    -0.4935280000
   37      H       0.1971690000     0.7364040000    -2.0599340000
   38      H       0.8276780000     3.0902430000    -1.1525930000
   39      H       0.8567960000     3.1988080000     1.5560250000
 ----------------------------------------------------------------

   10   -1570.6487927788      8.61e-07  Convergence criterion met
 Total energy in the final basis set =    -1570.6487927788
        RIMP2         total energy =     -1575.2876808544 a.u.

                    Orbital Energies (a.u.)
 --------------------------------------------------------------

 Alpha MOs
 -- Occupied --
-91.9807 -20.5588 -20.5567 -20.5543 -20.5529 -15.6314 -15.6313 -11.4001
-11.3984 -11.3919 -11.3909 -11.3194 -11.3024 -11.3012 -11.3000 -11.2958
-11.2947 -11.2870 -11.2852 -11.2839 -11.2795 -11.2789 -11.2774 -11.2651
-11.2647 -11.2585 -11.2408  -8.9807  -6.6610  -6.6603  -6.6596  -1.4287
 -1.4251  -1.4061  -1.4045  -1.2685  -1.2662  -1.2168  -1.1716  -1.1424
 -1.1167  -1.0615  -1.0494  -0.9930  -0.9881  -0.9805  -0.9592  -0.9470
 -0.8968  -0.8800  -0.8772  -0.8626  -0.7930  -0.7774  -0.7755  -0.7587
 -0.7322  -0.7224  -0.7029  -0.6927  -0.6871  -0.6737  -0.6670  -0.6628
 -0.6571  -0.6404  -0.6388  -0.6363  -0.6280  -0.6138  -0.5842  -0.5819
 -0.5795  -0.5720  -0.5687  -0.5648  -0.5637  -0.5560  -0.5552  -0.5489
 -0.5339  -0.5239  -0.5216  -0.5174  -0.4850  -0.4715  -0.4655  -0.4636
 -0.4569  -0.4357  -0.4241  -0.4157  -0.4090  -0.3715  -0.3369  -0.3235
 -0.2989

          Ground-State Mulliken Net Atomic Charges

     Atom                 Charge (a.u.)
  ----------------------------------------
      1 C                    -0.144129
      2 C                    -0.109024
      3 C                    -0.034502
      4 C                    -0.005425
      5 H                     0.188245
      6 C                    -0.005384
      7 C                     0.083695
      8 C                     0.004228
      9 C                    -0.086825
     10 C                    -0.154237
     11 C                     0.103409
     12 H                     0.183058
     13 C                     0.360554
     14 C                     0.366427
     15 N                    -0.101484
     16 C                     0.359374
     17 C                     0.404002
     18 N                    -0.094851
     19 O                    -0.464120
     20 O                    -0.476301
     21 O                    -0.481837
     22 O                    -0.454960
     23 C                    -0.201026
     24 H                     0.141157
     25 H                     0.112249
     26 H                     0.112494
     27 C                    -0.197737
     28 H                     0.134609
     29 H                     0.113159
     30 H                     0.113141
     31 H                     0.212809
     32 C                    -0.069234
     33 S                     0.090815
     34 C                    -0.196853
     35 C                    -0.144447
     36 C                    -0.246422
     37 H                     0.189998
     38 H                     0.186119
     39 H                     0.209254
  ----------------------------------------
  Sum of atomic charges =     0.000000

                    Cartesian Multipole Moments
 -----------------------------------------------------------------
    Charge (ESU x 10^10)
                 0.0000
    Dipole Moment (Debye)
         X       0.9038      Y       1.1188      Z      -0.0651
       Tot       1.4397
    Quadrupole Moments (Debye-Ang)
        XX    -168.2058     XY       2.7070     YY    -170.0288
        XZ      -7.4862     YZ       0.6742     ZZ    -171.2751

 Total job time:  251.87s(wall), 7481.96s(cpu)
        *  Thank you very much for using Q-Chem.  Have a nice day.  *
