 Q-Chem 5.4, Q-Chem, Inc., Pleasanton, CA (2021)
 Q-Chem 5.4.0 for Intel X86 EM64T Linux

User input:
--------------------------------------------------------------
$molecule
0 1
C	-0.197767	-6.741404	-0.164018
C	-1.198109	-6.155638	-1.003240
C	0.632428	-5.791452	0.533192
C	-1.411364	-4.803786	-1.182482
H	-1.870845	-6.821518	-1.567483
C	0.409419	-4.378638	0.345145
C	-0.609565	-3.838032	-0.510347
C	1.210332	-3.413062	1.016449
C	-0.830799	-2.426473	-0.696879
C	0.999856	-2.059348	0.839039
C	0.000000	-1.478216	0.000000
H	1.673483	-1.394783	1.403737
C	1.736282	-6.187987	1.461835
C	2.306183	-3.798164	1.936119
N	2.491597	-5.170003	2.093916
C	-2.510310	-4.424987	-2.104529
C	-1.936153	-2.036627	-1.625377
N	-2.691451	-3.049156	-2.257873
O	2.034222	-7.353131	1.715561
O	3.014044	-2.986854	2.528858
O	-3.209622	-5.248946	-2.690385
O	-2.251529	-0.878829	-1.891876
C	3.573032	-5.563799	3.002711
H	3.606932	-6.664085	3.032655
H	3.382888	-5.147101	4.010326
H	4.533125	-5.148785	2.640711
C	-3.756832	-2.587487	-3.152408
H	-4.249778	-3.483329	-3.564653
H	-3.328759	-1.964972	-3.960905
H	-4.477709	-1.962932	-2.591422
H	-0.055524	-7.822318	-0.044245
C	0.000000	0.000000	0.000000
S	0.068929	0.790170	1.580530
C	0.211639	2.421655	0.904911
C	0.086813	0.994207	-0.985400
C	0.201782	2.309433	-0.493528
H	0.066299	0.759454	-2.059934
H	0.278488	3.187020	-1.152593
H	0.288312	3.298992	1.556025
$end

$rem
JOBTYPE		SP
EXCHANGE	HF
CORRELATION	pRIMP2
BASIS		cc-pvtz
METHOD		rimp2
AUX_BASIS	rimp2-cc-pvtz
SOLVENT_METHOD	PCM
PURECART	11111
SYMMETRY	false
MEM_TOTAL	110000
SCF_CONVERGENCE = 6
THRESH=10
GUI = 2
$end

$solvent
dielectric 4.90
$end
--------------------------------------------------------------

             Standard Nuclear Orientation (Angstroms)
    I     Atom           X                Y                Z
 ----------------------------------------------------------------
    1      C      -0.1977670000    -6.7414040000    -0.1640180000
    2      C      -1.1981090000    -6.1556380000    -1.0032400000
    3      C       0.6324280000    -5.7914520000     0.5331920000
    4      C      -1.4113640000    -4.8037860000    -1.1824820000
    5      H      -1.8708450000    -6.8215180000    -1.5674830000
    6      C       0.4094190000    -4.3786380000     0.3451450000
    7      C      -0.6095650000    -3.8380320000    -0.5103470000
    8      C       1.2103320000    -3.4130620000     1.0164490000
    9      C      -0.8307990000    -2.4264730000    -0.6968790000
   10      C       0.9998560000    -2.0593480000     0.8390390000
   11      C       0.0000000000    -1.4782160000     0.0000000000
   12      H       1.6734830000    -1.3947830000     1.4037370000
   13      C       1.7362820000    -6.1879870000     1.4618350000
   14      C       2.3061830000    -3.7981640000     1.9361190000
   15      N       2.4915970000    -5.1700030000     2.0939160000
   16      C      -2.5103100000    -4.4249870000    -2.1045290000
   17      C      -1.9361530000    -2.0366270000    -1.6253770000
   18      N      -2.6914510000    -3.0491560000    -2.2578730000
   19      O       2.0342220000    -7.3531310000     1.7155610000
   20      O       3.0140440000    -2.9868540000     2.5288580000
   21      O      -3.2096220000    -5.2489460000    -2.6903850000
   22      O      -2.2515290000    -0.8788290000    -1.8918760000
   23      C       3.5730320000    -5.5637990000     3.0027110000
   24      H       3.6069320000    -6.6640850000     3.0326550000
   25      H       3.3828880000    -5.1471010000     4.0103260000
   26      H       4.5331250000    -5.1487850000     2.6407110000
   27      C      -3.7568320000    -2.5874870000    -3.1524080000
   28      H      -4.2497780000    -3.4833290000    -3.5646530000
   29      H      -3.3287590000    -1.9649720000    -3.9609050000
   30      H      -4.4777090000    -1.9629320000    -2.5914220000
   31      H      -0.0555240000    -7.8223180000    -0.0442450000
   32      C       0.0000000000     0.0000000000     0.0000000000
   33      S       0.0689290000     0.7901700000     1.5805300000
   34      C       0.2116390000     2.4216550000     0.9049110000
   35      C       0.0868130000     0.9942070000    -0.9854000000
   36      C       0.2017820000     2.3094330000    -0.4935280000
   37      H       0.0662990000     0.7594540000    -2.0599340000
   38      H       0.2784880000     3.1870200000    -1.1525930000
   39      H       0.2883120000     3.2989920000     1.5560250000
 ----------------------------------------------------------------

   10   -1570.6917097397      7.02e-07  Convergence criterion met
 Total energy in the final basis set =    -1570.6917097397
        RIMP2         total energy =     -1575.3164556449 a.u.

                    Orbital Energies (a.u.)
 --------------------------------------------------------------

 Alpha MOs
 -- Occupied --
-91.9936 -20.5587 -20.5564 -20.5556 -20.5549 -15.6313 -15.6307 -11.4003
-11.3963 -11.3925 -11.3908 -11.3172 -11.3045 -11.3029 -11.3009 -11.2983
-11.2977 -11.2926 -11.2868 -11.2859 -11.2845 -11.2805 -11.2784 -11.2647
-11.2646 -11.2568 -11.2508  -8.9930  -6.6738  -6.6733  -6.6727  -1.4250
 -1.4238  -1.4043  -1.4029  -1.2676  -1.2652  -1.2178  -1.1761  -1.1445
 -1.1176  -1.0638  -1.0502  -0.9930  -0.9901  -0.9845  -0.9592  -0.9482
 -0.8974  -0.8795  -0.8783  -0.8612  -0.7964  -0.7781  -0.7730  -0.7605
 -0.7376  -0.7175  -0.7054  -0.6952  -0.6808  -0.6731  -0.6665  -0.6623
 -0.6568  -0.6422  -0.6374  -0.6333  -0.6297  -0.6128  -0.5867  -0.5844
 -0.5786  -0.5733  -0.5660  -0.5638  -0.5608  -0.5554  -0.5523  -0.5483
 -0.5379  -0.5266  -0.5214  -0.5168  -0.4836  -0.4703  -0.4670  -0.4636
 -0.4602  -0.4534  -0.4284  -0.4183  -0.4091  -0.3658  -0.3540  -0.3363
 -0.3094

          Ground-State Mulliken Net Atomic Charges

     Atom                 Charge (a.u.)
  ----------------------------------------
      1 C                    -0.134931
      2 C                    -0.107681
      3 C                    -0.040721
      4 C                    -0.003759
      5 H                     0.188870
      6 C                    -0.001194
      7 C                     0.073106
      8 C                     0.009202
      9 C                    -0.027189
     10 C                    -0.152691
     11 C                     0.090642
     12 H                     0.186200
     13 C                     0.360560
     14 C                     0.366315
     15 N                    -0.101715
     16 C                     0.360206
     17 C                     0.347010
     18 N                    -0.095152
     19 O                    -0.464558
     20 O                    -0.475805
     21 O                    -0.480943
     22 O                    -0.460252
     23 C                    -0.200953
     24 H                     0.141045
     25 H                     0.112531
     26 H                     0.112422
     27 C                    -0.196235
     28 H                     0.133804
     29 H                     0.112300
     30 H                     0.113486
     31 H                     0.214049
     32 C                    -0.045542
     33 S                     0.027391
     34 C                    -0.202471
     35 C                    -0.141794
     36 C                    -0.209549
     37 H                     0.189120
     38 H                     0.191620
     39 H                     0.213257
  ----------------------------------------
  Sum of atomic charges =     0.000000

                    Cartesian Multipole Moments
 -----------------------------------------------------------------
    Charge (ESU x 10^10)
                 0.0000
    Dipole Moment (Debye)
         X       0.2545      Y       1.2607      Z      -0.9317
       Tot       1.5881
    Quadrupole Moments (Debye-Ang)
        XX    -176.0871     XY       1.4057     YY    -165.0057
        XZ     -10.0794     YZ       1.1935     ZZ    -165.9414

 Total job time:  252.89s(wall), 7344.51s(cpu)
        *  Thank you very much for using Q-Chem.  Have a nice day.  *
