 Q-Chem 5.4, Q-Chem, Inc., Pleasanton, CA (2021)
 Q-Chem 5.4.0 for Intel X86 EM64T Linux

User input:
--------------------------------------------------------------
$molecule
0 1
C	-0.252767	-6.741404	0.046070
C	-1.538656	-6.155638	0.272935
C	0.814966	-5.791452	-0.141739
C	-1.813042	-4.803786	0.321083
H	-2.403318	-6.821518	0.425592
C	0.527566	-4.378638	-0.091779
C	-0.782769	-3.838032	0.138909
C	1.556632	-3.413062	-0.273808
C	-1.067868	-2.426473	0.188483
C	1.285436	-2.059348	-0.226610
C	-0.000000	-1.478216	-0.000000
H	2.151019	-1.394783	-0.379657
C	2.235891	-6.187987	-0.390420
C	2.965540	-3.798164	-0.522125
N	3.205600	-5.170003	-0.562731
C	-3.225760	-4.424987	0.570244
C	-2.489646	-2.036627	0.438407
N	-3.459662	-3.049156	0.610438
O	2.621768	-7.353131	-0.455563
O	3.874608	-2.986854	-0.683373
O	-4.124059	-5.248946	0.729367
O	-2.896516	-0.878829	0.508697
C	4.596910	-5.563799	-0.806996
H	4.641640	-6.664085	-0.813717
H	5.246567	-5.147101	-0.013655
H	4.936739	-5.148785	-1.775159
C	-4.829729	-2.587487	0.851572
H	-5.462387	-3.483329	0.964204
H	-5.173914	-1.964972	0.003956
H	-4.863360	-1.962932	1.764390
H	-0.069584	-7.822318	0.014094
C	0.000000	0.000000	0.000000
S	0.686805	0.396760	1.580530
C	2.105095	1.215640	0.904911
C	0.864201	0.499140	-0.985400
C	2.007514	1.159347	-0.493528
H	0.660136	0.381296	-2.059934
H	2.770388	1.599875	-1.152593
H	2.867745	1.656053	1.556025
$end

$rem
JOBTYPE		SP
EXCHANGE	HF
CORRELATION	pRIMP2
BASIS		cc-pvtz
METHOD		rimp2
AUX_BASIS	rimp2-cc-pvtz
SOLVENT_METHOD	PCM
PURECART	11111
SYMMETRY	false
MEM_TOTAL	110000
SCF_CONVERGENCE = 6
THRESH=10
GUI = 2
$end

$solvent
dielectric 4.90
$end
--------------------------------------------------------------

             Standard Nuclear Orientation (Angstroms)
    I     Atom           X                Y                Z
 ----------------------------------------------------------------
    1      C      -0.2527670000    -6.7414040000     0.0460700000
    2      C      -1.5386560000    -6.1556380000     0.2729350000
    3      C       0.8149660000    -5.7914520000    -0.1417390000
    4      C      -1.8130420000    -4.8037860000     0.3210830000
    5      H      -2.4033180000    -6.8215180000     0.4255920000
    6      C       0.5275660000    -4.3786380000    -0.0917790000
    7      C      -0.7827690000    -3.8380320000     0.1389090000
    8      C       1.5566320000    -3.4130620000    -0.2738080000
    9      C      -1.0678680000    -2.4264730000     0.1884830000
   10      C       1.2854360000    -2.0593480000    -0.2266100000
   11      C       0.0000000000    -1.4782160000     0.0000000000
   12      H       2.1510190000    -1.3947830000    -0.3796570000
   13      C       2.2358910000    -6.1879870000    -0.3904200000
   14      C       2.9655400000    -3.7981640000    -0.5221250000
   15      N       3.2056000000    -5.1700030000    -0.5627310000
   16      C      -3.2257600000    -4.4249870000     0.5702440000
   17      C      -2.4896460000    -2.0366270000     0.4384070000
   18      N      -3.4596620000    -3.0491560000     0.6104380000
   19      O       2.6217680000    -7.3531310000    -0.4555630000
   20      O       3.8746080000    -2.9868540000    -0.6833730000
   21      O      -4.1240590000    -5.2489460000     0.7293670000
   22      O      -2.8965160000    -0.8788290000     0.5086970000
   23      C       4.5969100000    -5.5637990000    -0.8069960000
   24      H       4.6416400000    -6.6640850000    -0.8137170000
   25      H       5.2465670000    -5.1471010000    -0.0136550000
   26      H       4.9367390000    -5.1487850000    -1.7751590000
   27      C      -4.8297290000    -2.5874870000     0.8515720000
   28      H      -5.4623870000    -3.4833290000     0.9642040000
   29      H      -5.1739140000    -1.9649720000     0.0039560000
   30      H      -4.8633600000    -1.9629320000     1.7643900000
   31      H      -0.0695840000    -7.8223180000     0.0140940000
   32      C       0.0000000000     0.0000000000     0.0000000000
   33      S       0.6868050000     0.3967600000     1.5805300000
   34      C       2.1050950000     1.2156400000     0.9049110000
   35      C       0.8642010000     0.4991400000    -0.9854000000
   36      C       2.0075140000     1.1593470000    -0.4935280000
   37      H       0.6601360000     0.3812960000    -2.0599340000
   38      H       2.7703880000     1.5998750000    -1.1525930000
   39      H       2.8677450000     1.6560530000     1.5560250000
 ----------------------------------------------------------------

   11   -1570.6300492870      4.87e-07  Convergence criterion met
 Total energy in the final basis set =    -1570.6300492870
        RIMP2         total energy =     -1575.2691544133 a.u.

                    Orbital Energies (a.u.)
 --------------------------------------------------------------

 Alpha MOs
 -- Occupied --
-91.9977 -20.5574 -20.5549 -20.5528 -20.5524 -15.6302 -15.6281 -11.3988
-11.3926 -11.3902 -11.3891 -11.3152 -11.3067 -11.3000 -11.2964 -11.2941
-11.2938 -11.2937 -11.2825 -11.2818 -11.2770 -11.2745 -11.2727 -11.2707
-11.2642 -11.2629 -11.2571  -8.9975  -6.6781  -6.6774  -6.6771  -1.4238
 -1.4210  -1.4031  -1.4001  -1.2660  -1.2628  -1.2178  -1.1911  -1.1400
 -1.1139  -1.0620  -1.0464  -0.9960  -0.9941  -0.9908  -0.9575  -0.9453
 -0.8947  -0.8767  -0.8729  -0.8563  -0.7944  -0.7764  -0.7735  -0.7656
 -0.7362  -0.7176  -0.7064  -0.6925  -0.6820  -0.6739  -0.6648  -0.6604
 -0.6549  -0.6428  -0.6358  -0.6316  -0.6268  -0.6114  -0.5887  -0.5846
 -0.5791  -0.5759  -0.5672  -0.5627  -0.5613  -0.5542  -0.5520  -0.5467
 -0.5386  -0.5261  -0.5159  -0.4953  -0.4814  -0.4777  -0.4649  -0.4589
 -0.4569  -0.4513  -0.4259  -0.4168  -0.4062  -0.3750  -0.3380  -0.3322
 -0.3213

          Ground-State Mulliken Net Atomic Charges

     Atom                 Charge (a.u.)
  ----------------------------------------
      1 C                    -0.142282
      2 C                    -0.113364
      3 C                    -0.033326
      4 C                     0.002657
      5 H                     0.187311
      6 C                    -0.011109
      7 C                     0.076935
      8 C                    -0.002015
      9 C                    -0.041264
     10 C                    -0.156998
     11 C                     0.059384
     12 H                     0.188318
     13 C                     0.358852
     14 C                     0.359256
     15 N                    -0.100648
     16 C                     0.356939
     17 C                     0.366308
     18 N                    -0.096253
     19 O                    -0.466072
     20 O                    -0.481205
     21 O                    -0.482773
     22 O                    -0.459955
     23 C                    -0.201851
     24 H                     0.141105
     25 H                     0.111898
     26 H                     0.111717
     27 C                    -0.197744
     28 H                     0.132919
     29 H                     0.112647
     30 H                     0.112583
     31 H                     0.212505
     32 C                    -0.114744
     33 S                     0.058145
     34 C                    -0.137519
     35 C                    -0.083893
     36 C                    -0.238094
     37 H                     0.197689
     38 H                     0.196360
     39 H                     0.217580
  ----------------------------------------
  Sum of atomic charges =     0.000000

                    Cartesian Multipole Moments
 -----------------------------------------------------------------
    Charge (ESU x 10^10)
                 0.0000
    Dipole Moment (Debye)
         X       3.1097      Y       1.7028      Z      -0.8081
       Tot       3.6363
    Quadrupole Moments (Debye-Ang)
        XX    -175.5953     XY       6.5008     YY    -178.5957
        XZ       4.9151     YZ       0.5768     ZZ    -156.9397

 Total job time:  300.98s(wall), 8930.75s(cpu)
        *  Thank you very much for using Q-Chem.  Have a nice day.  *
