 Q-Chem 5.4, Q-Chem, Inc., Pleasanton, CA (2021)
 Q-Chem 5.4.0 for Intel X86 EM64T Linux

User input:
--------------------------------------------------------------
$molecule
0 1
C	0.046070	-6.741404	0.252767
C	0.272935	-6.155638	1.538656
C	-0.141739	-5.791452	-0.814966
C	0.321083	-4.803786	1.813042
H	0.425592	-6.821518	2.403318
C	-0.091779	-4.378638	-0.527566
C	0.138909	-3.838032	0.782769
C	-0.273808	-3.413062	-1.556632
C	0.188483	-2.426473	1.067868
C	-0.226610	-2.059348	-1.285436
C	-0.000000	-1.478216	-0.000000
H	-0.379657	-1.394783	-2.151019
C	-0.390420	-6.187987	-2.235891
C	-0.522125	-3.798164	-2.965540
N	-0.562731	-5.170003	-3.205600
C	0.570244	-4.424987	3.225760
C	0.438407	-2.036627	2.489646
N	0.610438	-3.049156	3.459662
O	-0.455563	-7.353131	-2.621768
O	-0.683373	-2.986854	-3.874608
O	0.729367	-5.248946	4.124059
O	0.508697	-0.878829	2.896516
C	-0.806996	-5.563799	-4.596910
H	-0.813717	-6.664085	-4.641640
H	-0.013655	-5.147101	-5.246567
H	-1.775159	-5.148785	-4.936739
C	0.851572	-2.587487	4.829729
H	0.964204	-3.483329	5.462387
H	0.003956	-1.964972	5.173914
H	1.764390	-1.962932	4.863360
H	0.014094	-7.822318	0.069584
C	0.000000	0.000000	0.000000
S	0.335026	0.718942	1.580530
C	1.027130	2.203226	0.904911
C	0.421617	0.904557	-0.985400
C	0.979485	2.101144	-0.493528
H	0.322049	0.690978	-2.059934
H	1.351718	2.899571	-1.152593
H	1.399246	3.001430	1.556025
$end

$rem
JOBTYPE		SP
EXCHANGE	HF
CORRELATION	pRIMP2
BASIS		cc-pvtz
METHOD		rimp2
AUX_BASIS	rimp2-cc-pvtz
SOLVENT_METHOD	PCM
PURECART	11111
SYMMETRY	false
MEM_TOTAL	110000
SCF_CONVERGENCE = 6
THRESH=10
GUI = 2
$end

$solvent
dielectric 4.90
$end
--------------------------------------------------------------

             Standard Nuclear Orientation (Angstroms)
    I     Atom           X                Y                Z
 ----------------------------------------------------------------
    1      C       0.0460700000    -6.7414040000     0.2527670000
    2      C       0.2729350000    -6.1556380000     1.5386560000
    3      C      -0.1417390000    -5.7914520000    -0.8149660000
    4      C       0.3210830000    -4.8037860000     1.8130420000
    5      H       0.4255920000    -6.8215180000     2.4033180000
    6      C      -0.0917790000    -4.3786380000    -0.5275660000
    7      C       0.1389090000    -3.8380320000     0.7827690000
    8      C      -0.2738080000    -3.4130620000    -1.5566320000
    9      C       0.1884830000    -2.4264730000     1.0678680000
   10      C      -0.2266100000    -2.0593480000    -1.2854360000
   11      C       0.0000000000    -1.4782160000     0.0000000000
   12      H      -0.3796570000    -1.3947830000    -2.1510190000
   13      C      -0.3904200000    -6.1879870000    -2.2358910000
   14      C      -0.5221250000    -3.7981640000    -2.9655400000
   15      N      -0.5627310000    -5.1700030000    -3.2056000000
   16      C       0.5702440000    -4.4249870000     3.2257600000
   17      C       0.4384070000    -2.0366270000     2.4896460000
   18      N       0.6104380000    -3.0491560000     3.4596620000
   19      O      -0.4555630000    -7.3531310000    -2.6217680000
   20      O      -0.6833730000    -2.9868540000    -3.8746080000
   21      O       0.7293670000    -5.2489460000     4.1240590000
   22      O       0.5086970000    -0.8788290000     2.8965160000
   23      C      -0.8069960000    -5.5637990000    -4.5969100000
   24      H      -0.8137170000    -6.6640850000    -4.6416400000
   25      H      -0.0136550000    -5.1471010000    -5.2465670000
   26      H      -1.7751590000    -5.1487850000    -4.9367390000
   27      C       0.8515720000    -2.5874870000     4.8297290000
   28      H       0.9642040000    -3.4833290000     5.4623870000
   29      H       0.0039560000    -1.9649720000     5.1739140000
   30      H       1.7643900000    -1.9629320000     4.8633600000
   31      H       0.0140940000    -7.8223180000     0.0695840000
   32      C       0.0000000000     0.0000000000     0.0000000000
   33      S       0.3350260000     0.7189420000     1.5805300000
   34      C       1.0271300000     2.2032260000     0.9049110000
   35      C       0.4216170000     0.9045570000    -0.9854000000
   36      C       0.9794850000     2.1011440000    -0.4935280000
   37      H       0.3220490000     0.6909780000    -2.0599340000
   38      H       1.3517180000     2.8995710000    -1.1525930000
   39      H       1.3992460000     3.0014300000     1.5560250000
 ----------------------------------------------------------------

   11   -1570.6173906763      4.86e-07  Convergence criterion met
 Total energy in the final basis set =    -1570.6173906763
        RIMP2         total energy =     -1575.2630356194 a.u.

                    Orbital Energies (a.u.)
 --------------------------------------------------------------

 Alpha MOs
 -- Occupied --
-91.9773 -20.5607 -20.5590 -20.5570 -20.5542 -15.6333 -15.6316 -11.4024
-11.4002 -11.3920 -11.3912 -11.3223 -11.3023 -11.3012 -11.2973 -11.2943
-11.2925 -11.2878 -11.2845 -11.2826 -11.2789 -11.2777 -11.2693 -11.2662
-11.2648 -11.2606 -11.2399  -8.9771  -6.6575  -6.6558  -6.6548  -1.4389
 -1.4253  -1.4090  -1.4047  -1.2715  -1.2668  -1.2169  -1.1724  -1.1416
 -1.1165  -1.0610  -1.0495  -0.9935  -0.9907  -0.9806  -0.9597  -0.9465
 -0.8983  -0.8807  -0.8777  -0.8639  -0.7928  -0.7802  -0.7778  -0.7589
 -0.7334  -0.7304  -0.7026  -0.6931  -0.6893  -0.6743  -0.6693  -0.6638
 -0.6578  -0.6418  -0.6391  -0.6369  -0.6270  -0.6149  -0.5855  -0.5831
 -0.5810  -0.5772  -0.5712  -0.5652  -0.5616  -0.5571  -0.5566  -0.5496
 -0.5332  -0.5262  -0.5225  -0.5178  -0.4884  -0.4722  -0.4683  -0.4634
 -0.4569  -0.4337  -0.4209  -0.4100  -0.3890  -0.3745  -0.3382  -0.3222
 -0.2943

          Ground-State Mulliken Net Atomic Charges

     Atom                 Charge (a.u.)
  ----------------------------------------
      1 C                    -0.150899
      2 C                    -0.110823
      3 C                    -0.027247
      4 C                    -0.005549
      5 H                     0.187704
      6 C                    -0.000868
      7 C                     0.084450
      8 C                     0.001632
      9 C                    -0.109621
     10 C                    -0.135809
     11 C                     0.075785
     12 H                     0.183192
     13 C                     0.359799
     14 C                     0.363254
     15 N                    -0.101788
     16 C                     0.359020
     17 C                     0.395593
     18 N                    -0.092012
     19 O                    -0.463389
     20 O                    -0.476485
     21 O                    -0.482456
     22 O                    -0.425892
     23 C                    -0.201158
     24 H                     0.141271
     25 H                     0.112362
     26 H                     0.112433
     27 C                    -0.199681
     28 H                     0.135492
     29 H                     0.113882
     30 H                     0.113715
     31 H                     0.212036
     32 C                    -0.027809
     33 S                     0.100808
     34 C                    -0.220159
     35 C                    -0.147619
     36 C                    -0.247359
     37 H                     0.186538
     38 H                     0.182789
     39 H                     0.204870
  ----------------------------------------
  Sum of atomic charges =     0.000000

                    Cartesian Multipole Moments
 -----------------------------------------------------------------
    Charge (ESU x 10^10)
                 0.0000
    Dipole Moment (Debye)
         X       0.9442      Y       1.0050      Z       0.1597
       Tot       1.3882
    Quadrupole Moments (Debye-Ang)
        XX    -162.8675     XY       3.6383     YY    -173.4286
        XZ      -2.2374     YZ       0.2945     ZZ    -174.4249

 Total job time:  292.16s(wall), 8935.48s(cpu)
        *  Thank you very much for using Q-Chem.  Have a nice day.  *
