 Q-Chem 5.4, Q-Chem, Inc., Pleasanton, CA (2021)
 Q-Chem 5.4.0 for Intel X86 EM64T Linux

User input:
--------------------------------------------------------------
$molecule
0 1
C	0.164018	-6.741404	-0.197767
C	1.003240	-6.155638	-1.198109
C	-0.533192	-5.791452	0.632428
C	1.182482	-4.803786	-1.411364
H	1.567483	-6.821518	-1.870845
C	-0.345145	-4.378638	0.409419
C	0.510347	-3.838032	-0.609565
C	-1.016449	-3.413062	1.210332
C	0.696879	-2.426473	-0.830799
C	-0.839039	-2.059348	0.999856
C	-0.000000	-1.478216	-0.000000
H	-1.403737	-1.394783	1.673483
C	-1.461835	-6.187987	1.736282
C	-1.936119	-3.798164	2.306183
N	-2.093916	-5.170003	2.491597
C	2.104529	-4.424987	-2.510310
C	1.625377	-2.036627	-1.936153
N	2.257873	-3.049156	-2.691451
O	-1.715561	-7.353131	2.034222
O	-2.528858	-2.986854	3.014044
O	2.690385	-5.248946	-3.209622
O	1.891876	-0.878829	-2.251529
C	-3.002711	-5.563799	3.573032
H	-3.032655	-6.664085	3.606932
H	-4.010326	-5.147101	3.382888
H	-2.640711	-5.148785	4.533125
C	3.152408	-2.587487	-3.756832
H	3.564653	-3.483329	-4.249778
H	3.960905	-1.964972	-3.328759
H	2.591422	-1.962932	-4.477709
H	0.044245	-7.822318	-0.055524
C	0.000000	0.000000	0.000000
S	0.607475	0.509994	1.580530
C	1.862020	1.562717	0.904911
C	0.764397	0.641624	-0.985400
C	1.775697	1.490335	-0.493528
H	0.583895	0.490135	-2.059934
H	2.450484	2.056643	-1.152593
H	2.536607	2.128872	1.556025
$end

$rem
JOBTYPE		SP
EXCHANGE	HF
CORRELATION	pRIMP2
BASIS		cc-pvtz
METHOD		rimp2
AUX_BASIS	rimp2-cc-pvtz
SOLVENT_METHOD	PCM
PURECART	11111
SYMMETRY	false
MEM_TOTAL	110000
SCF_CONVERGENCE = 6
THRESH=10
GUI = 2
$end

$solvent
dielectric 4.90
$end
--------------------------------------------------------------

             Standard Nuclear Orientation (Angstroms)
    I     Atom           X                Y                Z
 ----------------------------------------------------------------
    1      C       0.1640180000    -6.7414040000    -0.1977670000
    2      C       1.0032400000    -6.1556380000    -1.1981090000
    3      C      -0.5331920000    -5.7914520000     0.6324280000
    4      C       1.1824820000    -4.8037860000    -1.4113640000
    5      H       1.5674830000    -6.8215180000    -1.8708450000
    6      C      -0.3451450000    -4.3786380000     0.4094190000
    7      C       0.5103470000    -3.8380320000    -0.6095650000
    8      C      -1.0164490000    -3.4130620000     1.2103320000
    9      C       0.6968790000    -2.4264730000    -0.8307990000
   10      C      -0.8390390000    -2.0593480000     0.9998560000
   11      C       0.0000000000    -1.4782160000     0.0000000000
   12      H      -1.4037370000    -1.3947830000     1.6734830000
   13      C      -1.4618350000    -6.1879870000     1.7362820000
   14      C      -1.9361190000    -3.7981640000     2.3061830000
   15      N      -2.0939160000    -5.1700030000     2.4915970000
   16      C       2.1045290000    -4.4249870000    -2.5103100000
   17      C       1.6253770000    -2.0366270000    -1.9361530000
   18      N       2.2578730000    -3.0491560000    -2.6914510000
   19      O      -1.7155610000    -7.3531310000     2.0342220000
   20      O      -2.5288580000    -2.9868540000     3.0140440000
   21      O       2.6903850000    -5.2489460000    -3.2096220000
   22      O       1.8918760000    -0.8788290000    -2.2515290000
   23      C      -3.0027110000    -5.5637990000     3.5730320000
   24      H      -3.0326550000    -6.6640850000     3.6069320000
   25      H      -4.0103260000    -5.1471010000     3.3828880000
   26      H      -2.6407110000    -5.1487850000     4.5331250000
   27      C       3.1524080000    -2.5874870000    -3.7568320000
   28      H       3.5646530000    -3.4833290000    -4.2497780000
   29      H       3.9609050000    -1.9649720000    -3.3287590000
   30      H       2.5914220000    -1.9629320000    -4.4777090000
   31      H       0.0442450000    -7.8223180000    -0.0555240000
   32      C       0.0000000000     0.0000000000     0.0000000000
   33      S       0.6074750000     0.5099940000     1.5805300000
   34      C       1.8620200000     1.5627170000     0.9049110000
   35      C       0.7643970000     0.6416240000    -0.9854000000
   36      C       1.7756970000     1.4903350000    -0.4935280000
   37      H       0.5838950000     0.4901350000    -2.0599340000
   38      H       2.4504840000     2.0566430000    -1.1525930000
   39      H       2.5366070000     2.1288720000     1.5560250000
 ----------------------------------------------------------------

   11   -1570.6307434713      5.18e-07  Convergence criterion met
 Total energy in the final basis set =    -1570.6307434713
        RIMP2         total energy =     -1575.2649466878 a.u.

                    Orbital Energies (a.u.)
 --------------------------------------------------------------

 Alpha MOs
 -- Occupied --
-91.9889 -20.5575 -20.5548 -20.5528 -20.5519 -15.6302 -15.6298 -11.3985
-11.3969 -11.3903 -11.3889 -11.3173 -11.3050 -11.3002 -11.2975 -11.2908
-11.2901 -11.2900 -11.2839 -11.2801 -11.2767 -11.2725 -11.2721 -11.2651
-11.2636 -11.2624 -11.2494  -8.9891  -6.6698  -6.6692  -6.6686  -1.4265
 -1.4235  -1.4043  -1.4028  -1.2669  -1.2646  -1.2147  -1.1819  -1.1412
 -1.1132  -1.0605  -1.0462  -0.9934  -0.9909  -0.9885  -0.9578  -0.9465
 -0.8949  -0.8775  -0.8724  -0.8597  -0.7936  -0.7758  -0.7725  -0.7647
 -0.7347  -0.7268  -0.7026  -0.6916  -0.6800  -0.6715  -0.6657  -0.6616
 -0.6543  -0.6403  -0.6358  -0.6336  -0.6255  -0.6110  -0.5888  -0.5867
 -0.5796  -0.5745  -0.5643  -0.5614  -0.5574  -0.5548  -0.5517  -0.5467
 -0.5348  -0.5222  -0.5194  -0.5114  -0.4811  -0.4699  -0.4655  -0.4610
 -0.4546  -0.4470  -0.4276  -0.4178  -0.4070  -0.3734  -0.3402  -0.3351
 -0.3011

          Ground-State Mulliken Net Atomic Charges

     Atom                 Charge (a.u.)
  ----------------------------------------
      1 C                    -0.156276
      2 C                    -0.108899
      3 C                    -0.028165
      4 C                    -0.007590
      5 H                     0.186823
      6 C                    -0.015164
      7 C                     0.084658
      8 C                     0.004579
      9 C                    -0.084709
     10 C                    -0.154062
     11 C                     0.098866
     12 H                     0.173837
     13 C                     0.360297
     14 C                     0.364627
     15 N                    -0.101246
     16 C                     0.358269
     17 C                     0.401341
     18 N                    -0.090314
     19 O                    -0.464802
     20 O                    -0.476840
     21 O                    -0.484218
     22 O                    -0.485725
     23 C                    -0.201551
     24 H                     0.140794
     25 H                     0.112172
     26 H                     0.112142
     27 C                    -0.198989
     28 H                     0.134808
     29 H                     0.112406
     30 H                     0.111958
     31 H                     0.211105
     32 C                    -0.157365
     33 S                     0.027846
     34 C                    -0.144500
     35 C                    -0.027897
     36 C                    -0.219738
     37 H                     0.203525
     38 H                     0.189749
     39 H                     0.218249
  ----------------------------------------
  Sum of atomic charges =     0.000000

                    Cartesian Multipole Moments
 -----------------------------------------------------------------
    Charge (ESU x 10^10)
                 0.0000
    Dipole Moment (Debye)
         X       2.7139      Y       2.5752      Z      -1.2890
       Tot       3.9571
    Quadrupole Moments (Debye-Ang)
        XX    -164.9149     XY       6.9254     YY    -179.1822
        XZ      11.0403     YZ       0.2305     ZZ    -169.4590

 Total job time:  268.14s(wall), 8393.14s(cpu)
        *  Thank you very much for using Q-Chem.  Have a nice day.  *
