 Q-Chem 5.4, Q-Chem, Inc., Pleasanton, CA (2021)
 Q-Chem 5.4.0 for Intel X86 EM64T Linux

User input:
--------------------------------------------------------------
$molecule
0 1
C	0.043160	-6.741404	-0.253280
C	0.269777	-6.155638	-1.539213
C	-0.145543	-5.791452	0.814295
C	0.318377	-4.803786	-1.813519
H	0.422058	-6.821518	-2.403941
C	-0.094194	-4.378638	0.527140
C	0.137191	-3.838032	-0.783072
C	-0.275104	-3.413062	1.556403
C	0.188116	-2.426473	-1.067932
C	-0.226701	-2.059348	1.285420
C	0.000000	-1.478216	-0.000000
H	-0.378931	-1.394783	2.151147
C	-0.397845	-6.187987	2.234582
C	-0.523637	-3.798164	2.965273
N	-0.567586	-5.170003	3.204744
C	0.567421	-4.424987	-3.226257
C	0.439541	-2.036627	-2.489446
N	0.609650	-3.049156	-3.459801
O	-0.468608	-7.353131	2.619468
O	-0.683034	-2.986854	3.874668
O	0.725131	-5.248946	-4.124806
O	0.512648	-0.878829	-2.895819
C	-0.813908	-5.563799	4.595691
H	-0.822891	-6.664085	4.640022
H	-1.781600	-5.147101	4.934830
H	-0.020360	-5.148785	5.246157
C	0.851649	-2.587487	-4.829716
H	0.962191	-3.483329	-5.462742
H	1.765865	-1.964972	-4.863242
H	0.005383	-1.962932	-5.173521
H	0.010555	-7.822318	-0.070208
C	0.000000	0.000000	0.000000
S	0.137535	0.781156	1.580530
C	0.421895	2.393994	0.904911
C	0.173134	0.982857	-0.985400
C	0.402294	2.283058	-0.493528
H	0.132237	0.750786	-2.059934
H	0.555196	3.150621	-1.152593
H	0.574741	3.261310	1.556025
$end

$rem
JOBTYPE		SP
EXCHANGE	HF
CORRELATION	pRIMP2
BASIS		cc-pvtz
METHOD		rimp2
AUX_BASIS	rimp2-cc-pvtz
SOLVENT_METHOD	PCM
PURECART	11111
SYMMETRY	false
MEM_TOTAL	110000
SCF_CONVERGENCE = 6
THRESH=10
GUI = 2
$end

$solvent
dielectric 4.90
$end
--------------------------------------------------------------

             Standard Nuclear Orientation (Angstroms)
    I     Atom           X                Y                Z
 ----------------------------------------------------------------
    1      C       0.0431600000    -6.7414040000    -0.2532800000
    2      C       0.2697770000    -6.1556380000    -1.5392130000
    3      C      -0.1455430000    -5.7914520000     0.8142950000
    4      C       0.3183770000    -4.8037860000    -1.8135190000
    5      H       0.4220580000    -6.8215180000    -2.4039410000
    6      C      -0.0941940000    -4.3786380000     0.5271400000
    7      C       0.1371910000    -3.8380320000    -0.7830720000
    8      C      -0.2751040000    -3.4130620000     1.5564030000
    9      C       0.1881160000    -2.4264730000    -1.0679320000
   10      C      -0.2267010000    -2.0593480000     1.2854200000
   11      C       0.0000000000    -1.4782160000     0.0000000000
   12      H      -0.3789310000    -1.3947830000     2.1511470000
   13      C      -0.3978450000    -6.1879870000     2.2345820000
   14      C      -0.5236370000    -3.7981640000     2.9652730000
   15      N      -0.5675860000    -5.1700030000     3.2047440000
   16      C       0.5674210000    -4.4249870000    -3.2262570000
   17      C       0.4395410000    -2.0366270000    -2.4894460000
   18      N       0.6096500000    -3.0491560000    -3.4598010000
   19      O      -0.4686080000    -7.3531310000     2.6194680000
   20      O      -0.6830340000    -2.9868540000     3.8746680000
   21      O       0.7251310000    -5.2489460000    -4.1248060000
   22      O       0.5126480000    -0.8788290000    -2.8958190000
   23      C      -0.8139080000    -5.5637990000     4.5956910000
   24      H      -0.8228910000    -6.6640850000     4.6400220000
   25      H      -1.7816000000    -5.1471010000     4.9348300000
   26      H      -0.0203600000    -5.1487850000     5.2461570000
   27      C       0.8516490000    -2.5874870000    -4.8297160000
   28      H       0.9621910000    -3.4833290000    -5.4627420000
   29      H       1.7658650000    -1.9649720000    -4.8632420000
   30      H       0.0053830000    -1.9629320000    -5.1735210000
   31      H       0.0105550000    -7.8223180000    -0.0702080000
   32      C       0.0000000000     0.0000000000     0.0000000000
   33      S       0.1375350000     0.7811560000     1.5805300000
   34      C       0.4218950000     2.3939940000     0.9049110000
   35      C       0.1731340000     0.9828570000    -0.9854000000
   36      C       0.4022940000     2.2830580000    -0.4935280000
   37      H       0.1322370000     0.7507860000    -2.0599340000
   38      H       0.5551960000     3.1506210000    -1.1525930000
   39      H       0.5747410000     3.2613100000     1.5560250000
 ----------------------------------------------------------------

   10   -1570.6836490696      8.06e-07  Convergence criterion met
 Total energy in the final basis set =    -1570.6836490696
        RIMP2         total energy =     -1575.3117214282 a.u.

                    Orbital Energies (a.u.)
 --------------------------------------------------------------

 Alpha MOs
 -- Occupied --
-91.9934 -20.5585 -20.5565 -20.5555 -20.5537 -15.6312 -15.6307 -11.3998
-11.3974 -11.3914 -11.3908 -11.3199 -11.3021 -11.3003 -11.2985 -11.2954
-11.2941 -11.2906 -11.2905 -11.2875 -11.2833 -11.2790 -11.2789 -11.2650
-11.2644 -11.2526 -11.2498  -8.9932  -6.6740  -6.6735  -6.6729  -1.4257
 -1.4248  -1.4042  -1.4041  -1.2676  -1.2655  -1.2170  -1.1774  -1.1441
 -1.1163  -1.0637  -1.0495  -0.9926  -0.9902  -0.9870  -0.9588  -0.9475
 -0.8974  -0.8794  -0.8786  -0.8617  -0.7965  -0.7798  -0.7732  -0.7623
 -0.7359  -0.7241  -0.7035  -0.6939  -0.6823  -0.6740  -0.6666  -0.6624
 -0.6561  -0.6415  -0.6376  -0.6341  -0.6281  -0.6129  -0.5910  -0.5837
 -0.5788  -0.5715  -0.5658  -0.5639  -0.5613  -0.5561  -0.5541  -0.5470
 -0.5348  -0.5255  -0.5243  -0.5169  -0.4818  -0.4691  -0.4654  -0.4627
 -0.4582  -0.4505  -0.4294  -0.4193  -0.4099  -0.3773  -0.3549  -0.3367
 -0.2994

          Ground-State Mulliken Net Atomic Charges

     Atom                 Charge (a.u.)
  ----------------------------------------
      1 C                    -0.144010
      2 C                    -0.111311
      3 C                    -0.031464
      4 C                    -0.003430
      5 H                     0.187896
      6 C                     0.001828
      7 C                     0.072391
      8 C                     0.050457
      9 C                    -0.072565
     10 C                    -0.178282
     11 C                     0.071006
     12 H                     0.166055
     13 C                     0.358852
     14 C                     0.366200
     15 N                    -0.101429
     16 C                     0.359447
     17 C                     0.383936
     18 N                    -0.091441
     19 O                    -0.464115
     20 O                    -0.476452
     21 O                    -0.483123
     22 O                    -0.477521
     23 C                    -0.201131
     24 H                     0.141131
     25 H                     0.112451
     26 H                     0.112570
     27 C                    -0.198243
     28 H                     0.134572
     29 H                     0.112811
     30 H                     0.112519
     31 H                     0.212681
     32 C                    -0.010627
     33 S                     0.016553
     34 C                    -0.195215
     35 C                    -0.140508
     36 C                    -0.229767
     37 H                     0.226670
     38 H                     0.191865
     39 H                     0.218744
  ----------------------------------------
  Sum of atomic charges =     0.000000

                    Cartesian Multipole Moments
 -----------------------------------------------------------------
    Charge (ESU x 10^10)
                -0.0000
    Dipole Moment (Debye)
         X       0.4187      Y       2.1628      Z      -0.8690
       Tot       2.3682
    Quadrupole Moments (Debye-Ang)
        XX    -164.2521     XY       2.0737     YY    -168.1248
        XZ       3.6565     YZ       0.5369     ZZ    -177.4336

 Total job time:  296.72s(wall), 9049.41s(cpu)
        *  Thank you very much for using Q-Chem.  Have a nice day.  *
