 Q-Chem 5.4, Q-Chem, Inc., Pleasanton, CA (2021)
 Q-Chem 5.4.0 for Intel X86 EM64T Linux

User input:
--------------------------------------------------------------
$molecule
0 1
C	-0.086486	-6.741404	0.241938
C	-0.532960	-6.155638	1.468983
C	0.284733	-5.791452	-0.776651
C	-0.628455	-4.803786	1.730681
H	-0.833086	-6.821518	2.294130
C	0.184300	-4.378638	-0.502775
C	-0.271086	-3.838032	0.747353
C	0.541191	-3.413062	-1.484986
C	-0.370703	-2.426473	1.019042
C	0.446468	-2.059348	-1.226525
C	0.000000	-1.478216	0.000000
H	0.746717	-1.394783	-2.052666
C	0.779832	-6.187987	-2.131549
C	1.030596	-3.798164	-2.829295
N	1.115461	-5.170003	-3.057496
C	-1.119034	-4.424987	3.078712
C	-0.865151	-2.036627	2.375300
N	-1.201176	-3.049156	3.301374
O	0.916355	-7.353131	-2.498300
O	1.345486	-2.986854	-3.697195
O	-1.430379	-5.248946	3.936224
O	-1.007714	-0.878829	2.762805
C	1.599576	-5.563799	-4.384539
H	1.616121	-6.664085	-4.426636
H	2.611458	-5.147101	-4.550487
H	0.931037	-5.148785	-5.162921
C	-1.677382	-2.587487	4.608454
H	-1.896168	-3.483329	5.212668
H	-2.583531	-1.964972	4.482719
H	-0.903674	-1.962932	5.093988
H	-0.022586	-7.822318	0.067309
C	0.000000	0.000000	0.000000
S	0.205093	0.766196	1.580530
C	0.628939	2.348114	0.904911
C	0.258137	0.964028	-0.985400
C	0.599745	2.239309	-0.493528
H	0.197169	0.736404	-2.059934
H	0.827678	3.090243	-1.152593
H	0.856796	3.198808	1.556025
$end

$rem
JOBTYPE		SP
EXCHANGE	HF
CORRELATION	pRIMP2
BASIS		cc-pvtz
METHOD		rimp2
AUX_BASIS	rimp2-cc-pvtz
SOLVENT_METHOD	PCM
PURECART	11111
SYMMETRY	false
MEM_TOTAL	110000
SCF_CONVERGENCE = 6
THRESH=10
GUI = 2
$end

$solvent
dielectric 4.90
$end
--------------------------------------------------------------

             Standard Nuclear Orientation (Angstroms)
    I     Atom           X                Y                Z
 ----------------------------------------------------------------
    1      C      -0.0864860000    -6.7414040000     0.2419380000
    2      C      -0.5329600000    -6.1556380000     1.4689830000
    3      C       0.2847330000    -5.7914520000    -0.7766510000
    4      C      -0.6284550000    -4.8037860000     1.7306810000
    5      H      -0.8330860000    -6.8215180000     2.2941300000
    6      C       0.1843000000    -4.3786380000    -0.5027750000
    7      C      -0.2710860000    -3.8380320000     0.7473530000
    8      C       0.5411910000    -3.4130620000    -1.4849860000
    9      C      -0.3707030000    -2.4264730000     1.0190420000
   10      C       0.4464680000    -2.0593480000    -1.2265250000
   11      C       0.0000000000    -1.4782160000     0.0000000000
   12      H       0.7467170000    -1.3947830000    -2.0526660000
   13      C       0.7798320000    -6.1879870000    -2.1315490000
   14      C       1.0305960000    -3.7981640000    -2.8292950000
   15      N       1.1154610000    -5.1700030000    -3.0574960000
   16      C      -1.1190340000    -4.4249870000     3.0787120000
   17      C      -0.8651510000    -2.0366270000     2.3753000000
   18      N      -1.2011760000    -3.0491560000     3.3013740000
   19      O       0.9163550000    -7.3531310000    -2.4983000000
   20      O       1.3454860000    -2.9868540000    -3.6971950000
   21      O      -1.4303790000    -5.2489460000     3.9362240000
   22      O      -1.0077140000    -0.8788290000     2.7628050000
   23      C       1.5995760000    -5.5637990000    -4.3845390000
   24      H       1.6161210000    -6.6640850000    -4.4266360000
   25      H       2.6114580000    -5.1471010000    -4.5504870000
   26      H       0.9310370000    -5.1487850000    -5.1629210000
   27      C      -1.6773820000    -2.5874870000     4.6084540000
   28      H      -1.8961680000    -3.4833290000     5.2126680000
   29      H      -2.5835310000    -1.9649720000     4.4827190000
   30      H      -0.9036740000    -1.9629320000     5.0939880000
   31      H      -0.0225860000    -7.8223180000     0.0673090000
   32      C       0.0000000000     0.0000000000     0.0000000000
   33      S       0.2050930000     0.7661960000     1.5805300000
   34      C       0.6289390000     2.3481140000     0.9049110000
   35      C       0.2581370000     0.9640280000    -0.9854000000
   36      C       0.5997450000     2.2393090000    -0.4935280000
   37      H       0.1971690000     0.7364040000    -2.0599340000
   38      H       0.8276780000     3.0902430000    -1.1525930000
   39      H       0.8567960000     3.1988080000     1.5560250000
 ----------------------------------------------------------------

   10   -1570.6682575462      7.96e-07  Convergence criterion met
 Total energy in the final basis set =    -1570.6682575462
        RIMP2         total energy =     -1575.3023911101 a.u.

                    Orbital Energies (a.u.)
 --------------------------------------------------------------

 Alpha MOs
 -- Occupied --
-91.9812 -20.5588 -20.5569 -20.5567 -20.5539 -15.6315 -15.6311 -11.4001
-11.3980 -11.3916 -11.3911 -11.3204 -11.3023 -11.3010 -11.2995 -11.2956
-11.2944 -11.2898 -11.2872 -11.2836 -11.2793 -11.2783 -11.2780 -11.2649
-11.2648 -11.2622 -11.2456  -8.9808  -6.6612  -6.6603  -6.6596  -1.4285
 -1.4252  -1.4058  -1.4046  -1.2683  -1.2662  -1.2170  -1.1739  -1.1430
 -1.1167  -1.0621  -1.0495  -0.9929  -0.9892  -0.9826  -0.9591  -0.9471
 -0.8969  -0.8798  -0.8778  -0.8624  -0.7938  -0.7776  -0.7755  -0.7614
 -0.7322  -0.7216  -0.7035  -0.6935  -0.6874  -0.6746  -0.6671  -0.6629
 -0.6570  -0.6404  -0.6376  -0.6358  -0.6275  -0.6142  -0.5839  -0.5827
 -0.5815  -0.5728  -0.5701  -0.5654  -0.5643  -0.5559  -0.5554  -0.5489
 -0.5328  -0.5244  -0.5211  -0.5187  -0.4882  -0.4734  -0.4649  -0.4635
 -0.4571  -0.4333  -0.4231  -0.4131  -0.4081  -0.3743  -0.3440  -0.3369
 -0.2982

          Ground-State Mulliken Net Atomic Charges

     Atom                 Charge (a.u.)
  ----------------------------------------
      1 C                    -0.145101
      2 C                    -0.110404
      3 C                    -0.030783
      4 C                    -0.004616
      5 H                     0.188333
      6 C                     0.003242
      7 C                     0.084087
      8 C                     0.003876
      9 C                    -0.076016
     10 C                    -0.135219
     11 C                     0.076921
     12 H                     0.180429
     13 C                     0.358827
     14 C                     0.364319
     15 N                    -0.101870
     16 C                     0.358881
     17 C                     0.371960
     18 N                    -0.094590
     19 O                    -0.464034
     20 O                    -0.477178
     21 O                    -0.482374
     22 O                    -0.465573
     23 C                    -0.201230
     24 H                     0.141233
     25 H                     0.112418
     26 H                     0.112417
     27 C                    -0.197552
     28 H                     0.134539
     29 H                     0.113217
     30 H                     0.113294
     31 H                     0.212763
     32 C                     0.002177
     33 S                     0.096596
     34 C                    -0.219041
     35 C                    -0.193583
     36 C                    -0.214799
     37 H                     0.187546
     38 H                     0.187222
     39 H                     0.209665
  ----------------------------------------
  Sum of atomic charges =     0.000000

                    Cartesian Multipole Moments
 -----------------------------------------------------------------
    Charge (ESU x 10^10)
                 0.0000
    Dipole Moment (Debye)
         X       0.3633      Y       1.4265      Z      -0.4616
       Tot       1.5427
    Quadrupole Moments (Debye-Ang)
        XX    -165.7536     XY       2.6722     YY    -169.7703
        XZ       6.3859     YZ       0.6553     ZZ    -174.3138

 Total job time:  259.15s(wall), 7632.39s(cpu)
        *  Thank you very much for using Q-Chem.  Have a nice day.  *
