 Q-Chem 5.4, Q-Chem, Inc., Pleasanton, CA (2021)
 Q-Chem 5.4.0 for Intel X86 EM64T Linux

User input:
--------------------------------------------------------------
$molecule
0 1
C	-0.086486	-6.741404	0.241938
C	-0.532960	-6.155638	1.468983
C	0.284733	-5.791452	-0.776651
C	-0.628455	-4.803786	1.730681
H	-0.833086	-6.821518	2.294130
C	0.184300	-4.378638	-0.502775
C	-0.271086	-3.838032	0.747353
C	0.541191	-3.413062	-1.484986
C	-0.370703	-2.426473	1.019042
C	0.446468	-2.059348	-1.226525
C	0.000000	-1.478216	0.000000
H	0.746717	-1.394783	-2.052666
C	0.779832	-6.187987	-2.131549
C	1.030596	-3.798164	-2.829295
N	1.115461	-5.170003	-3.057496
C	-1.119034	-4.424987	3.078712
C	-0.865151	-2.036627	2.375300
N	-1.201176	-3.049156	3.301374
O	0.916355	-7.353131	-2.498300
O	1.345486	-2.986854	-3.697195
O	-1.430379	-5.248946	3.936224
O	-1.007714	-0.878829	2.762805
C	1.599576	-5.563799	-4.384539
H	1.616121	-6.664085	-4.426636
H	2.611458	-5.147101	-4.550487
H	0.931037	-5.148785	-5.162921
C	-1.677382	-2.587487	4.608454
H	-1.896168	-3.483329	5.212668
H	-2.583531	-1.964972	4.482719
H	-0.903674	-1.962932	5.093988
H	-0.022586	-7.822318	0.067309
C	0.000000	0.000000	0.000000
S	0.068929	0.790170	1.580530
C	0.211639	2.421655	0.904911
C	0.086813	0.994207	-0.985400
C	0.201782	2.309433	-0.493528
H	0.066299	0.759454	-2.059934
H	0.278488	3.187020	-1.152593
H	0.288312	3.298992	1.556025
$end

$rem
JOBTYPE		SP
EXCHANGE	HF
CORRELATION	pRIMP2
BASIS		cc-pvtz
METHOD		rimp2
AUX_BASIS	rimp2-cc-pvtz
SOLVENT_METHOD	PCM
PURECART	11111
SYMMETRY	false
MEM_TOTAL	110000
SCF_CONVERGENCE = 6
THRESH=10
GUI = 2
$end

$solvent
dielectric 4.90
$end
--------------------------------------------------------------

             Standard Nuclear Orientation (Angstroms)
    I     Atom           X                Y                Z
 ----------------------------------------------------------------
    1      C      -0.0864860000    -6.7414040000     0.2419380000
    2      C      -0.5329600000    -6.1556380000     1.4689830000
    3      C       0.2847330000    -5.7914520000    -0.7766510000
    4      C      -0.6284550000    -4.8037860000     1.7306810000
    5      H      -0.8330860000    -6.8215180000     2.2941300000
    6      C       0.1843000000    -4.3786380000    -0.5027750000
    7      C      -0.2710860000    -3.8380320000     0.7473530000
    8      C       0.5411910000    -3.4130620000    -1.4849860000
    9      C      -0.3707030000    -2.4264730000     1.0190420000
   10      C       0.4464680000    -2.0593480000    -1.2265250000
   11      C       0.0000000000    -1.4782160000     0.0000000000
   12      H       0.7467170000    -1.3947830000    -2.0526660000
   13      C       0.7798320000    -6.1879870000    -2.1315490000
   14      C       1.0305960000    -3.7981640000    -2.8292950000
   15      N       1.1154610000    -5.1700030000    -3.0574960000
   16      C      -1.1190340000    -4.4249870000     3.0787120000
   17      C      -0.8651510000    -2.0366270000     2.3753000000
   18      N      -1.2011760000    -3.0491560000     3.3013740000
   19      O       0.9163550000    -7.3531310000    -2.4983000000
   20      O       1.3454860000    -2.9868540000    -3.6971950000
   21      O      -1.4303790000    -5.2489460000     3.9362240000
   22      O      -1.0077140000    -0.8788290000     2.7628050000
   23      C       1.5995760000    -5.5637990000    -4.3845390000
   24      H       1.6161210000    -6.6640850000    -4.4266360000
   25      H       2.6114580000    -5.1471010000    -4.5504870000
   26      H       0.9310370000    -5.1487850000    -5.1629210000
   27      C      -1.6773820000    -2.5874870000     4.6084540000
   28      H      -1.8961680000    -3.4833290000     5.2126680000
   29      H      -2.5835310000    -1.9649720000     4.4827190000
   30      H      -0.9036740000    -1.9629320000     5.0939880000
   31      H      -0.0225860000    -7.8223180000     0.0673090000
   32      C       0.0000000000     0.0000000000     0.0000000000
   33      S       0.0689290000     0.7901700000     1.5805300000
   34      C       0.2116390000     2.4216550000     0.9049110000
   35      C       0.0868130000     0.9942070000    -0.9854000000
   36      C       0.2017820000     2.3094330000    -0.4935280000
   37      H       0.0662990000     0.7594540000    -2.0599340000
   38      H       0.2784880000     3.1870200000    -1.1525930000
   39      H       0.2883120000     3.2989920000     1.5560250000
 ----------------------------------------------------------------

   10   -1570.6646860289      7.88e-07  Convergence criterion met
 Total energy in the final basis set =    -1570.6646860289
        RIMP2         total energy =     -1575.2996807750 a.u.

                    Orbital Energies (a.u.)
 --------------------------------------------------------------

 Alpha MOs
 -- Occupied --
-91.9799 -20.5590 -20.5570 -20.5566 -20.5543 -15.6316 -15.6316 -11.4003
-11.3989 -11.3920 -11.3912 -11.3205 -11.3026 -11.3015 -11.3004 -11.2961
-11.2948 -11.2900 -11.2875 -11.2840 -11.2796 -11.2787 -11.2754 -11.2652
-11.2648 -11.2604 -11.2437  -8.9795  -6.6600  -6.6590  -6.6583  -1.4295
 -1.4253  -1.4064  -1.4047  -1.2688  -1.2664  -1.2173  -1.1726  -1.1430
 -1.1171  -1.0622  -1.0498  -0.9932  -0.9889  -0.9812  -0.9594  -0.9472
 -0.8973  -0.8802  -0.8782  -0.8629  -0.7939  -0.7779  -0.7759  -0.7603
 -0.7323  -0.7229  -0.7032  -0.6934  -0.6880  -0.6745  -0.6674  -0.6631
 -0.6573  -0.6406  -0.6383  -0.6363  -0.6278  -0.6143  -0.5841  -0.5820
 -0.5816  -0.5732  -0.5700  -0.5651  -0.5638  -0.5561  -0.5556  -0.5491
 -0.5331  -0.5235  -0.5219  -0.5194  -0.4881  -0.4731  -0.4664  -0.4638
 -0.4572  -0.4331  -0.4224  -0.4121  -0.4077  -0.3742  -0.3391  -0.3372
 -0.2978

          Ground-State Mulliken Net Atomic Charges

     Atom                 Charge (a.u.)
  ----------------------------------------
      1 C                    -0.144514
      2 C                    -0.110213
      3 C                    -0.032191
      4 C                    -0.004012
      5 H                     0.188422
      6 C                     0.003323
      7 C                     0.082907
      8 C                    -0.001177
      9 C                    -0.078403
     10 C                    -0.133710
     11 C                     0.089392
     12 H                     0.181920
     13 C                     0.359408
     14 C                     0.365828
     15 N                    -0.101880
     16 C                     0.359704
     17 C                     0.376629
     18 N                    -0.094569
     19 O                    -0.463944
     20 O                    -0.476856
     21 O                    -0.482064
     22 O                    -0.459568
     23 C                    -0.201118
     24 H                     0.141222
     25 H                     0.112454
     26 H                     0.112445
     27 C                    -0.197782
     28 H                     0.134679
     29 H                     0.113375
     30 H                     0.113422
     31 H                     0.212907
     32 C                    -0.030450
     33 S                     0.092882
     34 C                    -0.217244
     35 C                    -0.161423
     36 C                    -0.232243
     37 H                     0.187875
     38 H                     0.185563
     39 H                     0.209004
  ----------------------------------------
  Sum of atomic charges =     0.000000

                    Cartesian Multipole Moments
 -----------------------------------------------------------------
    Charge (ESU x 10^10)
                 0.0000
    Dipole Moment (Debye)
         X      -0.0526      Y       1.2078      Z      -0.3160
       Tot       1.2496
    Quadrupole Moments (Debye-Ang)
        XX    -166.3352     XY       0.9444     YY    -169.0045
        XZ       6.0219     YZ       0.5685     ZZ    -174.0169

 Total job time:  292.23s(wall), 7555.07s(cpu)
        *  Thank you very much for using Q-Chem.  Have a nice day.  *
