 Q-Chem 5.4, Q-Chem, Inc., Pleasanton, CA (2021)
 Q-Chem 5.4.0 for Intel X86 EM64T Linux

User input:
--------------------------------------------------------------
$molecule
0 1
C	0.127184	-6.741404	-0.223244
C	0.779949	-6.155638	-1.354118
C	-0.415271	-5.791452	0.715408
C	0.919437	-4.803786	-1.595259
H	1.218801	-6.821518	-2.114613
C	-0.268806	-4.378638	0.463133
C	0.396744	-3.838032	-0.688925
C	-0.790835	-3.413062	1.368449
C	0.542026	-2.426473	-0.939189
C	-0.652669	-2.059348	1.130363
C	-0.000000	-1.478216	-0.000000
H	-1.091814	-1.394783	1.891815
C	-1.138124	-6.187987	1.963749
C	-1.506241	-3.798164	2.607351
N	-1.629443	-5.170003	2.817348
C	1.636646	-4.424987	-2.837621
C	1.264474	-2.036627	-2.188982
N	1.756205	-3.049156	-3.042637
O	-1.336258	-7.353131	2.301222
O	-1.967056	-2.986854	3.407386
O	2.092167	-5.248946	-3.628041
O	1.472160	-0.878829	-2.545844
C	-2.336642	-5.563799	4.040164
H	-2.360245	-6.664085	4.078749
H	-3.361968	-5.147101	4.027880
H	-1.813424	-5.148785	4.922811
C	2.452149	-2.587487	-4.247167
H	2.772531	-3.483329	-4.804209
H	3.322697	-1.964972	-3.965991
H	1.774507	-1.962932	-4.859678
H	0.033931	-7.822318	-0.062364
C	0.000000	0.000000	0.000000
S	0.271091	0.745405	1.580530
C	0.831198	2.284363	0.904911
C	0.341175	0.937861	-0.985400
C	0.792631	2.178516	-0.493528
H	0.260601	0.716417	-2.059934
H	1.093860	3.006347	-1.152593
H	1.132330	3.111961	1.556025
$end

$rem
JOBTYPE		SP
EXCHANGE	HF
CORRELATION	pRIMP2
BASIS		cc-pvtz
METHOD		rimp2
AUX_BASIS	rimp2-cc-pvtz
SOLVENT_METHOD	PCM
PURECART	11111
SYMMETRY	false
MEM_TOTAL	110000
SCF_CONVERGENCE = 6
THRESH=10
GUI = 2
$end

$solvent
dielectric 4.90
$end
--------------------------------------------------------------

             Standard Nuclear Orientation (Angstroms)
    I     Atom           X                Y                Z
 ----------------------------------------------------------------
    1      C       0.1271840000    -6.7414040000    -0.2232440000
    2      C       0.7799490000    -6.1556380000    -1.3541180000
    3      C      -0.4152710000    -5.7914520000     0.7154080000
    4      C       0.9194370000    -4.8037860000    -1.5952590000
    5      H       1.2188010000    -6.8215180000    -2.1146130000
    6      C      -0.2688060000    -4.3786380000     0.4631330000
    7      C       0.3967440000    -3.8380320000    -0.6889250000
    8      C      -0.7908350000    -3.4130620000     1.3684490000
    9      C       0.5420260000    -2.4264730000    -0.9391890000
   10      C      -0.6526690000    -2.0593480000     1.1303630000
   11      C       0.0000000000    -1.4782160000     0.0000000000
   12      H      -1.0918140000    -1.3947830000     1.8918150000
   13      C      -1.1381240000    -6.1879870000     1.9637490000
   14      C      -1.5062410000    -3.7981640000     2.6073510000
   15      N      -1.6294430000    -5.1700030000     2.8173480000
   16      C       1.6366460000    -4.4249870000    -2.8376210000
   17      C       1.2644740000    -2.0366270000    -2.1889820000
   18      N       1.7562050000    -3.0491560000    -3.0426370000
   19      O      -1.3362580000    -7.3531310000     2.3012220000
   20      O      -1.9670560000    -2.9868540000     3.4073860000
   21      O       2.0921670000    -5.2489460000    -3.6280410000
   22      O       1.4721600000    -0.8788290000    -2.5458440000
   23      C      -2.3366420000    -5.5637990000     4.0401640000
   24      H      -2.3602450000    -6.6640850000     4.0787490000
   25      H      -3.3619680000    -5.1471010000     4.0278800000
   26      H      -1.8134240000    -5.1487850000     4.9228110000
   27      C       2.4521490000    -2.5874870000    -4.2471670000
   28      H       2.7725310000    -3.4833290000    -4.8042090000
   29      H       3.3226970000    -1.9649720000    -3.9659910000
   30      H       1.7745070000    -1.9629320000    -4.8596780000
   31      H       0.0339310000    -7.8223180000    -0.0623640000
   32      C       0.0000000000     0.0000000000     0.0000000000
   33      S       0.2710910000     0.7454050000     1.5805300000
   34      C       0.8311980000     2.2843630000     0.9049110000
   35      C       0.3411750000     0.9378610000    -0.9854000000
   36      C       0.7926310000     2.1785160000    -0.4935280000
   37      H       0.2606010000     0.7164170000    -2.0599340000
   38      H       1.0938600000     3.0063470000    -1.1525930000
   39      H       1.1323300000     3.1119610000     1.5560250000
 ----------------------------------------------------------------

   10   -1570.6805598259      8.30e-07  Convergence criterion met
 Total energy in the final basis set =    -1570.6805598259
        RIMP2         total energy =     -1575.3086302387 a.u.

                    Orbital Energies (a.u.)
 --------------------------------------------------------------

 Alpha MOs
 -- Occupied --
-91.9937 -20.5583 -20.5560 -20.5535 -20.5530 -15.6309 -15.6299 -11.3996
-11.3956 -11.3911 -11.3903 -11.3182 -11.3018 -11.2998 -11.2983 -11.2951
-11.2942 -11.2917 -11.2866 -11.2857 -11.2833 -11.2788 -11.2775 -11.2646
-11.2642 -11.2573 -11.2505  -8.9933  -6.6741  -6.6736  -6.6730  -1.4246
 -1.4239  -1.4039  -1.4028  -1.2670  -1.2647  -1.2164  -1.1770  -1.1437
 -1.1158  -1.0628  -1.0487  -0.9922  -0.9898  -0.9866  -0.9585  -0.9475
 -0.8963  -0.8788  -0.8770  -0.8610  -0.7955  -0.7777  -0.7724  -0.7620
 -0.7359  -0.7205  -0.7039  -0.6934  -0.6811  -0.6729  -0.6660  -0.6618
 -0.6557  -0.6412  -0.6364  -0.6333  -0.6278  -0.6123  -0.5887  -0.5836
 -0.5775  -0.5742  -0.5651  -0.5622  -0.5608  -0.5554  -0.5524  -0.5472
 -0.5348  -0.5247  -0.5222  -0.5186  -0.4821  -0.4689  -0.4644  -0.4642
 -0.4585  -0.4515  -0.4282  -0.4183  -0.4089  -0.3738  -0.3521  -0.3363
 -0.3012

          Ground-State Mulliken Net Atomic Charges

     Atom                 Charge (a.u.)
  ----------------------------------------
      1 C                    -0.144193
      2 C                    -0.109404
      3 C                    -0.035557
      4 C                    -0.005744
      5 H                     0.187928
      6 C                    -0.008368
      7 C                     0.079376
      8 C                     0.030320
      9 C                    -0.055644
     10 C                    -0.181768
     11 C                     0.108934
     12 H                     0.169982
     13 C                     0.360337
     14 C                     0.366463
     15 N                    -0.101366
     16 C                     0.359279
     17 C                     0.380338
     18 N                    -0.092514
     19 O                    -0.464496
     20 O                    -0.476223
     21 O                    -0.483033
     22 O                    -0.475962
     23 C                    -0.201123
     24 H                     0.141013
     25 H                     0.112392
     26 H                     0.112442
     27 C                    -0.197686
     28 H                     0.134322
     29 H                     0.112706
     30 H                     0.112036
     31 H                     0.212666
     32 C                    -0.051912
     33 S                     0.035365
     34 C                    -0.196536
     35 C                    -0.140690
     36 C                    -0.201723
     37 H                     0.199756
     38 H                     0.192289
     39 H                     0.216000
  ----------------------------------------
  Sum of atomic charges =     0.000000

                    Cartesian Multipole Moments
 -----------------------------------------------------------------
    Charge (ESU x 10^10)
                 0.0000
    Dipole Moment (Debye)
         X       0.8424      Y       2.1712      Z      -0.9432
       Tot       2.5127
    Quadrupole Moments (Debye-Ang)
        XX    -167.8484     XY       4.0332     YY    -169.3453
        XZ       9.3531     YZ       0.6007     ZZ    -173.1067

 Total job time:  256.65s(wall), 7898.15s(cpu)
        *  Thank you very much for using Q-Chem.  Have a nice day.  *
