 Q-Chem 5.4, Q-Chem, Inc., Pleasanton, CA (2021)
 Q-Chem 5.4.0 for Intel X86 EM64T Linux

User input:
--------------------------------------------------------------
$molecule
0 1
C	-0.256927	-6.741404	0.001478
C	-1.562675	-6.155638	0.001603
C	0.827197	-5.791452	0.001931
C	-1.841253	-4.803786	0.001374
H	-2.440709	-6.821518	0.001794
C	0.535488	-4.378638	0.001227
C	-0.794999	-3.838032	0.000872
C	1.580529	-3.413062	0.000658
C	-1.084374	-2.426473	0.000186
C	1.305258	-2.059348	0.000046
C	0.000000	-1.478216	0.000000
H	2.184267	-1.394783	-0.000369
C	2.269719	-6.187987	0.003770
C	3.011152	-3.798164	0.000767
N	3.254617	-5.170003	0.002465
C	-3.275775	-4.424987	0.001433
C	-2.527951	-2.036627	-0.000576
N	-3.513104	-3.049156	0.000400
O	2.661046	-7.353131	0.006623
O	3.934410	-2.986854	-0.000172
O	-4.188059	-5.248946	0.002151
O	-2.940845	-0.878829	-0.002006
C	4.667206	-5.563799	0.003509
H	4.712423	-6.664085	0.004658
H	5.169231	-5.147101	0.897610
H	5.169992	-5.148785	-0.890935
C	-4.904229	-2.587487	-0.000039
H	-5.546833	-3.483329	0.001022
H	-5.095998	-1.964972	-0.894545
H	-5.095858	-1.962932	0.893071
H	-0.070974	-7.822318	0.001797
C	0.000000	0.000000	0.000000
S	0.137535	0.781156	1.580530
C	0.421895	2.393994	0.904911
C	0.173134	0.982857	-0.985400
C	0.402294	2.283058	-0.493528
H	0.132237	0.750786	-2.059934
H	0.555196	3.150621	-1.152593
H	0.574741	3.261310	1.556025
$end

$rem
JOBTYPE		SP
EXCHANGE	HF
CORRELATION	pRIMP2
BASIS		cc-pvtz
METHOD		rimp2
AUX_BASIS	rimp2-cc-pvtz
SOLVENT_METHOD	PCM
PURECART	11111
SYMMETRY	false
MEM_TOTAL	110000
SCF_CONVERGENCE = 6
THRESH=10
GUI = 2
$end

$solvent
dielectric 4.90
$end
--------------------------------------------------------------

             Standard Nuclear Orientation (Angstroms)
    I     Atom           X                Y                Z
 ----------------------------------------------------------------
    1      C      -0.2569270000    -6.7414040000     0.0014780000
    2      C      -1.5626750000    -6.1556380000     0.0016030000
    3      C       0.8271970000    -5.7914520000     0.0019310000
    4      C      -1.8412530000    -4.8037860000     0.0013740000
    5      H      -2.4407090000    -6.8215180000     0.0017940000
    6      C       0.5354880000    -4.3786380000     0.0012270000
    7      C      -0.7949990000    -3.8380320000     0.0008720000
    8      C       1.5805290000    -3.4130620000     0.0006580000
    9      C      -1.0843740000    -2.4264730000     0.0001860000
   10      C       1.3052580000    -2.0593480000     0.0000460000
   11      C       0.0000000000    -1.4782160000     0.0000000000
   12      H       2.1842670000    -1.3947830000    -0.0003690000
   13      C       2.2697190000    -6.1879870000     0.0037700000
   14      C       3.0111520000    -3.7981640000     0.0007670000
   15      N       3.2546170000    -5.1700030000     0.0024650000
   16      C      -3.2757750000    -4.4249870000     0.0014330000
   17      C      -2.5279510000    -2.0366270000    -0.0005760000
   18      N      -3.5131040000    -3.0491560000     0.0004000000
   19      O       2.6610460000    -7.3531310000     0.0066230000
   20      O       3.9344100000    -2.9868540000    -0.0001720000
   21      O      -4.1880590000    -5.2489460000     0.0021510000
   22      O      -2.9408450000    -0.8788290000    -0.0020060000
   23      C       4.6672060000    -5.5637990000     0.0035090000
   24      H       4.7124230000    -6.6640850000     0.0046580000
   25      H       5.1692310000    -5.1471010000     0.8976100000
   26      H       5.1699920000    -5.1487850000    -0.8909350000
   27      C      -4.9042290000    -2.5874870000    -0.0000390000
   28      H      -5.5468330000    -3.4833290000     0.0010220000
   29      H      -5.0959980000    -1.9649720000    -0.8945450000
   30      H      -5.0958580000    -1.9629320000     0.8930710000
   31      H      -0.0709740000    -7.8223180000     0.0017970000
   32      C       0.0000000000     0.0000000000     0.0000000000
   33      S       0.1375350000     0.7811560000     1.5805300000
   34      C       0.4218950000     2.3939940000     0.9049110000
   35      C       0.1731340000     0.9828570000    -0.9854000000
   36      C       0.4022940000     2.2830580000    -0.4935280000
   37      H       0.1322370000     0.7507860000    -2.0599340000
   38      H       0.5551960000     3.1506210000    -1.1525930000
   39      H       0.5747410000     3.2613100000     1.5560250000
 ----------------------------------------------------------------

   10   -1570.6898781982      6.96e-07  Convergence criterion met
 Total energy in the final basis set =    -1570.6898781982
        RIMP2         total energy =     -1575.3131094959 a.u.

                    Orbital Energies (a.u.)
 --------------------------------------------------------------

 Alpha MOs
 -- Occupied --
-91.9922 -20.5589 -20.5581 -20.5564 -20.5560 -15.6317 -15.6316 -11.4006
-11.3980 -11.3936 -11.3909 -11.3163 -11.3087 -11.3034 -11.3016 -11.3002
-11.2997 -11.2944 -11.2877 -11.2865 -11.2812 -11.2802 -11.2797 -11.2649
-11.2648 -11.2547 -11.2502  -8.9914  -6.6722  -6.6718  -6.6711  -1.4253
 -1.4250  -1.4045  -1.4041  -1.2682  -1.2659  -1.2187  -1.1752  -1.1447
 -1.1187  -1.0639  -1.0510  -0.9936  -0.9899  -0.9829  -0.9597  -0.9488
 -0.8981  -0.8802  -0.8787  -0.8616  -0.7962  -0.7780  -0.7736  -0.7596
 -0.7374  -0.7195  -0.7056  -0.6955  -0.6816  -0.6737  -0.6669  -0.6628
 -0.6576  -0.6429  -0.6383  -0.6347  -0.6309  -0.6131  -0.5857  -0.5849
 -0.5785  -0.5731  -0.5667  -0.5646  -0.5623  -0.5556  -0.5533  -0.5489
 -0.5349  -0.5270  -0.5206  -0.5166  -0.4841  -0.4713  -0.4674  -0.4612
 -0.4606  -0.4542  -0.4288  -0.4186  -0.4093  -0.3579  -0.3479  -0.3339
 -0.3252

          Ground-State Mulliken Net Atomic Charges

     Atom                 Charge (a.u.)
  ----------------------------------------
      1 C                    -0.128594
      2 C                    -0.108224
      3 C                    -0.044804
      4 C                     0.000764
      5 H                     0.189163
      6 C                     0.000382
      7 C                     0.072658
      8 C                     0.001965
      9 C                    -0.007154
     10 C                    -0.099818
     11 C                     0.021440
     12 H                     0.185804
     13 C                     0.361011
     14 C                     0.366545
     15 N                    -0.101928
     16 C                     0.360099
     17 C                     0.353521
     18 N                    -0.098854
     19 O                    -0.464828
     20 O                    -0.476241
     21 O                    -0.479014
     22 O                    -0.457564
     23 C                    -0.200996
     24 H                     0.141092
     25 H                     0.112610
     26 H                     0.112418
     27 C                    -0.195607
     28 H                     0.133884
     29 H                     0.113227
     30 H                     0.113713
     31 H                     0.214849
     32 C                    -0.014746
     33 S                     0.031304
     34 C                    -0.214841
     35 C                    -0.187192
     36 C                    -0.197349
     37 H                     0.188822
     38 H                     0.191739
     39 H                     0.210744
  ----------------------------------------
  Sum of atomic charges =     0.000000

                    Cartesian Multipole Moments
 -----------------------------------------------------------------
    Charge (ESU x 10^10)
                 0.0000
    Dipole Moment (Debye)
         X       0.2611      Y       0.5628      Z      -0.9352
       Tot       1.1223
    Quadrupole Moments (Debye-Ang)
        XX    -183.8699     XY       3.2386     YY    -163.5616
        XZ       0.0733     YZ       0.7337     ZZ    -157.5244

 Total job time:  301.95s(wall), 7930.90s(cpu)
        *  Thank you very much for using Q-Chem.  Have a nice day.  *
