 Q-Chem 5.4, Q-Chem, Inc., Pleasanton, CA (2021)
 Q-Chem 5.4.0 for Intel X86 EM64T Linux

User input:
--------------------------------------------------------------
$molecule
0 1
C	1.169177	-6.639243	-0.256927
C	1.067337	-6.062399	-1.562675
C	1.003773	-5.703803	0.827197
C	0.832816	-4.731044	-1.841253
H	1.182777	-6.718195	-2.440709
C	0.759135	-4.312330	0.535488
C	0.665608	-3.779876	-0.794999
C	0.592024	-3.361324	1.580529
C	0.421169	-2.389641	-1.084374
C	0.357557	-2.028070	1.305258
C	0.256690	-1.455759	0.000000
H	0.242565	-1.373530	2.184267
C	1.070820	-6.094632	2.269719
C	0.658788	-3.740595	3.011152
N	0.895334	-5.091887	3.254617
C	0.766979	-4.358010	-3.275775
C	0.354224	-2.005586	-2.527951
N	0.529086	-3.002902	-3.513104
O	1.270336	-7.242571	2.661046
O	0.518831	-2.941447	3.934410
O	0.909352	-5.169576	-4.188059
O	0.154583	-0.865129	-2.940845
C	0.962688	-5.479882	4.667206
H	1.152619	-6.563651	4.712423
H	0.009812	-5.224773	5.169231
H	1.771476	-4.915854	5.169992
C	0.449351	-2.548170	-4.904229
H	0.603867	-3.430587	-5.546833
H	1.222168	-1.779783	-5.095998
H	-0.538644	-2.088191	-5.095858
H	1.356562	-7.703791	-0.070974
C	0.000000	0.000000	0.000000
S	0.607475	0.509994	1.580530
C	1.862020	1.562717	0.904911
C	0.764397	0.641624	-0.985400
C	1.775697	1.490335	-0.493528
H	0.583895	0.490135	-2.059934
H	2.450484	2.056643	-1.152593
H	2.536607	2.128872	1.556025
$end

$rem
JOBTYPE		SP
EXCHANGE	HF
CORRELATION	pRIMP2
BASIS		cc-pvtz
METHOD		rimp2
AUX_BASIS	rimp2-cc-pvtz
SOLVENT_METHOD	PCM
PURECART	11111
SYMMETRY	false
MEM_TOTAL	110000
SCF_CONVERGENCE = 6
THRESH=10
GUI = 2
$end

$solvent
dielectric 4.90
$end
--------------------------------------------------------------

             Standard Nuclear Orientation (Angstroms)
    I     Atom           X                Y                Z
 ----------------------------------------------------------------
    1      C       1.1691770000    -6.6392430000    -0.2569270000
    2      C       1.0673370000    -6.0623990000    -1.5626750000
    3      C       1.0037730000    -5.7038030000     0.8271970000
    4      C       0.8328160000    -4.7310440000    -1.8412530000
    5      H       1.1827770000    -6.7181950000    -2.4407090000
    6      C       0.7591350000    -4.3123300000     0.5354880000
    7      C       0.6656080000    -3.7798760000    -0.7949990000
    8      C       0.5920240000    -3.3613240000     1.5805290000
    9      C       0.4211690000    -2.3896410000    -1.0843740000
   10      C       0.3575570000    -2.0280700000     1.3052580000
   11      C       0.2566900000    -1.4557590000     0.0000000000
   12      H       0.2425650000    -1.3735300000     2.1842670000
   13      C       1.0708200000    -6.0946320000     2.2697190000
   14      C       0.6587880000    -3.7405950000     3.0111520000
   15      N       0.8953340000    -5.0918870000     3.2546170000
   16      C       0.7669790000    -4.3580100000    -3.2757750000
   17      C       0.3542240000    -2.0055860000    -2.5279510000
   18      N       0.5290860000    -3.0029020000    -3.5131040000
   19      O       1.2703360000    -7.2425710000     2.6610460000
   20      O       0.5188310000    -2.9414470000     3.9344100000
   21      O       0.9093520000    -5.1695760000    -4.1880590000
   22      O       0.1545830000    -0.8651290000    -2.9408450000
   23      C       0.9626880000    -5.4798820000     4.6672060000
   24      H       1.1526190000    -6.5636510000     4.7124230000
   25      H       0.0098120000    -5.2247730000     5.1692310000
   26      H       1.7714760000    -4.9158540000     5.1699920000
   27      C       0.4493510000    -2.5481700000    -4.9042290000
   28      H       0.6038670000    -3.4305870000    -5.5468330000
   29      H       1.2221680000    -1.7797830000    -5.0959980000
   30      H      -0.5386440000    -2.0881910000    -5.0958580000
   31      H       1.3565620000    -7.7037910000    -0.0709740000
   32      C       0.0000000000     0.0000000000     0.0000000000
   33      S       0.6074750000     0.5099940000     1.5805300000
   34      C       1.8620200000     1.5627170000     0.9049110000
   35      C       0.7643970000     0.6416240000    -0.9854000000
   36      C       1.7756970000     1.4903350000    -0.4935280000
   37      H       0.5838950000     0.4901350000    -2.0599340000
   38      H       2.4504840000     2.0566430000    -1.1525930000
   39      H       2.5366070000     2.1288720000     1.5560250000
 ----------------------------------------------------------------

   11   -1570.5991454334      5.56e-07  Convergence criterion met
 Total energy in the final basis set =    -1570.5991454334
        RIMP2         total energy =     -1575.2407012100 a.u.

                    Orbital Energies (a.u.)
 --------------------------------------------------------------

 Alpha MOs
 -- Occupied --
-91.9921 -20.5570 -20.5550 -20.5525 -20.5501 -15.6295 -15.6284 -11.3978
-11.3946 -11.3888 -11.3880 -11.3217 -11.3147 -11.2986 -11.2954 -11.2869
-11.2862 -11.2831 -11.2828 -11.2768 -11.2745 -11.2712 -11.2700 -11.2692
-11.2639 -11.2636 -11.2518  -8.9938  -6.6745  -6.6734  -6.6732  -1.4256
 -1.4232  -1.4027  -1.4026  -1.2656  -1.2637  -1.2172  -1.1902  -1.1395
 -1.1112  -1.0628  -1.0459  -1.0008  -0.9922  -0.9897  -0.9567  -0.9439
 -0.8947  -0.8761  -0.8740  -0.8586  -0.7986  -0.7796  -0.7717  -0.7668
 -0.7330  -0.7296  -0.6997  -0.6930  -0.6817  -0.6732  -0.6648  -0.6609
 -0.6537  -0.6412  -0.6378  -0.6327  -0.6242  -0.6124  -0.5927  -0.5853
 -0.5802  -0.5770  -0.5691  -0.5625  -0.5603  -0.5554  -0.5530  -0.5452
 -0.5362  -0.5233  -0.5207  -0.5050  -0.4780  -0.4625  -0.4593  -0.4556
 -0.4548  -0.4457  -0.4267  -0.4177  -0.4080  -0.3777  -0.3563  -0.3301
 -0.2977

          Ground-State Mulliken Net Atomic Charges

     Atom                 Charge (a.u.)
  ----------------------------------------
      1 C                    -0.165529
      2 C                    -0.111974
      3 C                    -0.020138
      4 C                    -0.003953
      5 H                     0.185964
      6 C                    -0.023843
      7 C                     0.073459
      8 C                     0.048502
      9 C                    -0.113609
     10 C                    -0.145531
     11 C                     0.061833
     12 H                     0.169117
     13 C                     0.358289
     14 C                     0.363397
     15 N                    -0.100868
     16 C                     0.354997
     17 C                     0.385915
     18 N                    -0.090864
     19 O                    -0.465010
     20 O                    -0.479727
     21 O                    -0.487651
     22 O                    -0.484075
     23 C                    -0.201733
     24 H                     0.140879
     25 H                     0.112052
     26 H                     0.111678
     27 C                    -0.199302
     28 H                     0.134189
     29 H                     0.111063
     30 H                     0.112393
     31 H                     0.209605
     32 C                    -0.103359
     33 S                     0.033805
     34 C                    -0.109929
     35 C                    -0.055268
     36 C                    -0.271920
     37 H                     0.252969
     38 H                     0.193885
     39 H                     0.220290
  ----------------------------------------
  Sum of atomic charges =     0.000000

                    Cartesian Multipole Moments
 -----------------------------------------------------------------
    Charge (ESU x 10^10)
                 0.0000
    Dipole Moment (Debye)
         X       2.7412      Y       3.7501      Z      -0.3216
       Tot       4.6562
    Quadrupole Moments (Debye-Ang)
        XX    -156.5616     XY      10.9423     YY    -182.6835
        XZ       1.4250     YZ      -0.9204     ZZ    -178.7239

 Total job time:  310.60s(wall), 9033.07s(cpu)
        *  Thank you very much for using Q-Chem.  Have a nice day.  *
