 Q-Chem 5.4, Q-Chem, Inc., Pleasanton, CA (2021)
 Q-Chem 5.4.0 for Intel X86 EM64T Linux

User input:
--------------------------------------------------------------
$molecule
0 1
C	-0.043160	-6.741404	0.253280
C	-0.269777	-6.155638	1.539213
C	0.145543	-5.791452	-0.814295
C	-0.318377	-4.803786	1.813519
H	-0.422058	-6.821518	2.403941
C	0.094194	-4.378638	-0.527140
C	-0.137191	-3.838032	0.783072
C	0.275104	-3.413062	-1.556403
C	-0.188116	-2.426473	1.067932
C	0.226701	-2.059348	-1.285420
C	0.000000	-1.478216	0.000000
H	0.378931	-1.394783	-2.151147
C	0.397845	-6.187987	-2.234582
C	0.523637	-3.798164	-2.965273
N	0.567586	-5.170003	-3.204744
C	-0.567421	-4.424987	3.226257
C	-0.439541	-2.036627	2.489446
N	-0.609650	-3.049156	3.459801
O	0.468608	-7.353131	-2.619468
O	0.683034	-2.986854	-3.874668
O	-0.725131	-5.248946	4.124806
O	-0.512648	-0.878829	2.895819
C	0.813908	-5.563799	-4.595691
H	0.822891	-6.664085	-4.640022
H	1.781600	-5.147101	-4.934830
H	0.020360	-5.148785	-5.246157
C	-0.851649	-2.587487	4.829716
H	-0.962191	-3.483329	5.462742
H	-1.765865	-1.964972	4.863242
H	-0.005383	-1.962932	5.173521
H	-0.010555	-7.822318	0.070208
C	0.000000	0.000000	0.000000
S	0.068929	0.790170	1.580530
C	0.211639	2.421655	0.904911
C	0.086813	0.994207	-0.985400
C	0.201782	2.309433	-0.493528
H	0.066299	0.759454	-2.059934
H	0.278488	3.187020	-1.152593
H	0.288312	3.298992	1.556025
$end

$rem
JOBTYPE		SP
EXCHANGE	HF
CORRELATION	pRIMP2
BASIS		cc-pvtz
METHOD		rimp2
AUX_BASIS	rimp2-cc-pvtz
SOLVENT_METHOD	PCM
PURECART	11111
SYMMETRY	false
MEM_TOTAL	110000
SCF_CONVERGENCE = 6
THRESH=10
GUI = 2
$end

$solvent
dielectric 4.90
$end
--------------------------------------------------------------

             Standard Nuclear Orientation (Angstroms)
    I     Atom           X                Y                Z
 ----------------------------------------------------------------
    1      C      -0.0431600000    -6.7414040000     0.2532800000
    2      C      -0.2697770000    -6.1556380000     1.5392130000
    3      C       0.1455430000    -5.7914520000    -0.8142950000
    4      C      -0.3183770000    -4.8037860000     1.8135190000
    5      H      -0.4220580000    -6.8215180000     2.4039410000
    6      C       0.0941940000    -4.3786380000    -0.5271400000
    7      C      -0.1371910000    -3.8380320000     0.7830720000
    8      C       0.2751040000    -3.4130620000    -1.5564030000
    9      C      -0.1881160000    -2.4264730000     1.0679320000
   10      C       0.2267010000    -2.0593480000    -1.2854200000
   11      C       0.0000000000    -1.4782160000     0.0000000000
   12      H       0.3789310000    -1.3947830000    -2.1511470000
   13      C       0.3978450000    -6.1879870000    -2.2345820000
   14      C       0.5236370000    -3.7981640000    -2.9652730000
   15      N       0.5675860000    -5.1700030000    -3.2047440000
   16      C      -0.5674210000    -4.4249870000     3.2262570000
   17      C      -0.4395410000    -2.0366270000     2.4894460000
   18      N      -0.6096500000    -3.0491560000     3.4598010000
   19      O       0.4686080000    -7.3531310000    -2.6194680000
   20      O       0.6830340000    -2.9868540000    -3.8746680000
   21      O      -0.7251310000    -5.2489460000     4.1248060000
   22      O      -0.5126480000    -0.8788290000     2.8958190000
   23      C       0.8139080000    -5.5637990000    -4.5956910000
   24      H       0.8228910000    -6.6640850000    -4.6400220000
   25      H       1.7816000000    -5.1471010000    -4.9348300000
   26      H       0.0203600000    -5.1487850000    -5.2461570000
   27      C      -0.8516490000    -2.5874870000     4.8297160000
   28      H      -0.9621910000    -3.4833290000     5.4627420000
   29      H      -1.7658650000    -1.9649720000     4.8632420000
   30      H      -0.0053830000    -1.9629320000     5.1735210000
   31      H      -0.0105550000    -7.8223180000     0.0702080000
   32      C       0.0000000000     0.0000000000     0.0000000000
   33      S       0.0689290000     0.7901700000     1.5805300000
   34      C       0.2116390000     2.4216550000     0.9049110000
   35      C       0.0868130000     0.9942070000    -0.9854000000
   36      C       0.2017820000     2.3094330000    -0.4935280000
   37      H       0.0662990000     0.7594540000    -2.0599340000
   38      H       0.2784880000     3.1870200000    -1.1525930000
   39      H       0.2883120000     3.2989920000     1.5560250000
 ----------------------------------------------------------------

   10   -1570.6545970400      8.31e-07  Convergence criterion met
 Total energy in the final basis set =    -1570.6545970400
        RIMP2         total energy =     -1575.2917269605 a.u.

                    Orbital Energies (a.u.)
 --------------------------------------------------------------

 Alpha MOs
 -- Occupied --
-91.9769 -20.5593 -20.5591 -20.5572 -20.5544 -15.6325 -15.6318 -11.4006
-11.4004 -11.3922 -11.3915 -11.3216 -11.3028 -11.3018 -11.3004 -11.2960
-11.2944 -11.2903 -11.2880 -11.2840 -11.2796 -11.2792 -11.2700 -11.2657
-11.2649 -11.2605 -11.2429  -8.9765  -6.6570  -6.6556  -6.6548  -1.4333
 -1.4255  -1.4078  -1.4049  -1.2700  -1.2669  -1.2176  -1.1722  -1.1428
 -1.1173  -1.0622  -1.0502  -0.9935  -0.9895  -0.9804  -0.9597  -0.9470
 -0.8979  -0.8808  -0.8787  -0.8637  -0.7939  -0.7788  -0.7772  -0.7599
 -0.7324  -0.7269  -0.7028  -0.6934  -0.6895  -0.6748  -0.6683  -0.6636
 -0.6577  -0.6411  -0.6390  -0.6368  -0.6277  -0.6148  -0.5845  -0.5830
 -0.5815  -0.5754  -0.5711  -0.5653  -0.5624  -0.5565  -0.5563  -0.5495
 -0.5331  -0.5247  -0.5216  -0.5197  -0.4897  -0.4729  -0.4688  -0.4639
 -0.4572  -0.4328  -0.4212  -0.4105  -0.3941  -0.3754  -0.3413  -0.3379
 -0.2959

          Ground-State Mulliken Net Atomic Charges

     Atom                 Charge (a.u.)
  ----------------------------------------
      1 C                    -0.145769
      2 C                    -0.111307
      3 C                    -0.029428
      4 C                    -0.002652
      5 H                     0.188198
      6 C                     0.004431
      7 C                     0.082447
      8 C                    -0.001348
      9 C                    -0.077157
     10 C                    -0.129879
     11 C                     0.071343
     12 H                     0.182559
     13 C                     0.359051
     14 C                     0.364877
     15 N                    -0.101857
     16 C                     0.359700
     17 C                     0.374231
     18 N                    -0.092569
     19 O                    -0.463650
     20 O                    -0.476800
     21 O                    -0.482022
     22 O                    -0.448189
     23 C                    -0.201170
     24 H                     0.141329
     25 H                     0.112470
     26 H                     0.112493
     27 C                    -0.198547
     28 H                     0.135123
     29 H                     0.113771
     30 H                     0.113639
     31 H                     0.212749
     32 C                    -0.015193
     33 S                     0.097188
     34 C                    -0.228613
     35 C                    -0.158583
     36 C                    -0.239166
     37 H                     0.187731
     38 H                     0.183529
     39 H                     0.207042
  ----------------------------------------
  Sum of atomic charges =     0.000000

                    Cartesian Multipole Moments
 -----------------------------------------------------------------
    Charge (ESU x 10^10)
                 0.0000
    Dipole Moment (Debye)
         X       0.0027      Y       1.0167      Z      -0.2059
       Tot       1.0373
    Quadrupole Moments (Debye-Ang)
        XX    -164.6249     XY       0.9161     YY    -169.6187
        XZ       3.1020     YZ       0.2935     ZZ    -175.1833

 Total job time:  278.45s(wall), 7756.28s(cpu)
        *  Thank you very much for using Q-Chem.  Have a nice day.  *
