 Q-Chem 5.4, Q-Chem, Inc., Pleasanton, CA (2021)
 Q-Chem 5.4.0 for Intel X86 EM64T Linux

User input:
--------------------------------------------------------------
$molecule
0 1
C	1.169177	-6.639243	-0.256927
C	1.067337	-6.062399	-1.562675
C	1.003773	-5.703803	0.827197
C	0.832816	-4.731044	-1.841253
H	1.182777	-6.718195	-2.440709
C	0.759135	-4.312330	0.535488
C	0.665608	-3.779876	-0.794999
C	0.592024	-3.361324	1.580529
C	0.421169	-2.389641	-1.084374
C	0.357557	-2.028070	1.305258
C	0.256690	-1.455759	0.000000
H	0.242565	-1.373530	2.184267
C	1.070820	-6.094632	2.269719
C	0.658788	-3.740595	3.011152
N	0.895334	-5.091887	3.254617
C	0.766979	-4.358010	-3.275775
C	0.354224	-2.005586	-2.527951
N	0.529086	-3.002902	-3.513104
O	1.270336	-7.242571	2.661046
O	0.518831	-2.941447	3.934410
O	0.909352	-5.169576	-4.188059
O	0.154583	-0.865129	-2.940845
C	0.962688	-5.479882	4.667206
H	1.152619	-6.563651	4.712423
H	0.009812	-5.224773	5.169231
H	1.771476	-4.915854	5.169992
C	0.449351	-2.548170	-4.904229
H	0.603867	-3.430587	-5.546833
H	1.222168	-1.779783	-5.095998
H	-0.538644	-2.088191	-5.095858
H	1.356562	-7.703791	-0.070974
C	0.000000	0.000000	0.000000
S	0.137535	0.781156	1.580530
C	0.421895	2.393994	0.904911
C	0.173134	0.982857	-0.985400
C	0.402294	2.283058	-0.493528
H	0.132237	0.750786	-2.059934
H	0.555196	3.150621	-1.152593
H	0.574741	3.261310	1.556025
$end

$rem
JOBTYPE		SP
EXCHANGE	HF
CORRELATION	pRIMP2
BASIS		cc-pvtz
METHOD		rimp2
AUX_BASIS	rimp2-cc-pvtz
SOLVENT_METHOD	PCM
PURECART	11111
SYMMETRY	false
MEM_TOTAL	110000
SCF_CONVERGENCE = 6
THRESH=10
GUI = 2
$end

$solvent
dielectric 4.90
$end
--------------------------------------------------------------

             Standard Nuclear Orientation (Angstroms)
    I     Atom           X                Y                Z
 ----------------------------------------------------------------
    1      C       1.1691770000    -6.6392430000    -0.2569270000
    2      C       1.0673370000    -6.0623990000    -1.5626750000
    3      C       1.0037730000    -5.7038030000     0.8271970000
    4      C       0.8328160000    -4.7310440000    -1.8412530000
    5      H       1.1827770000    -6.7181950000    -2.4407090000
    6      C       0.7591350000    -4.3123300000     0.5354880000
    7      C       0.6656080000    -3.7798760000    -0.7949990000
    8      C       0.5920240000    -3.3613240000     1.5805290000
    9      C       0.4211690000    -2.3896410000    -1.0843740000
   10      C       0.3575570000    -2.0280700000     1.3052580000
   11      C       0.2566900000    -1.4557590000     0.0000000000
   12      H       0.2425650000    -1.3735300000     2.1842670000
   13      C       1.0708200000    -6.0946320000     2.2697190000
   14      C       0.6587880000    -3.7405950000     3.0111520000
   15      N       0.8953340000    -5.0918870000     3.2546170000
   16      C       0.7669790000    -4.3580100000    -3.2757750000
   17      C       0.3542240000    -2.0055860000    -2.5279510000
   18      N       0.5290860000    -3.0029020000    -3.5131040000
   19      O       1.2703360000    -7.2425710000     2.6610460000
   20      O       0.5188310000    -2.9414470000     3.9344100000
   21      O       0.9093520000    -5.1695760000    -4.1880590000
   22      O       0.1545830000    -0.8651290000    -2.9408450000
   23      C       0.9626880000    -5.4798820000     4.6672060000
   24      H       1.1526190000    -6.5636510000     4.7124230000
   25      H       0.0098120000    -5.2247730000     5.1692310000
   26      H       1.7714760000    -4.9158540000     5.1699920000
   27      C       0.4493510000    -2.5481700000    -4.9042290000
   28      H       0.6038670000    -3.4305870000    -5.5468330000
   29      H       1.2221680000    -1.7797830000    -5.0959980000
   30      H      -0.5386440000    -2.0881910000    -5.0958580000
   31      H       1.3565620000    -7.7037910000    -0.0709740000
   32      C       0.0000000000     0.0000000000     0.0000000000
   33      S       0.1375350000     0.7811560000     1.5805300000
   34      C       0.4218950000     2.3939940000     0.9049110000
   35      C       0.1731340000     0.9828570000    -0.9854000000
   36      C       0.4022940000     2.2830580000    -0.4935280000
   37      H       0.1322370000     0.7507860000    -2.0599340000
   38      H       0.5551960000     3.1506210000    -1.1525930000
   39      H       0.5747410000     3.2613100000     1.5560250000
 ----------------------------------------------------------------

   10   -1570.6769490713      8.59e-07  Convergence criterion met
 Total energy in the final basis set =    -1570.6769490713
        RIMP2         total energy =     -1575.3064043698 a.u.

                    Orbital Energies (a.u.)
 --------------------------------------------------------------

 Alpha MOs
 -- Occupied --
-91.9930 -20.5583 -20.5563 -20.5555 -20.5533 -15.6310 -15.6304 -11.3996
-11.3971 -11.3910 -11.3906 -11.3200 -11.3017 -11.2996 -11.2968 -11.2944
-11.2932 -11.2928 -11.2893 -11.2870 -11.2826 -11.2785 -11.2777 -11.2649
-11.2643 -11.2542 -11.2500  -8.9930  -6.6738  -6.6733  -6.6727  -1.4257
 -1.4246  -1.4041  -1.4040  -1.2674  -1.2653  -1.2166  -1.1786  -1.1436
 -1.1157  -1.0634  -1.0490  -0.9923  -0.9904  -0.9882  -0.9586  -0.9470
 -0.8971  -0.8789  -0.8783  -0.8613  -0.7964  -0.7800  -0.7730  -0.7627
 -0.7354  -0.7248  -0.7030  -0.6939  -0.6822  -0.6739  -0.6664  -0.6622
 -0.6558  -0.6413  -0.6376  -0.6339  -0.6276  -0.6128  -0.5913  -0.5835
 -0.5791  -0.5707  -0.5674  -0.5639  -0.5613  -0.5561  -0.5541  -0.5469
 -0.5352  -0.5251  -0.5245  -0.5150  -0.4813  -0.4685  -0.4650  -0.4616
 -0.4578  -0.4500  -0.4292  -0.4192  -0.4097  -0.3776  -0.3556  -0.3361
 -0.2990

          Ground-State Mulliken Net Atomic Charges

     Atom                 Charge (a.u.)
  ----------------------------------------
      1 C                    -0.146683
      2 C                    -0.111973
      3 C                    -0.028129
      4 C                    -0.002549
      5 H                     0.187667
      6 C                     0.001061
      7 C                     0.073603
      8 C                     0.053720
      9 C                    -0.079360
     10 C                    -0.168746
     11 C                     0.042422
     12 H                     0.170222
     13 C                     0.358385
     14 C                     0.362747
     15 N                    -0.101323
     16 C                     0.358794
     17 C                     0.383437
     18 N                    -0.091926
     19 O                    -0.464226
     20 O                    -0.476711
     21 O                    -0.483618
     22 O                    -0.480329
     23 C                    -0.201258
     24 H                     0.141071
     25 H                     0.112469
     26 H                     0.112462
     27 C                    -0.198378
     28 H                     0.134529
     29 H                     0.112301
     30 H                     0.112755
     31 H                     0.212291
     32 C                     0.017256
     33 S                     0.012401
     34 C                    -0.187591
     35 C                    -0.151603
     36 C                    -0.233037
     37 H                     0.235583
     38 H                     0.193005
     39 H                     0.219258
  ----------------------------------------
  Sum of atomic charges =     0.000000

                    Cartesian Multipole Moments
 -----------------------------------------------------------------
    Charge (ESU x 10^10)
                -0.0000
    Dipole Moment (Debye)
         X       0.5054      Y       2.4666      Z      -0.8012
       Tot       2.6422
    Quadrupole Moments (Debye-Ang)
        XX    -164.0654     XY       4.8747     YY    -168.5492
        XZ       0.1987     YZ       0.4288     ZZ    -178.1636

 Total job time:  271.77s(wall), 8124.77s(cpu)
        *  Thank you very much for using Q-Chem.  Have a nice day.  *
