 Q-Chem 5.4, Q-Chem, Inc., Pleasanton, CA (2021)
 Q-Chem 5.4.0 for Intel X86 EM64T Linux

User input:
--------------------------------------------------------------
$molecule
0 1
C	-0.241938	-6.741404	-0.086486
C	-1.468983	-6.155638	-0.532960
C	0.776651	-5.791452	0.284733
C	-1.730681	-4.803786	-0.628455
H	-2.294130	-6.821518	-0.833086
C	0.502775	-4.378638	0.184300
C	-0.747353	-3.838032	-0.271086
C	1.484986	-3.413062	0.541191
C	-1.019042	-2.426473	-0.370703
C	1.226525	-2.059348	0.446468
C	0.000000	-1.478216	0.000000
H	2.052666	-1.394783	0.746717
C	2.131549	-6.187987	0.779832
C	2.829295	-3.798164	1.030596
N	3.057496	-5.170003	1.115461
C	-3.078712	-4.424987	-1.119034
C	-2.375300	-2.036627	-0.865151
N	-3.301374	-3.049156	-1.201176
O	2.498300	-7.353131	0.916355
O	3.697195	-2.986854	1.345486
O	-3.936224	-5.248946	-1.430379
O	-2.762805	-0.878829	-1.007714
C	4.384539	-5.563799	1.599576
H	4.426636	-6.664085	1.616121
H	4.550487	-5.147101	2.611458
H	5.162921	-5.148785	0.931037
C	-4.608454	-2.587487	-1.677382
H	-5.212668	-3.483329	-1.896168
H	-4.482719	-1.964972	-2.583531
H	-5.093988	-1.962932	-0.903674
H	-0.067309	-7.822318	-0.022586
C	0.000000	0.000000	0.000000
S	0.509686	0.607733	1.580530
C	1.562368	1.862312	0.904911
C	0.641367	0.764613	-0.985400
C	1.489926	1.776040	-0.493528
H	0.489914	0.584081	-2.059934
H	2.056124	2.450920	-1.152593
H	2.128395	2.537007	1.556025
$end

$rem
JOBTYPE		SP
EXCHANGE	HF
CORRELATION	pRIMP2
BASIS		cc-pvtz
METHOD		rimp2
AUX_BASIS	rimp2-cc-pvtz
SOLVENT_METHOD	PCM
PURECART	11111
SYMMETRY	false
MEM_TOTAL	110000
SCF_CONVERGENCE = 6
THRESH=10
GUI = 2
$end

$solvent
dielectric 4.90
$end
--------------------------------------------------------------

             Standard Nuclear Orientation (Angstroms)
    I     Atom           X                Y                Z
 ----------------------------------------------------------------
    1      C      -0.2419380000    -6.7414040000    -0.0864860000
    2      C      -1.4689830000    -6.1556380000    -0.5329600000
    3      C       0.7766510000    -5.7914520000     0.2847330000
    4      C      -1.7306810000    -4.8037860000    -0.6284550000
    5      H      -2.2941300000    -6.8215180000    -0.8330860000
    6      C       0.5027750000    -4.3786380000     0.1843000000
    7      C      -0.7473530000    -3.8380320000    -0.2710860000
    8      C       1.4849860000    -3.4130620000     0.5411910000
    9      C      -1.0190420000    -2.4264730000    -0.3707030000
   10      C       1.2265250000    -2.0593480000     0.4464680000
   11      C       0.0000000000    -1.4782160000     0.0000000000
   12      H       2.0526660000    -1.3947830000     0.7467170000
   13      C       2.1315490000    -6.1879870000     0.7798320000
   14      C       2.8292950000    -3.7981640000     1.0305960000
   15      N       3.0574960000    -5.1700030000     1.1154610000
   16      C      -3.0787120000    -4.4249870000    -1.1190340000
   17      C      -2.3753000000    -2.0366270000    -0.8651510000
   18      N      -3.3013740000    -3.0491560000    -1.2011760000
   19      O       2.4983000000    -7.3531310000     0.9163550000
   20      O       3.6971950000    -2.9868540000     1.3454860000
   21      O      -3.9362240000    -5.2489460000    -1.4303790000
   22      O      -2.7628050000    -0.8788290000    -1.0077140000
   23      C       4.3845390000    -5.5637990000     1.5995760000
   24      H       4.4266360000    -6.6640850000     1.6161210000
   25      H       4.5504870000    -5.1471010000     2.6114580000
   26      H       5.1629210000    -5.1487850000     0.9310370000
   27      C      -4.6084540000    -2.5874870000    -1.6773820000
   28      H      -5.2126680000    -3.4833290000    -1.8961680000
   29      H      -4.4827190000    -1.9649720000    -2.5835310000
   30      H      -5.0939880000    -1.9629320000    -0.9036740000
   31      H      -0.0673090000    -7.8223180000    -0.0225860000
   32      C       0.0000000000     0.0000000000     0.0000000000
   33      S       0.5096860000     0.6077330000     1.5805300000
   34      C       1.5623680000     1.8623120000     0.9049110000
   35      C       0.6413670000     0.7646130000    -0.9854000000
   36      C       1.4899260000     1.7760400000    -0.4935280000
   37      H       0.4899140000     0.5840810000    -2.0599340000
   38      H       2.0561240000     2.4509200000    -1.1525930000
   39      H       2.1283950000     2.5370070000     1.5560250000
 ----------------------------------------------------------------

   10   -1570.6649852657      8.16e-07  Convergence criterion met
 Total energy in the final basis set =    -1570.6649852657
        RIMP2         total energy =     -1575.2954943567 a.u.

                    Orbital Energies (a.u.)
 --------------------------------------------------------------

 Alpha MOs
 -- Occupied --
-91.9923 -20.5580 -20.5558 -20.5553 -20.5545 -15.6307 -15.6302 -11.3995
-11.3957 -11.3920 -11.3898 -11.3161 -11.3016 -11.3014 -11.2986 -11.2967
-11.2965 -11.2918 -11.2860 -11.2849 -11.2841 -11.2789 -11.2768 -11.2652
-11.2643 -11.2642 -11.2536  -8.9921  -6.6729  -6.6723  -6.6718  -1.4243
 -1.4233  -1.4035  -1.4024  -1.2669  -1.2646  -1.2172  -1.1823  -1.1426
 -1.1162  -1.0628  -1.0487  -0.9922  -0.9916  -0.9888  -0.9586  -0.9467
 -0.8966  -0.8784  -0.8762  -0.8587  -0.7952  -0.7773  -0.7728  -0.7621
 -0.7372  -0.7178  -0.7063  -0.6943  -0.6810  -0.6736  -0.6658  -0.6617
 -0.6561  -0.6419  -0.6371  -0.6332  -0.6289  -0.6124  -0.5852  -0.5840
 -0.5783  -0.5759  -0.5675  -0.5636  -0.5613  -0.5549  -0.5526  -0.5478
 -0.5407  -0.5268  -0.5192  -0.5031  -0.4828  -0.4721  -0.4667  -0.4621
 -0.4597  -0.4528  -0.4274  -0.4178  -0.4078  -0.3690  -0.3428  -0.3337
 -0.3198

          Ground-State Mulliken Net Atomic Charges

     Atom                 Charge (a.u.)
  ----------------------------------------
      1 C                    -0.135824
      2 C                    -0.111621
      3 C                    -0.039252
      4 C                     0.001253
      5 H                     0.188201
      6 C                     0.000726
      7 C                     0.077344
      8 C                    -0.013715
      9 C                    -0.027865
     10 C                    -0.098896
     11 C                     0.006218
     12 H                     0.187872
     13 C                     0.359921
     14 C                     0.363093
     15 N                    -0.101333
     16 C                     0.358640
     17 C                     0.362332
     18 N                    -0.097354
     19 O                    -0.465641
     20 O                    -0.478177
     21 O                    -0.480676
     22 O                    -0.461311
     23 C                    -0.201460
     24 H                     0.140982
     25 H                     0.112292
     26 H                     0.112186
     27 C                    -0.196524
     28 H                     0.133484
     29 H                     0.112496
     30 H                     0.113341
     31 H                     0.213599
     32 C                    -0.014169
     33 S                     0.026393
     34 C                    -0.183739
     35 C                    -0.150607
     36 C                    -0.207956
     37 H                     0.188959
     38 H                     0.193806
     39 H                     0.212982
  ----------------------------------------
  Sum of atomic charges =     0.000000

                    Cartesian Multipole Moments
 -----------------------------------------------------------------
    Charge (ESU x 10^10)
                 0.0000
    Dipole Moment (Debye)
         X       1.7653      Y       1.3211      Z      -0.9030
       Tot       2.3826
    Quadrupole Moments (Debye-Ang)
        XX    -177.7144     XY       6.8458     YY    -171.4845
        XZ      -6.1783     YZ       0.9817     ZZ    -159.5023

 Total job time:  261.79s(wall), 7995.10s(cpu)
        *  Thank you very much for using Q-Chem.  Have a nice day.  *
