 Q-Chem 5.4, Q-Chem, Inc., Pleasanton, CA (2021)
 Q-Chem 5.4.0 for Intel X86 EM64T Linux

User input:
--------------------------------------------------------------
$molecule
0 1
C	0.046070	-6.741404	0.252767
C	0.272935	-6.155638	1.538656
C	-0.141739	-5.791452	-0.814966
C	0.321083	-4.803786	1.813042
H	0.425592	-6.821518	2.403318
C	-0.091779	-4.378638	-0.527566
C	0.138909	-3.838032	0.782769
C	-0.273808	-3.413062	-1.556632
C	0.188483	-2.426473	1.067868
C	-0.226610	-2.059348	-1.285436
C	-0.000000	-1.478216	-0.000000
H	-0.379657	-1.394783	-2.151019
C	-0.390420	-6.187987	-2.235891
C	-0.522125	-3.798164	-2.965540
N	-0.562731	-5.170003	-3.205600
C	0.570244	-4.424987	3.225760
C	0.438407	-2.036627	2.489646
N	0.610438	-3.049156	3.459662
O	-0.455563	-7.353131	-2.621768
O	-0.683373	-2.986854	-3.874608
O	0.729367	-5.248946	4.124059
O	0.508697	-0.878829	2.896516
C	-0.806996	-5.563799	-4.596910
H	-0.813717	-6.664085	-4.641640
H	-0.013655	-5.147101	-5.246567
H	-1.775159	-5.148785	-4.936739
C	0.851572	-2.587487	4.829729
H	0.964204	-3.483329	5.462387
H	0.003956	-1.964972	5.173914
H	1.764390	-1.962932	4.863360
H	0.014094	-7.822318	0.069584
C	0.000000	0.000000	0.000000
S	0.686805	0.396760	1.580530
C	2.105095	1.215640	0.904911
C	0.864201	0.499140	-0.985400
C	2.007514	1.159347	-0.493528
H	0.660136	0.381296	-2.059934
H	2.770388	1.599875	-1.152593
H	2.867745	1.656053	1.556025
$end

$rem
JOBTYPE		SP
EXCHANGE	HF
CORRELATION	pRIMP2
BASIS		cc-pvtz
METHOD		rimp2
AUX_BASIS	rimp2-cc-pvtz
SOLVENT_METHOD	PCM
PURECART	11111
SYMMETRY	false
MEM_TOTAL	110000
SCF_CONVERGENCE = 6
THRESH=10
GUI = 2
$end

$solvent
dielectric 4.90
$end
--------------------------------------------------------------

             Standard Nuclear Orientation (Angstroms)
    I     Atom           X                Y                Z
 ----------------------------------------------------------------
    1      C       0.0460700000    -6.7414040000     0.2527670000
    2      C       0.2729350000    -6.1556380000     1.5386560000
    3      C      -0.1417390000    -5.7914520000    -0.8149660000
    4      C       0.3210830000    -4.8037860000     1.8130420000
    5      H       0.4255920000    -6.8215180000     2.4033180000
    6      C      -0.0917790000    -4.3786380000    -0.5275660000
    7      C       0.1389090000    -3.8380320000     0.7827690000
    8      C      -0.2738080000    -3.4130620000    -1.5566320000
    9      C       0.1884830000    -2.4264730000     1.0678680000
   10      C      -0.2266100000    -2.0593480000    -1.2854360000
   11      C       0.0000000000    -1.4782160000     0.0000000000
   12      H      -0.3796570000    -1.3947830000    -2.1510190000
   13      C      -0.3904200000    -6.1879870000    -2.2358910000
   14      C      -0.5221250000    -3.7981640000    -2.9655400000
   15      N      -0.5627310000    -5.1700030000    -3.2056000000
   16      C       0.5702440000    -4.4249870000     3.2257600000
   17      C       0.4384070000    -2.0366270000     2.4896460000
   18      N       0.6104380000    -3.0491560000     3.4596620000
   19      O      -0.4555630000    -7.3531310000    -2.6217680000
   20      O      -0.6833730000    -2.9868540000    -3.8746080000
   21      O       0.7293670000    -5.2489460000     4.1240590000
   22      O       0.5086970000    -0.8788290000     2.8965160000
   23      C      -0.8069960000    -5.5637990000    -4.5969100000
   24      H      -0.8137170000    -6.6640850000    -4.6416400000
   25      H      -0.0136550000    -5.1471010000    -5.2465670000
   26      H      -1.7751590000    -5.1487850000    -4.9367390000
   27      C       0.8515720000    -2.5874870000     4.8297290000
   28      H       0.9642040000    -3.4833290000     5.4623870000
   29      H       0.0039560000    -1.9649720000     5.1739140000
   30      H       1.7643900000    -1.9629320000     4.8633600000
   31      H       0.0140940000    -7.8223180000     0.0695840000
   32      C       0.0000000000     0.0000000000     0.0000000000
   33      S       0.6868050000     0.3967600000     1.5805300000
   34      C       2.1050950000     1.2156400000     0.9049110000
   35      C       0.8642010000     0.4991400000    -0.9854000000
   36      C       2.0075140000     1.1593470000    -0.4935280000
   37      H       0.6601360000     0.3812960000    -2.0599340000
   38      H       2.7703880000     1.5998750000    -1.1525930000
   39      H       2.8677450000     1.6560530000     1.5560250000
 ----------------------------------------------------------------

   11   -1570.4947950233      9.64e-07  Convergence criterion met
 Total energy in the final basis set =    -1570.4947950233
        RIMP2         total energy =     -1575.1690828434 a.u.

                    Orbital Energies (a.u.)
 --------------------------------------------------------------

 Alpha MOs
 -- Occupied --
-92.0028 -20.5877 -20.5590 -20.5567 -20.5550 -15.6409 -15.6312 -11.4150
-11.3997 -11.3933 -11.3907 -11.3257 -11.3017 -11.3006 -11.2895 -11.2875
-11.2875 -11.2867 -11.2791 -11.2772 -11.2733 -11.2701 -11.2693 -11.2645
-11.2637 -11.2558 -11.2361  -9.0006  -6.6815  -6.6788  -6.6769  -1.4762
 -1.4249  -1.4129  -1.4043  -1.2810  -1.2666  -1.2176  -1.1808  -1.1389
 -1.1147  -1.0588  -1.0490  -1.0024  -0.9949  -0.9855  -0.9612  -0.9461
 -0.9034  -0.8814  -0.8747  -0.8647  -0.7982  -0.7863  -0.7801  -0.7591
 -0.7480  -0.7292  -0.7020  -0.6938  -0.6907  -0.6795  -0.6745  -0.6639
 -0.6589  -0.6454  -0.6387  -0.6375  -0.6270  -0.6163  -0.6041  -0.5891
 -0.5831  -0.5788  -0.5721  -0.5652  -0.5597  -0.5589  -0.5583  -0.5502
 -0.5369  -0.5349  -0.5218  -0.5130  -0.4893  -0.4754  -0.4646  -0.4579
 -0.4536  -0.4404  -0.4209  -0.4092  -0.3909  -0.3723  -0.3392  -0.2948
 -0.2701

          Ground-State Mulliken Net Atomic Charges

     Atom                 Charge (a.u.)
  ----------------------------------------
      1 C                    -0.170595
      2 C                    -0.108494
      3 C                    -0.015252
      4 C                    -0.010683
      5 H                     0.186674
      6 C                    -0.012101
      7 C                     0.095083
      8 C                     0.002847
      9 C                    -0.165496
     10 C                    -0.142447
     11 C                     0.122352
     12 H                     0.180367
     13 C                     0.360451
     14 C                     0.362951
     15 N                    -0.101747
     16 C                     0.359051
     17 C                     0.400764
     18 N                    -0.081602
     19 O                    -0.462383
     20 O                    -0.475909
     21 O                    -0.482132
     22 O                    -0.352457
     23 C                    -0.201285
     24 H                     0.141163
     25 H                     0.112285
     26 H                     0.112400
     27 C                    -0.198853
     28 H                     0.137520
     29 H                     0.115042
     30 H                     0.114892
     31 H                     0.209789
     32 C                    -0.133860
     33 S                     0.169952
     34 C                    -0.251665
     35 C                    -0.138983
     36 C                    -0.252562
     37 H                     0.190839
     38 H                     0.181647
     39 H                     0.202437
  ----------------------------------------
  Sum of atomic charges =     0.000000

                    Cartesian Multipole Moments
 -----------------------------------------------------------------
    Charge (ESU x 10^10)
                 0.0000
    Dipole Moment (Debye)
         X       1.9543      Y       0.5616      Z       1.6194
       Tot       2.5994
    Quadrupole Moments (Debye-Ang)
        XX    -157.9973     XY       3.5932     YY    -183.5644
        XZ      -0.5043     YZ      -1.0108     ZZ    -170.3112

 Total job time:  287.84s(wall), 8347.73s(cpu)
        *  Thank you very much for using Q-Chem.  Have a nice day.  *
