 Q-Chem 5.4, Q-Chem, Inc., Pleasanton, CA (2021)
 Q-Chem 5.4.0 for Intel X86 EM64T Linux

User input:
--------------------------------------------------------------
$molecule
0 1
C	-0.252767	-6.741404	0.046070
C	-1.538656	-6.155638	0.272935
C	0.814966	-5.791452	-0.141739
C	-1.813042	-4.803786	0.321083
H	-2.403318	-6.821518	0.425592
C	0.527566	-4.378638	-0.091779
C	-0.782769	-3.838032	0.138909
C	1.556632	-3.413062	-0.273808
C	-1.067868	-2.426473	0.188483
C	1.285436	-2.059348	-0.226610
C	0.000000	-1.478216	0.000000
H	2.151019	-1.394783	-0.379657
C	2.235891	-6.187987	-0.390420
C	2.965540	-3.798164	-0.522125
N	3.205600	-5.170003	-0.562731
C	-3.225760	-4.424987	0.570244
C	-2.489646	-2.036627	0.438407
N	-3.459662	-3.049156	0.610438
O	2.621768	-7.353131	-0.455563
O	3.874608	-2.986854	-0.683373
O	-4.124059	-5.248946	0.729367
O	-2.896516	-0.878829	0.508697
C	4.596910	-5.563799	-0.806996
H	4.641640	-6.664085	-0.813717
H	5.246567	-5.147101	-0.013655
H	4.936739	-5.148785	-1.775159
C	-4.829729	-2.587487	0.851572
H	-5.462387	-3.483329	0.964204
H	-5.173914	-1.964972	0.003956
H	-4.863360	-1.962932	1.764390
H	-0.069584	-7.822318	0.014094
C	0.000000	0.000000	0.000000
S	0.396411	0.687007	1.580530
C	1.215245	2.105322	0.904911
C	0.498850	0.864369	-0.985400
C	1.158885	2.007781	-0.493528
H	0.381046	0.660280	-2.059934
H	1.599289	2.770727	-1.152593
H	1.655514	2.868056	1.556025
$end

$rem
JOBTYPE		SP
EXCHANGE	HF
CORRELATION	pRIMP2
BASIS		cc-pvtz
METHOD		rimp2
AUX_BASIS	rimp2-cc-pvtz
SOLVENT_METHOD	PCM
PURECART	11111
SYMMETRY	false
MEM_TOTAL	110000
SCF_CONVERGENCE = 6
THRESH=10
GUI = 2
$end

$solvent
dielectric 4.90
$end
--------------------------------------------------------------

             Standard Nuclear Orientation (Angstroms)
    I     Atom           X                Y                Z
 ----------------------------------------------------------------
    1      C      -0.2527670000    -6.7414040000     0.0460700000
    2      C      -1.5386560000    -6.1556380000     0.2729350000
    3      C       0.8149660000    -5.7914520000    -0.1417390000
    4      C      -1.8130420000    -4.8037860000     0.3210830000
    5      H      -2.4033180000    -6.8215180000     0.4255920000
    6      C       0.5275660000    -4.3786380000    -0.0917790000
    7      C      -0.7827690000    -3.8380320000     0.1389090000
    8      C       1.5566320000    -3.4130620000    -0.2738080000
    9      C      -1.0678680000    -2.4264730000     0.1884830000
   10      C       1.2854360000    -2.0593480000    -0.2266100000
   11      C       0.0000000000    -1.4782160000     0.0000000000
   12      H       2.1510190000    -1.3947830000    -0.3796570000
   13      C       2.2358910000    -6.1879870000    -0.3904200000
   14      C       2.9655400000    -3.7981640000    -0.5221250000
   15      N       3.2056000000    -5.1700030000    -0.5627310000
   16      C      -3.2257600000    -4.4249870000     0.5702440000
   17      C      -2.4896460000    -2.0366270000     0.4384070000
   18      N      -3.4596620000    -3.0491560000     0.6104380000
   19      O       2.6217680000    -7.3531310000    -0.4555630000
   20      O       3.8746080000    -2.9868540000    -0.6833730000
   21      O      -4.1240590000    -5.2489460000     0.7293670000
   22      O      -2.8965160000    -0.8788290000     0.5086970000
   23      C       4.5969100000    -5.5637990000    -0.8069960000
   24      H       4.6416400000    -6.6640850000    -0.8137170000
   25      H       5.2465670000    -5.1471010000    -0.0136550000
   26      H       4.9367390000    -5.1487850000    -1.7751590000
   27      C      -4.8297290000    -2.5874870000     0.8515720000
   28      H      -5.4623870000    -3.4833290000     0.9642040000
   29      H      -5.1739140000    -1.9649720000     0.0039560000
   30      H      -4.8633600000    -1.9629320000     1.7643900000
   31      H      -0.0695840000    -7.8223180000     0.0140940000
   32      C       0.0000000000     0.0000000000     0.0000000000
   33      S       0.3964110000     0.6870070000     1.5805300000
   34      C       1.2152450000     2.1053220000     0.9049110000
   35      C       0.4988500000     0.8643690000    -0.9854000000
   36      C       1.1588850000     2.0077810000    -0.4935280000
   37      H       0.3810460000     0.6602800000    -2.0599340000
   38      H       1.5992890000     2.7707270000    -1.1525930000
   39      H       1.6555140000     2.8680560000     1.5560250000
 ----------------------------------------------------------------

   10   -1570.6784393866      7.74e-07  Convergence criterion met
 Total energy in the final basis set =    -1570.6784393866
        RIMP2         total energy =     -1575.3052033121 a.u.

                    Orbital Energies (a.u.)
 --------------------------------------------------------------

 Alpha MOs
 -- Occupied --
-91.9930 -20.5586 -20.5573 -20.5561 -20.5554 -15.6313 -15.6311 -11.4002
-11.3971 -11.3929 -11.3906 -11.3160 -11.3052 -11.3027 -11.3004 -11.2987
-11.2984 -11.2901 -11.2865 -11.2857 -11.2857 -11.2803 -11.2785 -11.2647
-11.2645 -11.2586 -11.2519  -8.9923  -6.6731  -6.6726  -6.6720  -1.4249
 -1.4244  -1.4042  -1.4034  -1.2677  -1.2654  -1.2180  -1.1785  -1.1438
 -1.1177  -1.0632  -1.0500  -0.9931  -0.9908  -0.9856  -0.9593  -0.9478
 -0.8975  -0.8794  -0.8775  -0.8602  -0.7954  -0.7772  -0.7735  -0.7619
 -0.7361  -0.7189  -0.7058  -0.6948  -0.6818  -0.6740  -0.6665  -0.6624
 -0.6571  -0.6422  -0.6379  -0.6342  -0.6299  -0.6129  -0.5852  -0.5847
 -0.5779  -0.5744  -0.5672  -0.5642  -0.5630  -0.5553  -0.5532  -0.5484
 -0.5346  -0.5269  -0.5214  -0.5116  -0.4836  -0.4724  -0.4672  -0.4609
 -0.4597  -0.4537  -0.4282  -0.4183  -0.4087  -0.3631  -0.3440  -0.3349
 -0.3233

          Ground-State Mulliken Net Atomic Charges

     Atom                 Charge (a.u.)
  ----------------------------------------
      1 C                    -0.131362
      2 C                    -0.110307
      3 C                    -0.042118
      4 C                     0.002552
      5 H                     0.188741
      6 C                     0.001164
      7 C                     0.073482
      8 C                    -0.006672
      9 C                    -0.013857
     10 C                    -0.085649
     11 C                    -0.004143
     12 H                     0.189074
     13 C                     0.360512
     14 C                     0.363732
     15 N                    -0.101495
     16 C                     0.359154
     17 C                     0.356293
     18 N                    -0.098226
     19 O                    -0.464991
     20 O                    -0.476869
     21 O                    -0.479659
     22 O                    -0.458454
     23 C                    -0.201242
     24 H                     0.141135
     25 H                     0.112516
     26 H                     0.112236
     27 C                    -0.196101
     28 H                     0.133576
     29 H                     0.113282
     30 H                     0.113436
     31 H                     0.214328
     32 C                     0.018159
     33 S                     0.035276
     34 C                    -0.207838
     35 C                    -0.226156
     36 C                    -0.178998
     37 H                     0.189670
     38 H                     0.193743
     39 H                     0.212076
  ----------------------------------------
  Sum of atomic charges =     0.000000

                    Cartesian Multipole Moments
 -----------------------------------------------------------------
    Charge (ESU x 10^10)
                 0.0000
    Dipole Moment (Debye)
         X       1.1288      Y       0.8702      Z      -0.9039
       Tot       1.6878
    Quadrupole Moments (Debye-Ang)
        XX    -181.0682     XY       6.1785     YY    -167.3710
        XZ       3.8612     YZ       0.5534     ZZ    -157.9127

 Total job time:  264.20s(wall), 8069.97s(cpu)
        *  Thank you very much for using Q-Chem.  Have a nice day.  *
