 Q-Chem 5.4, Q-Chem, Inc., Pleasanton, CA (2021)
 Q-Chem 5.4.0 for Intel X86 EM64T Linux

User input:
--------------------------------------------------------------
$molecule
0 1
C	-0.253280	-6.741404	-0.043160
C	-1.539213	-6.155638	-0.269777
C	0.814295	-5.791452	0.145543
C	-1.813519	-4.803786	-0.318377
H	-2.403941	-6.821518	-0.422058
C	0.527140	-4.378638	0.094194
C	-0.783072	-3.838032	-0.137191
C	1.556403	-3.413062	0.275104
C	-1.067932	-2.426473	-0.188116
C	1.285420	-2.059348	0.226701
C	0.000000	-1.478216	0.000000
H	2.151147	-1.394783	0.378931
C	2.234582	-6.187987	0.397845
C	2.965273	-3.798164	0.523637
N	3.204744	-5.170003	0.567586
C	-3.226257	-4.424987	-0.567421
C	-2.489446	-2.036627	-0.439541
N	-3.459801	-3.049156	-0.609650
O	2.619468	-7.353131	0.468608
O	3.874668	-2.986854	0.683034
O	-4.124806	-5.248946	-0.725131
O	-2.895819	-0.878829	-0.512648
C	4.595691	-5.563799	0.813908
H	4.640022	-6.664085	0.822891
H	4.934830	-5.147101	1.781600
H	5.246157	-5.148785	0.020360
C	-4.829716	-2.587487	-0.851649
H	-5.462742	-3.483329	-0.962191
H	-4.863242	-1.964972	-1.765865
H	-5.173521	-1.962932	-0.005383
H	-0.070208	-7.822318	-0.010555
C	0.000000	0.000000	0.000000
S	0.068929	0.790170	1.580530
C	0.211639	2.421655	0.904911
C	0.086813	0.994207	-0.985400
C	0.201782	2.309433	-0.493528
H	0.066299	0.759454	-2.059934
H	0.278488	3.187020	-1.152593
H	0.288312	3.298992	1.556025
$end

$rem
JOBTYPE		SP
EXCHANGE	HF
CORRELATION	pRIMP2
BASIS		cc-pvtz
METHOD		rimp2
AUX_BASIS	rimp2-cc-pvtz
SOLVENT_METHOD	PCM
PURECART	11111
SYMMETRY	false
MEM_TOTAL	110000
SCF_CONVERGENCE = 6
THRESH=10
GUI = 2
$end

$solvent
dielectric 4.90
$end
--------------------------------------------------------------

             Standard Nuclear Orientation (Angstroms)
    I     Atom           X                Y                Z
 ----------------------------------------------------------------
    1      C      -0.2532800000    -6.7414040000    -0.0431600000
    2      C      -1.5392130000    -6.1556380000    -0.2697770000
    3      C       0.8142950000    -5.7914520000     0.1455430000
    4      C      -1.8135190000    -4.8037860000    -0.3183770000
    5      H      -2.4039410000    -6.8215180000    -0.4220580000
    6      C       0.5271400000    -4.3786380000     0.0941940000
    7      C      -0.7830720000    -3.8380320000    -0.1371910000
    8      C       1.5564030000    -3.4130620000     0.2751040000
    9      C      -1.0679320000    -2.4264730000    -0.1881160000
   10      C       1.2854200000    -2.0593480000     0.2267010000
   11      C       0.0000000000    -1.4782160000     0.0000000000
   12      H       2.1511470000    -1.3947830000     0.3789310000
   13      C       2.2345820000    -6.1879870000     0.3978450000
   14      C       2.9652730000    -3.7981640000     0.5236370000
   15      N       3.2047440000    -5.1700030000     0.5675860000
   16      C      -3.2262570000    -4.4249870000    -0.5674210000
   17      C      -2.4894460000    -2.0366270000    -0.4395410000
   18      N      -3.4598010000    -3.0491560000    -0.6096500000
   19      O       2.6194680000    -7.3531310000     0.4686080000
   20      O       3.8746680000    -2.9868540000     0.6830340000
   21      O      -4.1248060000    -5.2489460000    -0.7251310000
   22      O      -2.8958190000    -0.8788290000    -0.5126480000
   23      C       4.5956910000    -5.5637990000     0.8139080000
   24      H       4.6400220000    -6.6640850000     0.8228910000
   25      H       4.9348300000    -5.1471010000     1.7816000000
   26      H       5.2461570000    -5.1487850000     0.0203600000
   27      C      -4.8297160000    -2.5874870000    -0.8516490000
   28      H      -5.4627420000    -3.4833290000    -0.9621910000
   29      H      -4.8632420000    -1.9649720000    -1.7658650000
   30      H      -5.1735210000    -1.9629320000    -0.0053830000
   31      H      -0.0702080000    -7.8223180000    -0.0105550000
   32      C       0.0000000000     0.0000000000     0.0000000000
   33      S       0.0689290000     0.7901700000     1.5805300000
   34      C       0.2116390000     2.4216550000     0.9049110000
   35      C       0.0868130000     0.9942070000    -0.9854000000
   36      C       0.2017820000     2.3094330000    -0.4935280000
   37      H       0.0662990000     0.7594540000    -2.0599340000
   38      H       0.2784880000     3.1870200000    -1.1525930000
   39      H       0.2883120000     3.2989920000     1.5560250000
 ----------------------------------------------------------------

   10   -1570.6907036292      6.94e-07  Convergence criterion met
 Total energy in the final basis set =    -1570.6907036292
        RIMP2         total energy =     -1575.3138763198 a.u.

                    Orbital Energies (a.u.)
 --------------------------------------------------------------

 Alpha MOs
 -- Occupied --
-91.9927 -20.5589 -20.5578 -20.5564 -20.5560 -15.6317 -15.6316 -11.4006
-11.3979 -11.3936 -11.3909 -11.3163 -11.3087 -11.3035 -11.3018 -11.3003
-11.2997 -11.2942 -11.2877 -11.2867 -11.2813 -11.2803 -11.2796 -11.2650
-11.2647 -11.2544 -11.2502  -8.9919  -6.6727  -6.6722  -6.6716  -1.4252
 -1.4249  -1.4045  -1.4040  -1.2682  -1.2659  -1.2187  -1.1749  -1.1448
 -1.1187  -1.0640  -1.0511  -0.9937  -0.9898  -0.9828  -0.9597  -0.9489
 -0.8981  -0.8802  -0.8787  -0.8618  -0.7963  -0.7781  -0.7736  -0.7593
 -0.7380  -0.7192  -0.7055  -0.6956  -0.6814  -0.6734  -0.6669  -0.6627
 -0.6576  -0.6430  -0.6383  -0.6346  -0.6310  -0.6131  -0.5858  -0.5849
 -0.5785  -0.5731  -0.5666  -0.5646  -0.5617  -0.5556  -0.5531  -0.5489
 -0.5355  -0.5271  -0.5203  -0.5171  -0.4841  -0.4711  -0.4673  -0.4613
 -0.4610  -0.4541  -0.4288  -0.4186  -0.4094  -0.3574  -0.3501  -0.3345
 -0.3229

          Ground-State Mulliken Net Atomic Charges

     Atom                 Charge (a.u.)
  ----------------------------------------
      1 C                    -0.128888
      2 C                    -0.107678
      3 C                    -0.044225
      4 C                    -0.000528
      5 H                     0.189093
      6 C                    -0.001693
      7 C                     0.072599
      8 C                     0.001941
      9 C                    -0.008474
     10 C                    -0.112469
     11 C                     0.040892
     12 H                     0.185457
     13 C                     0.361118
     14 C                     0.368113
     15 N                    -0.101988
     16 C                     0.360251
     17 C                     0.352514
     18 N                    -0.097930
     19 O                    -0.464683
     20 O                    -0.476213
     21 O                    -0.479223
     22 O                    -0.457109
     23 C                    -0.200980
     24 H                     0.141105
     25 H                     0.112596
     26 H                     0.112484
     27 C                    -0.195665
     28 H                     0.133763
     29 H                     0.113113
     30 H                     0.113812
     31 H                     0.214869
     32 C                    -0.028760
     33 S                     0.031518
     34 C                    -0.214070
     35 C                    -0.174439
     36 C                    -0.200824
     37 H                     0.188224
     38 H                     0.191409
     39 H                     0.210967
  ----------------------------------------
  Sum of atomic charges =     0.000000

                    Cartesian Multipole Moments
 -----------------------------------------------------------------
    Charge (ESU x 10^10)
                 0.0000
    Dipole Moment (Debye)
         X       0.0947      Y       0.6182      Z      -0.9634
       Tot       1.1486
    Quadrupole Moments (Debye-Ang)
        XX    -183.5164     XY       2.1904     YY    -163.3331
        XZ      -3.4026     YZ       0.9606     ZZ    -158.1417

 Total job time:  264.75s(wall), 7658.31s(cpu)
        *  Thank you very much for using Q-Chem.  Have a nice day.  *
