 Q-Chem 5.4, Q-Chem, Inc., Pleasanton, CA (2021)
 Q-Chem 5.4.0 for Intel X86 EM64T Linux

User input:
--------------------------------------------------------------
$molecule
0 1
C	0.086486	-6.741404	-0.241938
C	0.532960	-6.155638	-1.468983
C	-0.284733	-5.791452	0.776651
C	0.628455	-4.803786	-1.730681
H	0.833086	-6.821518	-2.294130
C	-0.184300	-4.378638	0.502775
C	0.271086	-3.838032	-0.747353
C	-0.541191	-3.413062	1.484986
C	0.370703	-2.426473	-1.019042
C	-0.446468	-2.059348	1.226525
C	0.000000	-1.478216	0.000000
H	-0.746717	-1.394783	2.052666
C	-0.779832	-6.187987	2.131549
C	-1.030596	-3.798164	2.829295
N	-1.115461	-5.170003	3.057496
C	1.119034	-4.424987	-3.078712
C	0.865151	-2.036627	-2.375300
N	1.201176	-3.049156	-3.301374
O	-0.916355	-7.353131	2.498300
O	-1.345486	-2.986854	3.697195
O	1.430379	-5.248946	-3.936224
O	1.007714	-0.878829	-2.762805
C	-1.599576	-5.563799	4.384539
H	-1.616121	-6.664085	4.426636
H	-2.611458	-5.147101	4.550487
H	-0.931037	-5.148785	5.162921
C	1.677382	-2.587487	-4.608454
H	1.896168	-3.483329	-5.212668
H	2.583531	-1.964972	-4.482719
H	0.903674	-1.962932	-5.093988
H	0.022586	-7.822318	-0.067309
C	0.000000	0.000000	0.000000
S	0.396411	0.687007	1.580530
C	1.215245	2.105322	0.904911
C	0.498850	0.864369	-0.985400
C	1.158885	2.007781	-0.493528
H	0.381046	0.660280	-2.059934
H	1.599289	2.770727	-1.152593
H	1.655514	2.868056	1.556025
$end

$rem
JOBTYPE		SP
EXCHANGE	HF
CORRELATION	pRIMP2
BASIS		cc-pvtz
METHOD		rimp2
AUX_BASIS	rimp2-cc-pvtz
SOLVENT_METHOD	PCM
PURECART	11111
SYMMETRY	false
MEM_TOTAL	110000
SCF_CONVERGENCE = 6
THRESH=10
GUI = 2
$end

$solvent
dielectric 4.90
$end
--------------------------------------------------------------

             Standard Nuclear Orientation (Angstroms)
    I     Atom           X                Y                Z
 ----------------------------------------------------------------
    1      C       0.0864860000    -6.7414040000    -0.2419380000
    2      C       0.5329600000    -6.1556380000    -1.4689830000
    3      C      -0.2847330000    -5.7914520000     0.7766510000
    4      C       0.6284550000    -4.8037860000    -1.7306810000
    5      H       0.8330860000    -6.8215180000    -2.2941300000
    6      C      -0.1843000000    -4.3786380000     0.5027750000
    7      C       0.2710860000    -3.8380320000    -0.7473530000
    8      C      -0.5411910000    -3.4130620000     1.4849860000
    9      C       0.3707030000    -2.4264730000    -1.0190420000
   10      C      -0.4464680000    -2.0593480000     1.2265250000
   11      C       0.0000000000    -1.4782160000     0.0000000000
   12      H      -0.7467170000    -1.3947830000     2.0526660000
   13      C      -0.7798320000    -6.1879870000     2.1315490000
   14      C      -1.0305960000    -3.7981640000     2.8292950000
   15      N      -1.1154610000    -5.1700030000     3.0574960000
   16      C       1.1190340000    -4.4249870000    -3.0787120000
   17      C       0.8651510000    -2.0366270000    -2.3753000000
   18      N       1.2011760000    -3.0491560000    -3.3013740000
   19      O      -0.9163550000    -7.3531310000     2.4983000000
   20      O      -1.3454860000    -2.9868540000     3.6971950000
   21      O       1.4303790000    -5.2489460000    -3.9362240000
   22      O       1.0077140000    -0.8788290000    -2.7628050000
   23      C      -1.5995760000    -5.5637990000     4.3845390000
   24      H      -1.6161210000    -6.6640850000     4.4266360000
   25      H      -2.6114580000    -5.1471010000     4.5504870000
   26      H      -0.9310370000    -5.1487850000     5.1629210000
   27      C       1.6773820000    -2.5874870000    -4.6084540000
   28      H       1.8961680000    -3.4833290000    -5.2126680000
   29      H       2.5835310000    -1.9649720000    -4.4827190000
   30      H       0.9036740000    -1.9629320000    -5.0939880000
   31      H       0.0225860000    -7.8223180000    -0.0673090000
   32      C       0.0000000000     0.0000000000     0.0000000000
   33      S       0.3964110000     0.6870070000     1.5805300000
   34      C       1.2152450000     2.1053220000     0.9049110000
   35      C       0.4988500000     0.8643690000    -0.9854000000
   36      C       1.1588850000     2.0077810000    -0.4935280000
   37      H       0.3810460000     0.6602800000    -2.0599340000
   38      H       1.5992890000     2.7707270000    -1.1525930000
   39      H       1.6555140000     2.8680560000     1.5560250000
 ----------------------------------------------------------------

   10   -1570.6650303219      9.75e-07  Convergence criterion met
 Total energy in the final basis set =    -1570.6650303219
        RIMP2         total energy =     -1575.2958484331 a.u.

                    Orbital Energies (a.u.)
 --------------------------------------------------------------

 Alpha MOs
 -- Occupied --
-91.9929 -20.5580 -20.5558 -20.5529 -20.5528 -15.6306 -15.6300 -11.3992
-11.3965 -11.3905 -11.3901 -11.3192 -11.3011 -11.2988 -11.2962 -11.2946
-11.2931 -11.2920 -11.2862 -11.2824 -11.2816 -11.2777 -11.2769 -11.2647
-11.2641 -11.2559 -11.2499  -8.9928  -6.6736  -6.6731  -6.6724  -1.4253
 -1.4243  -1.4037  -1.4036  -1.2670  -1.2649  -1.2158  -1.1788  -1.1429
 -1.1148  -1.0624  -1.0480  -0.9919  -0.9902  -0.9884  -0.9583  -0.9468
 -0.8963  -0.8783  -0.8765  -0.8609  -0.7953  -0.7781  -0.7727  -0.7631
 -0.7351  -0.7263  -0.7029  -0.6929  -0.6811  -0.6730  -0.6660  -0.6618
 -0.6552  -0.6406  -0.6371  -0.6338  -0.6269  -0.6123  -0.5896  -0.5832
 -0.5772  -0.5737  -0.5657  -0.5631  -0.5598  -0.5556  -0.5535  -0.5465
 -0.5330  -0.5241  -0.5219  -0.5174  -0.4807  -0.4671  -0.4647  -0.4633
 -0.4572  -0.4479  -0.4286  -0.4187  -0.4088  -0.3762  -0.3523  -0.3358
 -0.2987

          Ground-State Mulliken Net Atomic Charges

     Atom                 Charge (a.u.)
  ----------------------------------------
      1 C                    -0.150227
      2 C                    -0.110850
      3 C                    -0.030590
      4 C                    -0.003817
      5 H                     0.187393
      6 C                    -0.008954
      7 C                     0.079084
      8 C                     0.028393
      9 C                    -0.073057
     10 C                    -0.157213
     11 C                     0.072192
     12 H                     0.165847
     13 C                     0.359684
     14 C                     0.364993
     15 N                    -0.101498
     16 C                     0.358478
     17 C                     0.388265
     18 N                    -0.091912
     19 O                    -0.464423
     20 O                    -0.476754
     21 O                    -0.484016
     22 O                    -0.477928
     23 C                    -0.201269
     24 H                     0.140971
     25 H                     0.112309
     26 H                     0.112412
     27 C                    -0.198722
     28 H                     0.134615
     29 H                     0.112243
     30 H                     0.112368
     31 H                     0.211936
     32 C                    -0.024014
     33 S                     0.029643
     34 C                    -0.184216
     35 C                    -0.151887
     36 C                    -0.208771
     37 H                     0.217881
     38 H                     0.193676
     39 H                     0.217736
  ----------------------------------------
  Sum of atomic charges =     0.000000

                    Cartesian Multipole Moments
 -----------------------------------------------------------------
    Charge (ESU x 10^10)
                -0.0000
    Dipole Moment (Debye)
         X       1.3997      Y       2.5568      Z      -0.9206
       Tot       3.0567
    Quadrupole Moments (Debye-Ang)
        XX    -163.2907     XY       5.5543     YY    -172.9739
        XZ       7.1806     YZ       0.2606     ZZ    -175.8733

 Total job time:  272.01s(wall), 8116.57s(cpu)
        *  Thank you very much for using Q-Chem.  Have a nice day.  *
