 Q-Chem 5.4, Q-Chem, Inc., Pleasanton, CA (2021)
 Q-Chem 5.4.0 for Intel X86 EM64T Linux

User input:
--------------------------------------------------------------
$molecule
0 1
C	-0.164018	-6.741404	0.197767
C	-1.003240	-6.155638	1.198109
C	0.533192	-5.791452	-0.632428
C	-1.182482	-4.803786	1.411364
H	-1.567483	-6.821518	1.870845
C	0.345145	-4.378638	-0.409419
C	-0.510347	-3.838032	0.609565
C	1.016449	-3.413062	-1.210332
C	-0.696879	-2.426473	0.830799
C	0.839039	-2.059348	-0.999856
C	0.000000	-1.478216	0.000000
H	1.403737	-1.394783	-1.673483
C	1.461835	-6.187987	-1.736282
C	1.936119	-3.798164	-2.306183
N	2.093916	-5.170003	-2.491597
C	-2.104529	-4.424987	2.510310
C	-1.625377	-2.036627	1.936153
N	-2.257873	-3.049156	2.691451
O	1.715561	-7.353131	-2.034222
O	2.528858	-2.986854	-3.014044
O	-2.690385	-5.248946	3.209622
O	-1.891876	-0.878829	2.251529
C	3.002711	-5.563799	-3.573032
H	3.032655	-6.664085	-3.606932
H	4.010326	-5.147101	-3.382888
H	2.640711	-5.148785	-4.533125
C	-3.152408	-2.587487	3.756832
H	-3.564653	-3.483329	4.249778
H	-3.960905	-1.964972	3.328759
H	-2.591422	-1.962932	4.477709
H	-0.044245	-7.822318	0.055524
C	0.000000	0.000000	0.000000
S	0.137535	0.781156	1.580530
C	0.421895	2.393994	0.904911
C	0.173134	0.982857	-0.985400
C	0.402294	2.283058	-0.493528
H	0.132237	0.750786	-2.059934
H	0.555196	3.150621	-1.152593
H	0.574741	3.261310	1.556025
$end

$rem
JOBTYPE		SP
EXCHANGE	HF
CORRELATION	pRIMP2
BASIS		cc-pvtz
METHOD		rimp2
AUX_BASIS	rimp2-cc-pvtz
SOLVENT_METHOD	PCM
PURECART	11111
SYMMETRY	false
MEM_TOTAL	110000
SCF_CONVERGENCE = 6
THRESH=10
GUI = 2
$end

$solvent
dielectric 4.90
$end
--------------------------------------------------------------

             Standard Nuclear Orientation (Angstroms)
    I     Atom           X                Y                Z
 ----------------------------------------------------------------
    1      C      -0.1640180000    -6.7414040000     0.1977670000
    2      C      -1.0032400000    -6.1556380000     1.1981090000
    3      C       0.5331920000    -5.7914520000    -0.6324280000
    4      C      -1.1824820000    -4.8037860000     1.4113640000
    5      H      -1.5674830000    -6.8215180000     1.8708450000
    6      C       0.3451450000    -4.3786380000    -0.4094190000
    7      C      -0.5103470000    -3.8380320000     0.6095650000
    8      C       1.0164490000    -3.4130620000    -1.2103320000
    9      C      -0.6968790000    -2.4264730000     0.8307990000
   10      C       0.8390390000    -2.0593480000    -0.9998560000
   11      C       0.0000000000    -1.4782160000     0.0000000000
   12      H       1.4037370000    -1.3947830000    -1.6734830000
   13      C       1.4618350000    -6.1879870000    -1.7362820000
   14      C       1.9361190000    -3.7981640000    -2.3061830000
   15      N       2.0939160000    -5.1700030000    -2.4915970000
   16      C      -2.1045290000    -4.4249870000     2.5103100000
   17      C      -1.6253770000    -2.0366270000     1.9361530000
   18      N      -2.2578730000    -3.0491560000     2.6914510000
   19      O       1.7155610000    -7.3531310000    -2.0342220000
   20      O       2.5288580000    -2.9868540000    -3.0140440000
   21      O      -2.6903850000    -5.2489460000     3.2096220000
   22      O      -1.8918760000    -0.8788290000     2.2515290000
   23      C       3.0027110000    -5.5637990000    -3.5730320000
   24      H       3.0326550000    -6.6640850000    -3.6069320000
   25      H       4.0103260000    -5.1471010000    -3.3828880000
   26      H       2.6407110000    -5.1487850000    -4.5331250000
   27      C      -3.1524080000    -2.5874870000     3.7568320000
   28      H      -3.5646530000    -3.4833290000     4.2497780000
   29      H      -3.9609050000    -1.9649720000     3.3287590000
   30      H      -2.5914220000    -1.9629320000     4.4777090000
   31      H      -0.0442450000    -7.8223180000     0.0555240000
   32      C       0.0000000000     0.0000000000     0.0000000000
   33      S       0.1375350000     0.7811560000     1.5805300000
   34      C       0.4218950000     2.3939940000     0.9049110000
   35      C       0.1731340000     0.9828570000    -0.9854000000
   36      C       0.4022940000     2.2830580000    -0.4935280000
   37      H       0.1322370000     0.7507860000    -2.0599340000
   38      H       0.5551960000     3.1506210000    -1.1525930000
   39      H       0.5747410000     3.2613100000     1.5560250000
 ----------------------------------------------------------------

   10   -1570.6837258343      7.37e-07  Convergence criterion met
 Total energy in the final basis set =    -1570.6837258343
        RIMP2         total energy =     -1575.3125410566 a.u.

                    Orbital Energies (a.u.)
 --------------------------------------------------------------

 Alpha MOs
 -- Occupied --
-91.9857 -20.5588 -20.5567 -20.5543 -20.5543 -15.6315 -15.6303 -11.4003
-11.3962 -11.3919 -11.3910 -11.3182 -11.3029 -11.3027 -11.3009 -11.2974
-11.2966 -11.2911 -11.2868 -11.2851 -11.2828 -11.2800 -11.2783 -11.2648
-11.2643 -11.2601 -11.2474  -8.9852  -6.6658  -6.6653  -6.6647  -1.4252
 -1.4245  -1.4045  -1.4035  -1.2677  -1.2652  -1.2174  -1.1743  -1.1437
 -1.1173  -1.0627  -1.0498  -0.9929  -0.9889  -0.9830  -0.9590  -0.9478
 -0.8968  -0.8796  -0.8778  -0.8615  -0.7946  -0.7771  -0.7740  -0.7616
 -0.7331  -0.7186  -0.7047  -0.6943  -0.6832  -0.6742  -0.6665  -0.6623
 -0.6568  -0.6411  -0.6373  -0.6338  -0.6288  -0.6135  -0.5842  -0.5836
 -0.5792  -0.5713  -0.5671  -0.5664  -0.5642  -0.5555  -0.5540  -0.5485
 -0.5329  -0.5236  -0.5211  -0.5189  -0.4845  -0.4726  -0.4643  -0.4610
 -0.4578  -0.4469  -0.4279  -0.4179  -0.4091  -0.3691  -0.3457  -0.3366
 -0.3046

          Ground-State Mulliken Net Atomic Charges

     Atom                 Charge (a.u.)
  ----------------------------------------
      1 C                    -0.138614
      2 C                    -0.108626
      3 C                    -0.037934
      4 C                    -0.004642
      5 H                     0.188773
      6 C                     0.002903
      7 C                     0.078793
      8 C                     0.000584
      9 C                    -0.061406
     10 C                    -0.134712
     11 C                     0.095149
     12 H                     0.185031
     13 C                     0.360125
     14 C                     0.365504
     15 N                    -0.101600
     16 C                     0.359609
     17 C                     0.361211
     18 N                    -0.095732
     19 O                    -0.464358
     20 O                    -0.476624
     21 O                    -0.481637
     22 O                    -0.464475
     23 C                    -0.201078
     24 H                     0.141187
     25 H                     0.112471
     26 H                     0.112236
     27 C                    -0.196455
     28 H                     0.133819
     29 H                     0.113164
     30 H                     0.112956
     31 H                     0.213589
     32 C                    -0.030625
     33 S                     0.073586
     34 C                    -0.208939
     35 C                    -0.185651
     36 C                    -0.211635
     37 H                     0.192861
     38 H                     0.189831
     39 H                     0.211362
  ----------------------------------------
  Sum of atomic charges =     0.000000

                    Cartesian Multipole Moments
 -----------------------------------------------------------------
    Charge (ESU x 10^10)
                 0.0000
    Dipole Moment (Debye)
         X       0.2371      Y       1.2919      Z      -0.6793
       Tot       1.4788
    Quadrupole Moments (Debye-Ang)
        XX    -172.2686     XY       2.0863     YY    -166.9452
        XZ       9.9209     YZ       0.6064     ZZ    -169.0084

 Total job time:  264.74s(wall), 8095.01s(cpu)
        *  Thank you very much for using Q-Chem.  Have a nice day.  *
