 Q-Chem 5.4, Q-Chem, Inc., Pleasanton, CA (2021)
 Q-Chem 5.4.0 for Intel X86 EM64T Linux

User input:
--------------------------------------------------------------
$molecule
0 1
C	-0.089263	-6.741404	-0.240927
C	-0.535973	-6.155638	-1.467886
C	0.281103	-5.791452	0.777972
C	-0.631036	-4.803786	-1.729742
H	-0.836458	-6.821518	-2.292903
C	0.181995	-4.378638	0.503614
C	-0.272725	-3.838032	-0.746756
C	0.539954	-3.413062	1.485437
C	-0.371053	-2.426473	-1.018915
C	0.446381	-2.059348	1.226557
C	0.000000	-1.478216	0.000000
H	0.747410	-1.394783	2.052413
C	0.772747	-6.187987	2.134128
C	1.029154	-3.798164	2.829820
N	1.110828	-5.170003	3.059182
C	-1.121728	-4.424987	-3.077731
C	-0.864069	-2.036627	-2.375694
N	-1.201928	-3.049156	-3.301101
O	0.903908	-7.353131	2.502830
O	1.345809	-2.986854	3.697078
O	-1.434422	-5.248946	-3.934752
O	-1.003943	-0.878829	-2.764177
C	1.592981	-5.563799	4.386939
H	1.607367	-6.664085	4.429822
H	0.924504	-5.147101	5.164489
H	2.605446	-5.148785	4.553486
C	-1.677308	-2.587487	-4.608481
H	-1.898089	-3.483329	-5.211969
H	-0.902337	-1.964972	-5.094624
H	-2.582098	-1.962932	-4.483092
H	-0.025963	-7.822318	-0.066080
C	0.000000	0.000000	0.000000
S	0.068929	0.790170	1.580530
C	0.211639	2.421655	0.904911
C	0.086813	0.994207	-0.985400
C	0.201782	2.309433	-0.493528
H	0.066299	0.759454	-2.059934
H	0.278488	3.187020	-1.152593
H	0.288312	3.298992	1.556025
$end

$rem
JOBTYPE		SP
EXCHANGE	HF
CORRELATION	pRIMP2
BASIS		cc-pvtz
METHOD		rimp2
AUX_BASIS	rimp2-cc-pvtz
SOLVENT_METHOD	PCM
PURECART	11111
SYMMETRY	false
MEM_TOTAL	110000
SCF_CONVERGENCE = 6
THRESH=10
GUI = 2
$end

$solvent
dielectric 4.90
$end
--------------------------------------------------------------

             Standard Nuclear Orientation (Angstroms)
    I     Atom           X                Y                Z
 ----------------------------------------------------------------
    1      C      -0.0892630000    -6.7414040000    -0.2409270000
    2      C      -0.5359730000    -6.1556380000    -1.4678860000
    3      C       0.2811030000    -5.7914520000     0.7779720000
    4      C      -0.6310360000    -4.8037860000    -1.7297420000
    5      H      -0.8364580000    -6.8215180000    -2.2929030000
    6      C       0.1819950000    -4.3786380000     0.5036140000
    7      C      -0.2727250000    -3.8380320000    -0.7467560000
    8      C       0.5399540000    -3.4130620000     1.4854370000
    9      C      -0.3710530000    -2.4264730000    -1.0189150000
   10      C       0.4463810000    -2.0593480000     1.2265570000
   11      C       0.0000000000    -1.4782160000     0.0000000000
   12      H       0.7474100000    -1.3947830000     2.0524130000
   13      C       0.7727470000    -6.1879870000     2.1341280000
   14      C       1.0291540000    -3.7981640000     2.8298200000
   15      N       1.1108280000    -5.1700030000     3.0591820000
   16      C      -1.1217280000    -4.4249870000    -3.0777310000
   17      C      -0.8640690000    -2.0366270000    -2.3756940000
   18      N      -1.2019280000    -3.0491560000    -3.3011010000
   19      O       0.9039080000    -7.3531310000     2.5028300000
   20      O       1.3458090000    -2.9868540000     3.6970780000
   21      O      -1.4344220000    -5.2489460000    -3.9347520000
   22      O      -1.0039430000    -0.8788290000    -2.7641770000
   23      C       1.5929810000    -5.5637990000     4.3869390000
   24      H       1.6073670000    -6.6640850000     4.4298220000
   25      H       0.9245040000    -5.1471010000     5.1644890000
   26      H       2.6054460000    -5.1487850000     4.5534860000
   27      C      -1.6773080000    -2.5874870000    -4.6084810000
   28      H      -1.8980890000    -3.4833290000    -5.2119690000
   29      H      -0.9023370000    -1.9649720000    -5.0946240000
   30      H      -2.5820980000    -1.9629320000    -4.4830920000
   31      H      -0.0259630000    -7.8223180000    -0.0660800000
   32      C       0.0000000000     0.0000000000     0.0000000000
   33      S       0.0689290000     0.7901700000     1.5805300000
   34      C       0.2116390000     2.4216550000     0.9049110000
   35      C       0.0868130000     0.9942070000    -0.9854000000
   36      C       0.2017820000     2.3094330000    -0.4935280000
   37      H       0.0662990000     0.7594540000    -2.0599340000
   38      H       0.2784880000     3.1870200000    -1.1525930000
   39      H       0.2883120000     3.2989920000     1.5560250000
 ----------------------------------------------------------------

   10   -1570.6886244806      7.55e-07  Convergence criterion met
 Total energy in the final basis set =    -1570.6886244806
        RIMP2         total energy =     -1575.3157513708 a.u.

                    Orbital Energies (a.u.)
 --------------------------------------------------------------

 Alpha MOs
 -- Occupied --
-91.9937 -20.5586 -20.5565 -20.5553 -20.5538 -15.6312 -15.6304 -11.3999
-11.3964 -11.3915 -11.3908 -11.3193 -11.3023 -11.3006 -11.2996 -11.2960
-11.2950 -11.2921 -11.2894 -11.2873 -11.2839 -11.2793 -11.2781 -11.2648
-11.2644 -11.2560 -11.2507  -8.9934  -6.6742  -6.6737  -6.6731  -1.4249
 -1.4245  -1.4042  -1.4034  -1.2674  -1.2651  -1.2171  -1.1775  -1.1443
 -1.1166  -1.0638  -1.0496  -0.9926  -0.9904  -0.9868  -0.9588  -0.9476
 -0.8972  -0.8792  -0.8787  -0.8613  -0.7967  -0.7795  -0.7729  -0.7621
 -0.7362  -0.7200  -0.7040  -0.6944  -0.6818  -0.6738  -0.6664  -0.6622
 -0.6562  -0.6417  -0.6370  -0.6335  -0.6284  -0.6129  -0.5900  -0.5839
 -0.5793  -0.5724  -0.5658  -0.5630  -0.5620  -0.5559  -0.5532  -0.5474
 -0.5373  -0.5259  -0.5237  -0.5162  -0.4826  -0.4691  -0.4663  -0.4629
 -0.4593  -0.4523  -0.4288  -0.4188  -0.4097  -0.3757  -0.3549  -0.3367
 -0.3009

          Ground-State Mulliken Net Atomic Charges

     Atom                 Charge (a.u.)
  ----------------------------------------
      1 C                    -0.142218
      2 C                    -0.109982
      3 C                    -0.032900
      4 C                    -0.004882
      5 H                     0.188349
      6 C                     0.001636
      7 C                     0.071411
      8 C                     0.040461
      9 C                    -0.065452
     10 C                    -0.175219
     11 C                     0.079844
     12 H                     0.168864
     13 C                     0.358855
     14 C                     0.365622
     15 N                    -0.101733
     16 C                     0.359770
     17 C                     0.373826
     18 N                    -0.093335
     19 O                    -0.464288
     20 O                    -0.476439
     21 O                    -0.482774
     22 O                    -0.476919
     23 C                    -0.201087
     24 H                     0.141052
     25 H                     0.112610
     26 H                     0.112463
     27 C                    -0.197370
     28 H                     0.134254
     29 H                     0.112229
     30 H                     0.112979
     31 H                     0.213021
     32 C                    -0.032633
     33 S                     0.013550
     34 C                    -0.181379
     35 C                    -0.104858
     36 C                    -0.238017
     37 H                     0.211842
     38 H                     0.191272
     39 H                     0.217578
  ----------------------------------------
  Sum of atomic charges =     0.000000

                    Cartesian Multipole Moments
 -----------------------------------------------------------------
    Charge (ESU x 10^10)
                -0.0000
    Dipole Moment (Debye)
         X       0.2955      Y       1.9981      Z      -0.8088
       Tot       2.1758
    Quadrupole Moments (Debye-Ang)
        XX    -166.3720     XY       0.8872     YY    -167.0964
        XZ      -6.6203     YZ       0.7372     ZZ    -175.7220

 Total job time:  260.31s(wall), 7579.16s(cpu)
        *  Thank you very much for using Q-Chem.  Have a nice day.  *
