 Q-Chem 5.4, Q-Chem, Inc., Pleasanton, CA (2021)
 Q-Chem 5.4.0 for Intel X86 EM64T Linux

User input:
--------------------------------------------------------------
$molecule
0 1
C	0.129743	-6.741404	0.221766
C	0.782726	-6.155638	1.352515
C	-0.411926	-5.791452	-0.717339
C	0.921816	-4.803786	1.593885
H	1.221908	-6.821518	2.112819
C	-0.266682	-4.378638	-0.464360
C	0.398255	-3.838032	0.688053
C	-0.789694	-3.413062	-1.369108
C	0.542349	-2.426473	0.939002
C	-0.652589	-2.059348	-1.130409
C	-0.000000	-1.478216	-0.000000
H	-1.092453	-1.394783	-1.891446
C	-1.131595	-6.187987	-1.967519
C	-1.504912	-3.798164	-2.608118
N	-1.625174	-5.170003	-2.819813
C	1.639129	-4.424987	2.836188
C	1.263477	-2.036627	2.189558
N	1.756898	-3.049156	3.042237
O	-1.324787	-7.353131	-2.307845
O	-1.967354	-2.986854	-3.407213
O	2.095892	-5.248946	3.625890
O	1.468685	-0.878829	2.547850
C	-2.330564	-5.563799	-4.043674
H	-2.352178	-6.664085	-4.083407
H	-1.807263	-5.147101	-4.925490
H	-3.356568	-5.148785	-4.031877
C	2.452080	-2.587487	4.247206
H	2.774302	-3.483329	4.803187
H	1.773301	-1.964972	4.860536
H	3.321351	-1.962932	3.966607
H	0.037043	-7.822318	0.060567
C	0.000000	0.000000	0.000000
S	0.607475	0.509994	1.580530
C	1.862020	1.562717	0.904911
C	0.764397	0.641624	-0.985400
C	1.775697	1.490335	-0.493528
H	0.583895	0.490135	-2.059934
H	2.450484	2.056643	-1.152593
H	2.536607	2.128872	1.556025
$end

$rem
JOBTYPE		SP
EXCHANGE	HF
CORRELATION	pRIMP2
BASIS		cc-pvtz
METHOD		rimp2
AUX_BASIS	rimp2-cc-pvtz
SOLVENT_METHOD	PCM
PURECART	11111
SYMMETRY	false
MEM_TOTAL	110000
SCF_CONVERGENCE = 6
THRESH=10
GUI = 2
$end

$solvent
dielectric 4.90
$end
--------------------------------------------------------------

             Standard Nuclear Orientation (Angstroms)
    I     Atom           X                Y                Z
 ----------------------------------------------------------------
    1      C       0.1297430000    -6.7414040000     0.2217660000
    2      C       0.7827260000    -6.1556380000     1.3525150000
    3      C      -0.4119260000    -5.7914520000    -0.7173390000
    4      C       0.9218160000    -4.8037860000     1.5938850000
    5      H       1.2219080000    -6.8215180000     2.1128190000
    6      C      -0.2666820000    -4.3786380000    -0.4643600000
    7      C       0.3982550000    -3.8380320000     0.6880530000
    8      C      -0.7896940000    -3.4130620000    -1.3691080000
    9      C       0.5423490000    -2.4264730000     0.9390020000
   10      C      -0.6525890000    -2.0593480000    -1.1304090000
   11      C       0.0000000000    -1.4782160000     0.0000000000
   12      H      -1.0924530000    -1.3947830000    -1.8914460000
   13      C      -1.1315950000    -6.1879870000    -1.9675190000
   14      C      -1.5049120000    -3.7981640000    -2.6081180000
   15      N      -1.6251740000    -5.1700030000    -2.8198130000
   16      C       1.6391290000    -4.4249870000     2.8361880000
   17      C       1.2634770000    -2.0366270000     2.1895580000
   18      N       1.7568980000    -3.0491560000     3.0422370000
   19      O      -1.3247870000    -7.3531310000    -2.3078450000
   20      O      -1.9673540000    -2.9868540000    -3.4072130000
   21      O       2.0958920000    -5.2489460000     3.6258900000
   22      O       1.4686850000    -0.8788290000     2.5478500000
   23      C      -2.3305640000    -5.5637990000    -4.0436740000
   24      H      -2.3521780000    -6.6640850000    -4.0834070000
   25      H      -1.8072630000    -5.1471010000    -4.9254900000
   26      H      -3.3565680000    -5.1487850000    -4.0318770000
   27      C       2.4520800000    -2.5874870000     4.2472060000
   28      H       2.7743020000    -3.4833290000     4.8031870000
   29      H       1.7733010000    -1.9649720000     4.8605360000
   30      H       3.3213510000    -1.9629320000     3.9666070000
   31      H       0.0370430000    -7.8223180000     0.0605670000
   32      C       0.0000000000     0.0000000000     0.0000000000
   33      S       0.6074750000     0.5099940000     1.5805300000
   34      C       1.8620200000     1.5627170000     0.9049110000
   35      C       0.7643970000     0.6416240000    -0.9854000000
   36      C       1.7756970000     1.4903350000    -0.4935280000
   37      H       0.5838950000     0.4901350000    -2.0599340000
   38      H       2.4504840000     2.0566430000    -1.1525930000
   39      H       2.5366070000     2.1288720000     1.5560250000
 ----------------------------------------------------------------

   11   -1570.5295822630      6.01e-07  Convergence criterion met
 Total energy in the final basis set =    -1570.5295822630
        RIMP2         total energy =     -1575.1975156092 a.u.

                    Orbital Energies (a.u.)
 --------------------------------------------------------------

 Alpha MOs
 -- Occupied --
-92.0174 -20.5852 -20.5596 -20.5587 -20.5571 -15.6437 -15.6316 -11.4217
-11.4005 -11.3966 -11.3911 -11.3237 -11.3033 -11.3024 -11.2934 -11.2924
-11.2904 -11.2885 -11.2821 -11.2798 -11.2733 -11.2713 -11.2674 -11.2647
-11.2590 -11.2377 -11.2327  -9.0140  -6.6949  -6.6928  -6.6913  -1.4701
 -1.4254  -1.4155  -1.4048  -1.2829  -1.2671  -1.2176  -1.1744  -1.1404
 -1.1168  -1.0595  -1.0504  -0.9988  -0.9958  -0.9820  -0.9623  -0.9468
 -0.9034  -0.8828  -0.8748  -0.8654  -0.7946  -0.7858  -0.7807  -0.7547
 -0.7473  -0.7297  -0.7042  -0.6934  -0.6891  -0.6799  -0.6738  -0.6644
 -0.6596  -0.6467  -0.6406  -0.6396  -0.6291  -0.6162  -0.5979  -0.5912
 -0.5837  -0.5773  -0.5668  -0.5652  -0.5602  -0.5598  -0.5532  -0.5509
 -0.5390  -0.5334  -0.5194  -0.5171  -0.4832  -0.4750  -0.4693  -0.4632
 -0.4566  -0.4420  -0.4221  -0.4184  -0.4104  -0.3693  -0.3393  -0.2987
 -0.2596

          Ground-State Mulliken Net Atomic Charges

     Atom                 Charge (a.u.)
  ----------------------------------------
      1 C                    -0.161398
      2 C                    -0.104235
      3 C                    -0.021607
      4 C                    -0.013435
      5 H                     0.187699
      6 C                    -0.011730
      7 C                     0.093274
      8 C                     0.000284
      9 C                    -0.155060
     10 C                    -0.150498
     11 C                     0.123926
     12 H                     0.181437
     13 C                     0.361015
     14 C                     0.364118
     15 N                    -0.101760
     16 C                     0.362798
     17 C                     0.443218
     18 N                    -0.085008
     19 O                    -0.462199
     20 O                    -0.473625
     21 O                    -0.476722
     22 O                    -0.379719
     23 C                    -0.201087
     24 H                     0.141100
     25 H                     0.112520
     26 H                     0.112711
     27 C                    -0.198772
     28 H                     0.137948
     29 H                     0.116119
     30 H                     0.115659
     31 H                     0.211123
     32 C                    -0.138410
     33 S                     0.201100
     34 C                    -0.267315
     35 C                    -0.189996
     36 C                    -0.247725
     37 H                     0.184822
     38 H                     0.185732
     39 H                     0.203699
  ----------------------------------------
  Sum of atomic charges =     0.000000

                    Cartesian Multipole Moments
 -----------------------------------------------------------------
    Charge (ESU x 10^10)
                -0.0000
    Dipole Moment (Debye)
         X       2.4315      Y      -0.5319      Z       2.1879
       Tot       3.3139
    Quadrupole Moments (Debye-Ang)
        XX    -162.3260     XY       3.1425     YY    -177.6974
        XZ      -3.2199     YZ      -1.4107     ZZ    -166.2209

 Total job time:  274.20s(wall), 8531.52s(cpu)
        *  Thank you very much for using Q-Chem.  Have a nice day.  *
