 Q-Chem 5.4, Q-Chem, Inc., Pleasanton, CA (2021)
 Q-Chem 5.4.0 for Intel X86 EM64T Linux

User input:
--------------------------------------------------------------
$molecule
0 1
C	0.252767	-6.741404	-0.046070
C	1.538656	-6.155638	-0.272935
C	-0.814966	-5.791452	0.141739
C	1.813042	-4.803786	-0.321083
H	2.403318	-6.821518	-0.425592
C	-0.527566	-4.378638	0.091779
C	0.782769	-3.838032	-0.138909
C	-1.556632	-3.413062	0.273808
C	1.067868	-2.426473	-0.188483
C	-1.285436	-2.059348	0.226610
C	0.000000	-1.478216	0.000000
H	-2.151019	-1.394783	0.379657
C	-2.235891	-6.187987	0.390420
C	-2.965540	-3.798164	0.522125
N	-3.205600	-5.170003	0.562731
C	3.225760	-4.424987	-0.570244
C	2.489646	-2.036627	-0.438407
N	3.459662	-3.049156	-0.610438
O	-2.621768	-7.353131	0.455563
O	-3.874608	-2.986854	0.683373
O	4.124059	-5.248946	-0.729367
O	2.896516	-0.878829	-0.508697
C	-4.596910	-5.563799	0.806996
H	-4.641640	-6.664085	0.813717
H	-5.246567	-5.147101	0.013655
H	-4.936739	-5.148785	1.775159
C	4.829729	-2.587487	-0.851572
H	5.462387	-3.483329	-0.964204
H	5.173914	-1.964972	-0.003956
H	4.863360	-1.962932	-1.764390
H	0.069584	-7.822318	-0.014094
C	0.000000	0.000000	0.000000
S	0.137535	0.781156	1.580530
C	0.421895	2.393994	0.904911
C	0.173134	0.982857	-0.985400
C	0.402294	2.283058	-0.493528
H	0.132237	0.750786	-2.059934
H	0.555196	3.150621	-1.152593
H	0.574741	3.261310	1.556025
$end

$rem
JOBTYPE		SP
EXCHANGE	HF
CORRELATION	pRIMP2
BASIS		cc-pvtz
METHOD		rimp2
AUX_BASIS	rimp2-cc-pvtz
SOLVENT_METHOD	PCM
PURECART	11111
SYMMETRY	false
MEM_TOTAL	110000
SCF_CONVERGENCE = 6
THRESH=10
GUI = 2
$end

$solvent
dielectric 4.90
$end
--------------------------------------------------------------

             Standard Nuclear Orientation (Angstroms)
    I     Atom           X                Y                Z
 ----------------------------------------------------------------
    1      C       0.2527670000    -6.7414040000    -0.0460700000
    2      C       1.5386560000    -6.1556380000    -0.2729350000
    3      C      -0.8149660000    -5.7914520000     0.1417390000
    4      C       1.8130420000    -4.8037860000    -0.3210830000
    5      H       2.4033180000    -6.8215180000    -0.4255920000
    6      C      -0.5275660000    -4.3786380000     0.0917790000
    7      C       0.7827690000    -3.8380320000    -0.1389090000
    8      C      -1.5566320000    -3.4130620000     0.2738080000
    9      C       1.0678680000    -2.4264730000    -0.1884830000
   10      C      -1.2854360000    -2.0593480000     0.2266100000
   11      C       0.0000000000    -1.4782160000     0.0000000000
   12      H      -2.1510190000    -1.3947830000     0.3796570000
   13      C      -2.2358910000    -6.1879870000     0.3904200000
   14      C      -2.9655400000    -3.7981640000     0.5221250000
   15      N      -3.2056000000    -5.1700030000     0.5627310000
   16      C       3.2257600000    -4.4249870000    -0.5702440000
   17      C       2.4896460000    -2.0366270000    -0.4384070000
   18      N       3.4596620000    -3.0491560000    -0.6104380000
   19      O      -2.6217680000    -7.3531310000     0.4555630000
   20      O      -3.8746080000    -2.9868540000     0.6833730000
   21      O       4.1240590000    -5.2489460000    -0.7293670000
   22      O       2.8965160000    -0.8788290000    -0.5086970000
   23      C      -4.5969100000    -5.5637990000     0.8069960000
   24      H      -4.6416400000    -6.6640850000     0.8137170000
   25      H      -5.2465670000    -5.1471010000     0.0136550000
   26      H      -4.9367390000    -5.1487850000     1.7751590000
   27      C       4.8297290000    -2.5874870000    -0.8515720000
   28      H       5.4623870000    -3.4833290000    -0.9642040000
   29      H       5.1739140000    -1.9649720000    -0.0039560000
   30      H       4.8633600000    -1.9629320000    -1.7643900000
   31      H       0.0695840000    -7.8223180000    -0.0140940000
   32      C       0.0000000000     0.0000000000     0.0000000000
   33      S       0.1375350000     0.7811560000     1.5805300000
   34      C       0.4218950000     2.3939940000     0.9049110000
   35      C       0.1731340000     0.9828570000    -0.9854000000
   36      C       0.4022940000     2.2830580000    -0.4935280000
   37      H       0.1322370000     0.7507860000    -2.0599340000
   38      H       0.5551960000     3.1506210000    -1.1525930000
   39      H       0.5747410000     3.2613100000     1.5560250000
 ----------------------------------------------------------------

   10   -1570.6882305936      7.16e-07  Convergence criterion met
 Total energy in the final basis set =    -1570.6882305936
        RIMP2         total energy =     -1575.3123182975 a.u.

                    Orbital Energies (a.u.)
 --------------------------------------------------------------

 Alpha MOs
 -- Occupied --
-91.9924 -20.5588 -20.5569 -20.5563 -20.5557 -15.6314 -15.6313 -11.4005
-11.3972 -11.3933 -11.3907 -11.3154 -11.3082 -11.3034 -11.3016 -11.3000
-11.2995 -11.2909 -11.2875 -11.2862 -11.2815 -11.2812 -11.2785 -11.2649
-11.2647 -11.2547 -11.2498  -8.9916  -6.6724  -6.6719  -6.6713  -1.4251
 -1.4244  -1.4043  -1.4035  -1.2679  -1.2656  -1.2183  -1.1742  -1.1446
 -1.1184  -1.0635  -1.0507  -0.9935  -0.9893  -0.9825  -0.9596  -0.9490
 -0.8976  -0.8801  -0.8779  -0.8618  -0.7957  -0.7777  -0.7733  -0.7591
 -0.7377  -0.7189  -0.7054  -0.6955  -0.6808  -0.6728  -0.6667  -0.6625
 -0.6574  -0.6429  -0.6379  -0.6343  -0.6306  -0.6128  -0.5857  -0.5847
 -0.5781  -0.5731  -0.5662  -0.5644  -0.5614  -0.5554  -0.5528  -0.5488
 -0.5353  -0.5270  -0.5195  -0.5167  -0.4836  -0.4710  -0.4665  -0.4608
 -0.4601  -0.4537  -0.4286  -0.4184  -0.4092  -0.3535  -0.3531  -0.3341
 -0.3225

          Ground-State Mulliken Net Atomic Charges

     Atom                 Charge (a.u.)
  ----------------------------------------
      1 C                    -0.129305
      2 C                    -0.107275
      3 C                    -0.044101
      4 C                    -0.000701
      5 H                     0.188916
      6 C                    -0.006543
      7 C                     0.072128
      8 C                     0.008404
      9 C                     0.000747
     10 C                    -0.138805
     11 C                     0.075152
     12 H                     0.181215
     13 C                     0.361298
     14 C                     0.370383
     15 N                    -0.101878
     16 C                     0.359474
     17 C                     0.359123
     18 N                    -0.096262
     19 O                    -0.464735
     20 O                    -0.476218
     21 O                    -0.479570
     22 O                    -0.456250
     23 C                    -0.200945
     24 H                     0.141073
     25 H                     0.112436
     26 H                     0.112580
     27 C                    -0.196041
     28 H                     0.133738
     29 H                     0.113741
     30 H                     0.112837
     31 H                     0.214806
     32 C                    -0.062828
     33 S                     0.031587
     34 C                    -0.210201
     35 C                    -0.166009
     36 C                    -0.201452
     37 H                     0.187364
     38 H                     0.190741
     39 H                     0.211376
  ----------------------------------------
  Sum of atomic charges =     0.000000

                    Cartesian Multipole Moments
 -----------------------------------------------------------------
    Charge (ESU x 10^10)
                 0.0000
    Dipole Moment (Debye)
         X       0.4738      Y       0.7368      Z      -0.9812
       Tot       1.3153
    Quadrupole Moments (Debye-Ang)
        XX    -183.4088     XY       0.8005     YY    -163.8222
        XZ       3.5764     YZ       0.8507     ZZ    -158.1306

 Total job time:  291.05s(wall), 9128.07s(cpu)
        *  Thank you very much for using Q-Chem.  Have a nice day.  *
