 Q-Chem 5.4, Q-Chem, Inc., Pleasanton, CA (2021)
 Q-Chem 5.4.0 for Intel X86 EM64T Linux

User input:
--------------------------------------------------------------
$molecule
0 1
C	-0.089263	-6.741404	-0.240927
C	-0.535973	-6.155638	-1.467886
C	0.281103	-5.791452	0.777972
C	-0.631036	-4.803786	-1.729742
H	-0.836458	-6.821518	-2.292903
C	0.181995	-4.378638	0.503614
C	-0.272725	-3.838032	-0.746756
C	0.539954	-3.413062	1.485437
C	-0.371053	-2.426473	-1.018915
C	0.446381	-2.059348	1.226557
C	0.000000	-1.478216	0.000000
H	0.747410	-1.394783	2.052413
C	0.772747	-6.187987	2.134128
C	1.029154	-3.798164	2.829820
N	1.110828	-5.170003	3.059182
C	-1.121728	-4.424987	-3.077731
C	-0.864069	-2.036627	-2.375694
N	-1.201928	-3.049156	-3.301101
O	0.903908	-7.353131	2.502830
O	1.345809	-2.986854	3.697078
O	-1.434422	-5.248946	-3.934752
O	-1.003943	-0.878829	-2.764177
C	1.592981	-5.563799	4.386939
H	1.607367	-6.664085	4.429822
H	0.924504	-5.147101	5.164489
H	2.605446	-5.148785	4.553486
C	-1.677308	-2.587487	-4.608481
H	-1.898089	-3.483329	-5.211969
H	-0.902337	-1.964972	-5.094624
H	-2.582098	-1.962932	-4.483092
H	-0.025963	-7.822318	-0.066080
C	0.000000	0.000000	0.000000
S	0.205093	0.766196	1.580530
C	0.628939	2.348114	0.904911
C	0.258137	0.964028	-0.985400
C	0.599745	2.239309	-0.493528
H	0.197169	0.736404	-2.059934
H	0.827678	3.090243	-1.152593
H	0.856796	3.198808	1.556025
$end

$rem
JOBTYPE		SP
EXCHANGE	HF
CORRELATION	pRIMP2
BASIS		cc-pvtz
METHOD		rimp2
AUX_BASIS	rimp2-cc-pvtz
SOLVENT_METHOD	PCM
PURECART	11111
SYMMETRY	false
MEM_TOTAL	110000
SCF_CONVERGENCE = 6
THRESH=10
GUI = 2
$end

$solvent
dielectric 4.90
$end
--------------------------------------------------------------

             Standard Nuclear Orientation (Angstroms)
    I     Atom           X                Y                Z
 ----------------------------------------------------------------
    1      C      -0.0892630000    -6.7414040000    -0.2409270000
    2      C      -0.5359730000    -6.1556380000    -1.4678860000
    3      C       0.2811030000    -5.7914520000     0.7779720000
    4      C      -0.6310360000    -4.8037860000    -1.7297420000
    5      H      -0.8364580000    -6.8215180000    -2.2929030000
    6      C       0.1819950000    -4.3786380000     0.5036140000
    7      C      -0.2727250000    -3.8380320000    -0.7467560000
    8      C       0.5399540000    -3.4130620000     1.4854370000
    9      C      -0.3710530000    -2.4264730000    -1.0189150000
   10      C       0.4463810000    -2.0593480000     1.2265570000
   11      C       0.0000000000    -1.4782160000     0.0000000000
   12      H       0.7474100000    -1.3947830000     2.0524130000
   13      C       0.7727470000    -6.1879870000     2.1341280000
   14      C       1.0291540000    -3.7981640000     2.8298200000
   15      N       1.1108280000    -5.1700030000     3.0591820000
   16      C      -1.1217280000    -4.4249870000    -3.0777310000
   17      C      -0.8640690000    -2.0366270000    -2.3756940000
   18      N      -1.2019280000    -3.0491560000    -3.3011010000
   19      O       0.9039080000    -7.3531310000     2.5028300000
   20      O       1.3458090000    -2.9868540000     3.6970780000
   21      O      -1.4344220000    -5.2489460000    -3.9347520000
   22      O      -1.0039430000    -0.8788290000    -2.7641770000
   23      C       1.5929810000    -5.5637990000     4.3869390000
   24      H       1.6073670000    -6.6640850000     4.4298220000
   25      H       0.9245040000    -5.1471010000     5.1644890000
   26      H       2.6054460000    -5.1487850000     4.5534860000
   27      C      -1.6773080000    -2.5874870000    -4.6084810000
   28      H      -1.8980890000    -3.4833290000    -5.2119690000
   29      H      -0.9023370000    -1.9649720000    -5.0946240000
   30      H      -2.5820980000    -1.9629320000    -4.4830920000
   31      H      -0.0259630000    -7.8223180000    -0.0660800000
   32      C       0.0000000000     0.0000000000     0.0000000000
   33      S       0.2050930000     0.7661960000     1.5805300000
   34      C       0.6289390000     2.3481140000     0.9049110000
   35      C       0.2581370000     0.9640280000    -0.9854000000
   36      C       0.5997450000     2.2393090000    -0.4935280000
   37      H       0.1971690000     0.7364040000    -2.0599340000
   38      H       0.8276780000     3.0902430000    -1.1525930000
   39      H       0.8567960000     3.1988080000     1.5560250000
 ----------------------------------------------------------------

   10   -1570.6848463290      7.69e-07  Convergence criterion met
 Total energy in the final basis set =    -1570.6848463290
        RIMP2         total energy =     -1575.3128306658 a.u.

                    Orbital Energies (a.u.)
 --------------------------------------------------------------

 Alpha MOs
 -- Occupied --
-91.9933 -20.5585 -20.5564 -20.5553 -20.5536 -15.6311 -15.6302 -11.3998
-11.3960 -11.3913 -11.3906 -11.3192 -11.3020 -11.3001 -11.2987 -11.2954
-11.2946 -11.2917 -11.2908 -11.2869 -11.2835 -11.2791 -11.2768 -11.2646
-11.2644 -11.2584 -11.2511  -8.9932  -6.6740  -6.6735  -6.6729  -1.4248
 -1.4241  -1.4041  -1.4030  -1.2672  -1.2649  -1.2169  -1.1785  -1.1439
 -1.1162  -1.0637  -1.0492  -0.9924  -0.9907  -0.9877  -0.9586  -0.9473
 -0.8970  -0.8788  -0.8784  -0.8609  -0.7967  -0.7797  -0.7727  -0.7623
 -0.7359  -0.7194  -0.7041  -0.6946  -0.6815  -0.6738  -0.6662  -0.6620
 -0.6560  -0.6416  -0.6367  -0.6331  -0.6282  -0.6128  -0.5899  -0.5839
 -0.5798  -0.5726  -0.5662  -0.5630  -0.5622  -0.5559  -0.5530  -0.5475
 -0.5383  -0.5259  -0.5237  -0.5140  -0.4826  -0.4687  -0.4665  -0.4622
 -0.4594  -0.4523  -0.4286  -0.4186  -0.4095  -0.3755  -0.3552  -0.3364
 -0.3011

          Ground-State Mulliken Net Atomic Charges

     Atom                 Charge (a.u.)
  ----------------------------------------
      1 C                    -0.142970
      2 C                    -0.110029
      3 C                    -0.031158
      4 C                    -0.005352
      5 H                     0.188263
      6 C                     0.001675
      7 C                     0.072933
      8 C                     0.043410
      9 C                    -0.067716
     10 C                    -0.171415
     11 C                     0.057971
     12 H                     0.172465
     13 C                     0.358386
     14 C                     0.363187
     15 N                    -0.101678
     16 C                     0.359233
     17 C                     0.371437
     18 N                    -0.094080
     19 O                    -0.464367
     20 O                    -0.476596
     21 O                    -0.483007
     22 O                    -0.477756
     23 C                    -0.201184
     24 H                     0.141046
     25 H                     0.112578
     26 H                     0.112415
     27 C                    -0.197414
     28 H                     0.134150
     29 H                     0.112096
     30 H                     0.112954
     31 H                     0.212883
     32 C                    -0.017165
     33 S                     0.008512
     34 C                    -0.169532
     35 C                    -0.102352
     36 C                    -0.243490
     37 H                     0.212349
     38 H                     0.191720
     39 H                     0.217603
  ----------------------------------------
  Sum of atomic charges =     0.000000

                    Cartesian Multipole Moments
 -----------------------------------------------------------------
    Charge (ESU x 10^10)
                -0.0000
    Dipole Moment (Debye)
         X       0.7652      Y       2.0697      Z      -0.7393
       Tot       2.3272
    Quadrupole Moments (Debye-Ang)
        XX    -165.6556     XY       2.8447     YY    -168.1914
        XZ      -6.5314     YZ       0.6829     ZZ    -175.7934

 Total job time:  261.53s(wall), 7634.28s(cpu)
        *  Thank you very much for using Q-Chem.  Have a nice day.  *
