 Q-Chem 5.4, Q-Chem, Inc., Pleasanton, CA (2021)
 Q-Chem 5.4.0 for Intel X86 EM64T Linux

User input:
--------------------------------------------------------------
$molecule
0 1
C	0.127184	-6.741404	-0.223244
C	0.779949	-6.155638	-1.354118
C	-0.415271	-5.791452	0.715408
C	0.919437	-4.803786	-1.595259
H	1.218801	-6.821518	-2.114613
C	-0.268806	-4.378638	0.463133
C	0.396744	-3.838032	-0.688925
C	-0.790835	-3.413062	1.368449
C	0.542026	-2.426473	-0.939189
C	-0.652669	-2.059348	1.130363
C	-0.000000	-1.478216	-0.000000
H	-1.091814	-1.394783	1.891815
C	-1.138124	-6.187987	1.963749
C	-1.506241	-3.798164	2.607351
N	-1.629443	-5.170003	2.817348
C	1.636646	-4.424987	-2.837621
C	1.264474	-2.036627	-2.188982
N	1.756205	-3.049156	-3.042637
O	-1.336258	-7.353131	2.301222
O	-1.967056	-2.986854	3.407386
O	2.092167	-5.248946	-3.628041
O	1.472160	-0.878829	-2.545844
C	-2.336642	-5.563799	4.040164
H	-2.360245	-6.664085	4.078749
H	-3.361968	-5.147101	4.027880
H	-1.813424	-5.148785	4.922811
C	2.452149	-2.587487	-4.247167
H	2.772531	-3.483329	-4.804209
H	3.322697	-1.964972	-3.965991
H	1.774507	-1.962932	-4.859678
H	0.033931	-7.822318	-0.062364
C	0.000000	0.000000	0.000000
S	0.686805	0.396760	1.580530
C	2.105095	1.215640	0.904911
C	0.864201	0.499140	-0.985400
C	2.007514	1.159347	-0.493528
H	0.660136	0.381296	-2.059934
H	2.770388	1.599875	-1.152593
H	2.867745	1.656053	1.556025
$end

$rem
JOBTYPE		SP
EXCHANGE	HF
CORRELATION	pRIMP2
BASIS		cc-pvtz
METHOD		rimp2
AUX_BASIS	rimp2-cc-pvtz
SOLVENT_METHOD	PCM
PURECART	11111
SYMMETRY	false
MEM_TOTAL	110000
SCF_CONVERGENCE = 6
THRESH=10
GUI = 2
$end

$solvent
dielectric 4.90
$end
--------------------------------------------------------------

             Standard Nuclear Orientation (Angstroms)
    I     Atom           X                Y                Z
 ----------------------------------------------------------------
    1      C       0.1271840000    -6.7414040000    -0.2232440000
    2      C       0.7799490000    -6.1556380000    -1.3541180000
    3      C      -0.4152710000    -5.7914520000     0.7154080000
    4      C       0.9194370000    -4.8037860000    -1.5952590000
    5      H       1.2188010000    -6.8215180000    -2.1146130000
    6      C      -0.2688060000    -4.3786380000     0.4631330000
    7      C       0.3967440000    -3.8380320000    -0.6889250000
    8      C      -0.7908350000    -3.4130620000     1.3684490000
    9      C       0.5420260000    -2.4264730000    -0.9391890000
   10      C      -0.6526690000    -2.0593480000     1.1303630000
   11      C       0.0000000000    -1.4782160000     0.0000000000
   12      H      -1.0918140000    -1.3947830000     1.8918150000
   13      C      -1.1381240000    -6.1879870000     1.9637490000
   14      C      -1.5062410000    -3.7981640000     2.6073510000
   15      N      -1.6294430000    -5.1700030000     2.8173480000
   16      C       1.6366460000    -4.4249870000    -2.8376210000
   17      C       1.2644740000    -2.0366270000    -2.1889820000
   18      N       1.7562050000    -3.0491560000    -3.0426370000
   19      O      -1.3362580000    -7.3531310000     2.3012220000
   20      O      -1.9670560000    -2.9868540000     3.4073860000
   21      O       2.0921670000    -5.2489460000    -3.6280410000
   22      O       1.4721600000    -0.8788290000    -2.5458440000
   23      C      -2.3366420000    -5.5637990000     4.0401640000
   24      H      -2.3602450000    -6.6640850000     4.0787490000
   25      H      -3.3619680000    -5.1471010000     4.0278800000
   26      H      -1.8134240000    -5.1487850000     4.9228110000
   27      C       2.4521490000    -2.5874870000    -4.2471670000
   28      H       2.7725310000    -3.4833290000    -4.8042090000
   29      H       3.3226970000    -1.9649720000    -3.9659910000
   30      H       1.7745070000    -1.9629320000    -4.8596780000
   31      H       0.0339310000    -7.8223180000    -0.0623640000
   32      C       0.0000000000     0.0000000000     0.0000000000
   33      S       0.6868050000     0.3967600000     1.5805300000
   34      C       2.1050950000     1.2156400000     0.9049110000
   35      C       0.8642010000     0.4991400000    -0.9854000000
   36      C       2.0075140000     1.1593470000    -0.4935280000
   37      H       0.6601360000     0.3812960000    -2.0599340000
   38      H       2.7703880000     1.5998750000    -1.1525930000
   39      H       2.8677450000     1.6560530000     1.5560250000
 ----------------------------------------------------------------

   11   -1570.5875445593      5.77e-07  Convergence criterion met
 Total energy in the final basis set =    -1570.5875445593
        RIMP2         total energy =     -1575.2264597056 a.u.

                    Orbital Energies (a.u.)
 --------------------------------------------------------------

 Alpha MOs
 -- Occupied --
-91.9880 -20.5572 -20.5544 -20.5527 -20.5522 -15.6316 -15.6294 -11.4006
-11.3980 -11.3898 -11.3885 -11.3204 -11.3124 -11.2992 -11.2965 -11.2880
-11.2867 -11.2848 -11.2833 -11.2777 -11.2752 -11.2721 -11.2688 -11.2657
-11.2634 -11.2573 -11.2490  -8.9887  -6.6695  -6.6688  -6.6682  -1.4330
 -1.4232  -1.4063  -1.4025  -1.2688  -1.2646  -1.2156  -1.1863  -1.1401
 -1.1121  -1.0608  -1.0457  -0.9985  -0.9910  -0.9895  -0.9578  -0.9460
 -0.8963  -0.8774  -0.8720  -0.8605  -0.7949  -0.7779  -0.7758  -0.7677
 -0.7392  -0.7323  -0.7013  -0.6912  -0.6789  -0.6719  -0.6671  -0.6618
 -0.6540  -0.6402  -0.6376  -0.6337  -0.6247  -0.6117  -0.5904  -0.5886
 -0.5796  -0.5744  -0.5645  -0.5625  -0.5572  -0.5553  -0.5537  -0.5459
 -0.5334  -0.5209  -0.5185  -0.5094  -0.4785  -0.4688  -0.4649  -0.4596
 -0.4538  -0.4367  -0.4289  -0.4183  -0.4068  -0.3773  -0.3411  -0.3332
 -0.2974

          Ground-State Mulliken Net Atomic Charges

     Atom                 Charge (a.u.)
  ----------------------------------------
      1 C                    -0.166267
      2 C                    -0.110093
      3 C                    -0.022586
      4 C                    -0.007364
      5 H                     0.186099
      6 C                    -0.018381
      7 C                     0.087981
      8 C                     0.006710
      9 C                    -0.123247
     10 C                    -0.138511
     11 C                     0.097508
     12 H                     0.167597
     13 C                     0.359876
     14 C                     0.364877
     15 N                    -0.101259
     16 C                     0.356936
     17 C                     0.403395
     18 N                    -0.087910
     19 O                    -0.464770
     20 O                    -0.477591
     21 O                    -0.484763
     22 O                    -0.471557
     23 C                    -0.201702
     24 H                     0.140765
     25 H                     0.112160
     26 H                     0.111995
     27 C                    -0.200638
     28 H                     0.135481
     29 H                     0.112295
     30 H                     0.112962
     31 H                     0.209775
     32 C                    -0.170362
     33 S                     0.021844
     34 C                    -0.112943
     35 C                    -0.018678
     36 C                    -0.249529
     37 H                     0.228321
     38 H                     0.191504
     39 H                     0.220071
  ----------------------------------------
  Sum of atomic charges =     0.000000

                    Cartesian Multipole Moments
 -----------------------------------------------------------------
    Charge (ESU x 10^10)
                 0.0000
    Dipole Moment (Debye)
         X       3.3505      Y       2.7740      Z      -1.2797
       Tot       4.5341
    Quadrupole Moments (Debye-Ang)
        XX    -158.9152     XY       6.3976     YY    -184.4032
        XZ       9.9100     YZ      -0.1184     ZZ    -172.4334

 Total job time:  286.01s(wall), 8155.27s(cpu)
        *  Thank you very much for using Q-Chem.  Have a nice day.  *
