 Q-Chem 5.4, Q-Chem, Inc., Pleasanton, CA (2021)
 Q-Chem 5.4.0 for Intel X86 EM64T Linux

User input:
--------------------------------------------------------------
$molecule
0 1
C	0.253280	-6.741404	0.043160
C	1.539213	-6.155638	0.269777
C	-0.814295	-5.791452	-0.145543
C	1.813519	-4.803786	0.318377
H	2.403941	-6.821518	0.422058
C	-0.527140	-4.378638	-0.094194
C	0.783072	-3.838032	0.137191
C	-1.556403	-3.413062	-0.275104
C	1.067932	-2.426473	0.188116
C	-1.285420	-2.059348	-0.226701
C	0.000000	-1.478216	0.000000
H	-2.151147	-1.394783	-0.378931
C	-2.234582	-6.187987	-0.397845
C	-2.965273	-3.798164	-0.523637
N	-3.204744	-5.170003	-0.567586
C	3.226257	-4.424987	0.567421
C	2.489446	-2.036627	0.439541
N	3.459801	-3.049156	0.609650
O	-2.619468	-7.353131	-0.468608
O	-3.874668	-2.986854	-0.683034
O	4.124806	-5.248946	0.725131
O	2.895819	-0.878829	0.512648
C	-4.595691	-5.563799	-0.813908
H	-4.640022	-6.664085	-0.822891
H	-4.934830	-5.147101	-1.781600
H	-5.246157	-5.148785	-0.020360
C	4.829716	-2.587487	0.851649
H	5.462742	-3.483329	0.962191
H	4.863242	-1.964972	1.765865
H	5.173521	-1.962932	0.005383
H	0.070208	-7.822318	0.010555
C	0.000000	0.000000	0.000000
S	0.396411	0.687007	1.580530
C	1.215245	2.105322	0.904911
C	0.498850	0.864369	-0.985400
C	1.158885	2.007781	-0.493528
H	0.381046	0.660280	-2.059934
H	1.599289	2.770727	-1.152593
H	1.655514	2.868056	1.556025
$end

$rem
JOBTYPE		SP
EXCHANGE	HF
CORRELATION	pRIMP2
BASIS		cc-pvtz
METHOD		rimp2
AUX_BASIS	rimp2-cc-pvtz
SOLVENT_METHOD	PCM
PURECART	11111
SYMMETRY	false
MEM_TOTAL	110000
SCF_CONVERGENCE = 6
THRESH=10
GUI = 2
$end

$solvent
dielectric 4.90
$end
--------------------------------------------------------------

             Standard Nuclear Orientation (Angstroms)
    I     Atom           X                Y                Z
 ----------------------------------------------------------------
    1      C       0.2532800000    -6.7414040000     0.0431600000
    2      C       1.5392130000    -6.1556380000     0.2697770000
    3      C      -0.8142950000    -5.7914520000    -0.1455430000
    4      C       1.8135190000    -4.8037860000     0.3183770000
    5      H       2.4039410000    -6.8215180000     0.4220580000
    6      C      -0.5271400000    -4.3786380000    -0.0941940000
    7      C       0.7830720000    -3.8380320000     0.1371910000
    8      C      -1.5564030000    -3.4130620000    -0.2751040000
    9      C       1.0679320000    -2.4264730000     0.1881160000
   10      C      -1.2854200000    -2.0593480000    -0.2267010000
   11      C       0.0000000000    -1.4782160000     0.0000000000
   12      H      -2.1511470000    -1.3947830000    -0.3789310000
   13      C      -2.2345820000    -6.1879870000    -0.3978450000
   14      C      -2.9652730000    -3.7981640000    -0.5236370000
   15      N      -3.2047440000    -5.1700030000    -0.5675860000
   16      C       3.2262570000    -4.4249870000     0.5674210000
   17      C       2.4894460000    -2.0366270000     0.4395410000
   18      N       3.4598010000    -3.0491560000     0.6096500000
   19      O      -2.6194680000    -7.3531310000    -0.4686080000
   20      O      -3.8746680000    -2.9868540000    -0.6830340000
   21      O       4.1248060000    -5.2489460000     0.7251310000
   22      O       2.8958190000    -0.8788290000     0.5126480000
   23      C      -4.5956910000    -5.5637990000    -0.8139080000
   24      H      -4.6400220000    -6.6640850000    -0.8228910000
   25      H      -4.9348300000    -5.1471010000    -1.7816000000
   26      H      -5.2461570000    -5.1487850000    -0.0203600000
   27      C       4.8297160000    -2.5874870000     0.8516490000
   28      H       5.4627420000    -3.4833290000     0.9621910000
   29      H       4.8632420000    -1.9649720000     1.7658650000
   30      H       5.1735210000    -1.9629320000     0.0053830000
   31      H       0.0702080000    -7.8223180000     0.0105550000
   32      C       0.0000000000     0.0000000000     0.0000000000
   33      S       0.3964110000     0.6870070000     1.5805300000
   34      C       1.2152450000     2.1053220000     0.9049110000
   35      C       0.4988500000     0.8643690000    -0.9854000000
   36      C       1.1588850000     2.0077810000    -0.4935280000
   37      H       0.3810460000     0.6602800000    -2.0599340000
   38      H       1.5992890000     2.7707270000    -1.1525930000
   39      H       1.6555140000     2.8680560000     1.5560250000
 ----------------------------------------------------------------

   10   -1570.6717068786      8.18e-07  Convergence criterion met
 Total energy in the final basis set =    -1570.6717068786
        RIMP2         total energy =     -1575.3016427565 a.u.

                    Orbital Energies (a.u.)
 --------------------------------------------------------------

 Alpha MOs
 -- Occupied --
-91.9873 -20.5583 -20.5556 -20.5546 -20.5545 -15.6308 -15.6298 -11.3999
-11.3943 -11.3921 -11.3898 -11.3135 -11.3050 -11.3025 -11.3003 -11.2981
-11.2980 -11.2862 -11.2857 -11.2844 -11.2815 -11.2802 -11.2748 -11.2643
-11.2643 -11.2604 -11.2484  -8.9867  -6.6675  -6.6670  -6.6665  -1.4245
 -1.4229  -1.4038  -1.4020  -1.2670  -1.2644  -1.2169  -1.1742  -1.1430
 -1.1168  -1.0617  -1.0491  -0.9926  -0.9881  -0.9823  -0.9588  -0.9482
 -0.8961  -0.8791  -0.8751  -0.8607  -0.7932  -0.7763  -0.7727  -0.7592
 -0.7356  -0.7184  -0.7049  -0.6946  -0.6795  -0.6716  -0.6658  -0.6617
 -0.6565  -0.6421  -0.6368  -0.6339  -0.6292  -0.6118  -0.5850  -0.5837
 -0.5766  -0.5729  -0.5661  -0.5637  -0.5609  -0.5548  -0.5524  -0.5482
 -0.5364  -0.5261  -0.5201  -0.5061  -0.4816  -0.4699  -0.4642  -0.4593
 -0.4559  -0.4498  -0.4274  -0.4178  -0.4085  -0.3549  -0.3457  -0.3320
 -0.3240

          Ground-State Mulliken Net Atomic Charges

     Atom                 Charge (a.u.)
  ----------------------------------------
      1 C                    -0.131690
      2 C                    -0.108351
      3 C                    -0.043427
      4 C                    -0.000662
      5 H                     0.188459
      6 C                    -0.006257
      7 C                     0.066414
      8 C                     0.015991
      9 C                     0.006571
     10 C                    -0.150274
     11 C                     0.067790
     12 H                     0.179419
     13 C                     0.360941
     14 C                     0.366240
     15 N                    -0.101602
     16 C                     0.357458
     17 C                     0.363521
     18 N                    -0.093936
     19 O                    -0.465125
     20 O                    -0.476235
     21 O                    -0.481318
     22 O                    -0.454154
     23 C                    -0.201146
     24 H                     0.140966
     25 H                     0.112159
     26 H                     0.112460
     27 C                    -0.196838
     28 H                     0.133594
     29 H                     0.112784
     30 H                     0.112463
     31 H                     0.214242
     32 C                    -0.062132
     33 S                     0.031011
     34 C                    -0.185842
     35 C                    -0.175503
     36 C                    -0.197568
     37 H                     0.188138
     38 H                     0.190384
     39 H                     0.211058
  ----------------------------------------
  Sum of atomic charges =     0.000000

                    Cartesian Multipole Moments
 -----------------------------------------------------------------
    Charge (ESU x 10^10)
                 0.0000
    Dipole Moment (Debye)
         X       1.4505      Y       1.0787      Z      -0.9096
       Tot       2.0236
    Quadrupole Moments (Debye-Ang)
        XX    -181.2027     XY       4.3846     YY    -168.3436
        XZ      -2.8631     YZ       0.4456     ZZ    -158.0603

 Total job time:  279.13s(wall), 9191.38s(cpu)
        *  Thank you very much for using Q-Chem.  Have a nice day.  *
