 Q-Chem 5.4, Q-Chem, Inc., Pleasanton, CA (2021)
 Q-Chem 5.4.0 for Intel X86 EM64T Linux

User input:
--------------------------------------------------------------
$molecule
0 1
C	0.195868	-6.741404	-0.166281
C	1.196048	-6.155638	-1.005696
C	-0.634911	-5.791452	0.530233
C	1.409599	-4.803786	-1.184587
H	1.868538	-6.821518	-1.570232
C	-0.410996	-4.378638	0.343266
C	0.608444	-3.838032	-0.511683
C	-1.211179	-3.413062	1.015440
C	0.830559	-2.426473	-0.697165
C	-0.999915	-2.059348	0.838968
C	0.000000	-1.478216	0.000000
H	-1.673009	-1.394783	1.404302
C	-1.741129	-6.187987	1.456059
C	-2.307170	-3.798164	1.934944
N	-2.494766	-5.170003	2.090139
C	2.508468	-4.424987	-2.106725
C	1.936893	-2.036627	-1.624494
N	2.690936	-3.049156	-2.258486
O	-2.042736	-7.353131	1.705414
O	-3.013823	-2.986854	2.529122
O	3.206857	-5.248946	-2.693680
O	2.254108	-0.878829	-1.888802
C	-3.577543	-5.563799	2.997334
H	-3.612920	-6.664085	3.025519
H	-4.536833	-5.147101	2.635109
H	-3.387762	-5.148785	4.005702
C	3.756883	-2.587487	-3.152347
H	4.248464	-3.483329	-3.566218
H	4.478763	-1.964972	-2.590383
H	3.329599	-1.962932	-3.959687
H	0.053215	-7.822318	-0.046998
C	0.000000	0.000000	0.000000
S	0.509686	0.607733	1.580530
C	1.562368	1.862312	0.904911
C	0.641367	0.764613	-0.985400
C	1.489926	1.776040	-0.493528
H	0.489914	0.584081	-2.059934
H	2.056124	2.450920	-1.152593
H	2.128395	2.537007	1.556025
$end

$rem
JOBTYPE		SP
EXCHANGE	HF
CORRELATION	pRIMP2
BASIS		cc-pvtz
METHOD		rimp2
AUX_BASIS	rimp2-cc-pvtz
SOLVENT_METHOD	PCM
PURECART	11111
SYMMETRY	false
MEM_TOTAL	110000
SCF_CONVERGENCE = 6
THRESH=10
GUI = 2
$end

$solvent
dielectric 4.90
$end
--------------------------------------------------------------

             Standard Nuclear Orientation (Angstroms)
    I     Atom           X                Y                Z
 ----------------------------------------------------------------
    1      C       0.1958680000    -6.7414040000    -0.1662810000
    2      C       1.1960480000    -6.1556380000    -1.0056960000
    3      C      -0.6349110000    -5.7914520000     0.5302330000
    4      C       1.4095990000    -4.8037860000    -1.1845870000
    5      H       1.8685380000    -6.8215180000    -1.5702320000
    6      C      -0.4109960000    -4.3786380000     0.3432660000
    7      C       0.6084440000    -3.8380320000    -0.5116830000
    8      C      -1.2111790000    -3.4130620000     1.0154400000
    9      C       0.8305590000    -2.4264730000    -0.6971650000
   10      C      -0.9999150000    -2.0593480000     0.8389680000
   11      C       0.0000000000    -1.4782160000     0.0000000000
   12      H      -1.6730090000    -1.3947830000     1.4043020000
   13      C      -1.7411290000    -6.1879870000     1.4560590000
   14      C      -2.3071700000    -3.7981640000     1.9349440000
   15      N      -2.4947660000    -5.1700030000     2.0901390000
   16      C       2.5084680000    -4.4249870000    -2.1067250000
   17      C       1.9368930000    -2.0366270000    -1.6244940000
   18      N       2.6909360000    -3.0491560000    -2.2584860000
   19      O      -2.0427360000    -7.3531310000     1.7054140000
   20      O      -3.0138230000    -2.9868540000     2.5291220000
   21      O       3.2068570000    -5.2489460000    -2.6936800000
   22      O       2.2541080000    -0.8788290000    -1.8888020000
   23      C      -3.5775430000    -5.5637990000     2.9973340000
   24      H      -3.6129200000    -6.6640850000     3.0255190000
   25      H      -4.5368330000    -5.1471010000     2.6351090000
   26      H      -3.3877620000    -5.1487850000     4.0057020000
   27      C       3.7568830000    -2.5874870000    -3.1523470000
   28      H       4.2484640000    -3.4833290000    -3.5662180000
   29      H       4.4787630000    -1.9649720000    -2.5903830000
   30      H       3.3295990000    -1.9629320000    -3.9596870000
   31      H       0.0532150000    -7.8223180000    -0.0469980000
   32      C       0.0000000000     0.0000000000     0.0000000000
   33      S       0.5096860000     0.6077330000     1.5805300000
   34      C       1.5623680000     1.8623120000     0.9049110000
   35      C       0.6413670000     0.7646130000    -0.9854000000
   36      C       1.4899260000     1.7760400000    -0.4935280000
   37      H       0.4899140000     0.5840810000    -2.0599340000
   38      H       2.0561240000     2.4509200000    -1.1525930000
   39      H       2.1283950000     2.5370070000     1.5560250000
 ----------------------------------------------------------------

   11   -1570.6574726878      4.28e-07  Convergence criterion met
 Total energy in the final basis set =    -1570.6574726878
        RIMP2         total energy =     -1575.2885989418 a.u.

                    Orbital Energies (a.u.)
 --------------------------------------------------------------

 Alpha MOs
 -- Occupied --
-91.9908 -20.5578 -20.5551 -20.5535 -20.5518 -15.6302 -15.6297 -11.3991
-11.3952 -11.3910 -11.3892 -11.3152 -11.3011 -11.2986 -11.2974 -11.2959
-11.2938 -11.2934 -11.2843 -11.2825 -11.2782 -11.2731 -11.2698 -11.2675
-11.2646 -11.2639 -11.2494  -8.9905  -6.6713  -6.6707  -6.6701  -1.4239
 -1.4235  -1.4032  -1.4026  -1.2665  -1.2644  -1.2152  -1.1781  -1.1422
 -1.1146  -1.0609  -1.0473  -0.9919  -0.9892  -0.9872  -0.9581  -0.9472
 -0.8951  -0.8780  -0.8735  -0.8598  -0.7934  -0.7756  -0.7721  -0.7621
 -0.7352  -0.7197  -0.7037  -0.6927  -0.6805  -0.6714  -0.6654  -0.6614
 -0.6550  -0.6410  -0.6358  -0.6335  -0.6268  -0.6112  -0.5865  -0.5844
 -0.5781  -0.5752  -0.5646  -0.5618  -0.5583  -0.5546  -0.5510  -0.5477
 -0.5358  -0.5241  -0.5202  -0.5124  -0.4819  -0.4705  -0.4639  -0.4610
 -0.4560  -0.4513  -0.4271  -0.4175  -0.4074  -0.3685  -0.3438  -0.3347
 -0.3060

          Ground-State Mulliken Net Atomic Charges

     Atom                 Charge (a.u.)
  ----------------------------------------
      1 C                    -0.146146
      2 C                    -0.107992
      3 C                    -0.034547
      4 C                    -0.006848
      5 H                     0.187539
      6 C                    -0.014165
      7 C                     0.080733
      8 C                     0.014995
      9 C                    -0.053997
     10 C                    -0.168443
     11 C                     0.106621
     12 H                     0.179396
     13 C                     0.360794
     14 C                     0.364176
     15 N                    -0.101185
     16 C                     0.359128
     17 C                     0.388191
     18 N                    -0.092122
     19 O                    -0.464964
     20 O                    -0.476489
     21 O                    -0.483014
     22 O                    -0.476728
     23 C                    -0.201363
     24 H                     0.140834
     25 H                     0.112171
     26 H                     0.112291
     27 C                    -0.197348
     28 H                     0.134262
     29 H                     0.112757
     30 H                     0.111403
     31 H                     0.212393
     32 C                    -0.133462
     33 S                     0.035143
     34 C                    -0.173270
     35 C                    -0.078833
     36 C                    -0.198203
     37 H                     0.191877
     38 H                     0.188252
     39 H                     0.216163
  ----------------------------------------
  Sum of atomic charges =     0.000000

                    Cartesian Multipole Moments
 -----------------------------------------------------------------
    Charge (ESU x 10^10)
                 0.0000
    Dipole Moment (Debye)
         X       2.0334      Y       2.1395      Z      -1.2113
       Tot       3.1905
    Quadrupole Moments (Debye-Ang)
        XX    -171.1706     XY       6.3380     YY    -173.9525
        XZ      10.8974     YZ       0.6499     ZZ    -165.9431

 Total job time:  283.69s(wall), 8364.08s(cpu)
        *  Thank you very much for using Q-Chem.  Have a nice day.  *
