 Q-Chem 5.4, Q-Chem, Inc., Pleasanton, CA (2021)
 Q-Chem 5.4.0 for Intel X86 EM64T Linux

User input:
--------------------------------------------------------------
$molecule
0 1
C	0.129743	-6.741404	0.221766
C	0.782726	-6.155638	1.352515
C	-0.411926	-5.791452	-0.717339
C	0.921816	-4.803786	1.593885
H	1.221908	-6.821518	2.112819
C	-0.266682	-4.378638	-0.464360
C	0.398255	-3.838032	0.688053
C	-0.789694	-3.413062	-1.369108
C	0.542349	-2.426473	0.939002
C	-0.652589	-2.059348	-1.130409
C	0.000000	-1.478216	0.000000
H	-1.092453	-1.394783	-1.891446
C	-1.131595	-6.187987	-1.967519
C	-1.504912	-3.798164	-2.608118
N	-1.625174	-5.170003	-2.819813
C	1.639129	-4.424987	2.836188
C	1.263477	-2.036627	2.189558
N	1.756898	-3.049156	3.042237
O	-1.324787	-7.353131	-2.307845
O	-1.967354	-2.986854	-3.407213
O	2.095892	-5.248946	3.625890
O	1.468685	-0.878829	2.547850
C	-2.330564	-5.563799	-4.043674
H	-2.352178	-6.664085	-4.083407
H	-1.807263	-5.147101	-4.925490
H	-3.356568	-5.148785	-4.031877
C	2.452080	-2.587487	4.247206
H	2.774302	-3.483329	4.803187
H	1.773301	-1.964972	4.860536
H	3.321351	-1.962932	3.966607
H	0.037043	-7.822318	0.060567
C	0.000000	0.000000	0.000000
S	0.396411	0.687007	1.580530
C	1.215245	2.105322	0.904911
C	0.498850	0.864369	-0.985400
C	1.158885	2.007781	-0.493528
H	0.381046	0.660280	-2.059934
H	1.599289	2.770727	-1.152593
H	1.655514	2.868056	1.556025
$end

$rem
JOBTYPE		SP
EXCHANGE	HF
CORRELATION	pRIMP2
BASIS		cc-pvtz
METHOD		rimp2
AUX_BASIS	rimp2-cc-pvtz
SOLVENT_METHOD	PCM
PURECART	11111
SYMMETRY	false
MEM_TOTAL	110000
SCF_CONVERGENCE = 6
THRESH=10
GUI = 2
$end

$solvent
dielectric 4.90
$end
--------------------------------------------------------------

             Standard Nuclear Orientation (Angstroms)
    I     Atom           X                Y                Z
 ----------------------------------------------------------------
    1      C       0.1297430000    -6.7414040000     0.2217660000
    2      C       0.7827260000    -6.1556380000     1.3525150000
    3      C      -0.4119260000    -5.7914520000    -0.7173390000
    4      C       0.9218160000    -4.8037860000     1.5938850000
    5      H       1.2219080000    -6.8215180000     2.1128190000
    6      C      -0.2666820000    -4.3786380000    -0.4643600000
    7      C       0.3982550000    -3.8380320000     0.6880530000
    8      C      -0.7896940000    -3.4130620000    -1.3691080000
    9      C       0.5423490000    -2.4264730000     0.9390020000
   10      C      -0.6525890000    -2.0593480000    -1.1304090000
   11      C       0.0000000000    -1.4782160000     0.0000000000
   12      H      -1.0924530000    -1.3947830000    -1.8914460000
   13      C      -1.1315950000    -6.1879870000    -1.9675190000
   14      C      -1.5049120000    -3.7981640000    -2.6081180000
   15      N      -1.6251740000    -5.1700030000    -2.8198130000
   16      C       1.6391290000    -4.4249870000     2.8361880000
   17      C       1.2634770000    -2.0366270000     2.1895580000
   18      N       1.7568980000    -3.0491560000     3.0422370000
   19      O      -1.3247870000    -7.3531310000    -2.3078450000
   20      O      -1.9673540000    -2.9868540000    -3.4072130000
   21      O       2.0958920000    -5.2489460000     3.6258900000
   22      O       1.4686850000    -0.8788290000     2.5478500000
   23      C      -2.3305640000    -5.5637990000    -4.0436740000
   24      H      -2.3521780000    -6.6640850000    -4.0834070000
   25      H      -1.8072630000    -5.1471010000    -4.9254900000
   26      H      -3.3565680000    -5.1487850000    -4.0318770000
   27      C       2.4520800000    -2.5874870000     4.2472060000
   28      H       2.7743020000    -3.4833290000     4.8031870000
   29      H       1.7733010000    -1.9649720000     4.8605360000
   30      H       3.3213510000    -1.9629320000     3.9666070000
   31      H       0.0370430000    -7.8223180000     0.0605670000
   32      C       0.0000000000     0.0000000000     0.0000000000
   33      S       0.3964110000     0.6870070000     1.5805300000
   34      C       1.2152450000     2.1053220000     0.9049110000
   35      C       0.4988500000     0.8643690000    -0.9854000000
   36      C       1.1588850000     2.0077810000    -0.4935280000
   37      H       0.3810460000     0.6602800000    -2.0599340000
   38      H       1.5992890000     2.7707270000    -1.1525930000
   39      H       1.6555140000     2.8680560000     1.5560250000
 ----------------------------------------------------------------

   11   -1570.6089315411      5.16e-07  Convergence criterion met
 Total energy in the final basis set =    -1570.6089315411
        RIMP2         total energy =     -1575.2583693380 a.u.

                    Orbital Energies (a.u.)
 --------------------------------------------------------------

 Alpha MOs
 -- Occupied --
-91.9855 -20.5588 -20.5566 -20.5552 -20.5548 -15.6332 -15.6312 -11.4024
-11.4000 -11.3923 -11.3907 -11.3201 -11.3022 -11.3008 -11.2970 -11.2942
-11.2929 -11.2869 -11.2827 -11.2792 -11.2791 -11.2771 -11.2755 -11.2662
-11.2646 -11.2557 -11.2373  -8.9853  -6.6656  -6.6646  -6.6636  -1.4351
 -1.4250  -1.4085  -1.4043  -1.2708  -1.2665  -1.2164  -1.1717  -1.1412
 -1.1160  -1.0603  -1.0490  -0.9933  -0.9891  -0.9810  -0.9595  -0.9465
 -0.8976  -0.8802  -0.8760  -0.8631  -0.7917  -0.7785  -0.7766  -0.7573
 -0.7323  -0.7268  -0.7028  -0.6918  -0.6888  -0.6735  -0.6681  -0.6633
 -0.6574  -0.6417  -0.6400  -0.6367  -0.6277  -0.6140  -0.5850  -0.5819
 -0.5791  -0.5751  -0.5682  -0.5647  -0.5623  -0.5565  -0.5562  -0.5493
 -0.5346  -0.5243  -0.5221  -0.5170  -0.4838  -0.4702  -0.4669  -0.4633
 -0.4566  -0.4367  -0.4225  -0.4147  -0.4090  -0.3708  -0.3370  -0.3039
 -0.2954

          Ground-State Mulliken Net Atomic Charges

     Atom                 Charge (a.u.)
  ----------------------------------------
      1 C                    -0.149937
      2 C                    -0.107650
      3 C                    -0.030416
      4 C                    -0.008131
      5 H                     0.187875
      6 C                    -0.009971
      7 C                     0.085875
      8 C                     0.004943
      9 C                    -0.114171
     10 C                    -0.153735
     11 C                     0.101515
     12 H                     0.181823
     13 C                     0.360614
     14 C                     0.364420
     15 N                    -0.101474
     16 C                     0.359530
     17 C                     0.425567
     18 N                    -0.093144
     19 O                    -0.463763
     20 O                    -0.475775
     21 O                    -0.481406
     22 O                    -0.439429
     23 C                    -0.201109
     24 H                     0.141107
     25 H                     0.112233
     26 H                     0.112492
     27 C                    -0.198529
     28 H                     0.135243
     29 H                     0.113576
     30 H                     0.113423
     31 H                     0.212109
     32 C                    -0.084726
     33 S                     0.114665
     34 C                    -0.197464
     35 C                    -0.142307
     36 C                    -0.257603
     37 H                     0.190062
     38 H                     0.185728
     39 H                     0.207941
  ----------------------------------------
  Sum of atomic charges =     0.000000

                    Cartesian Multipole Moments
 -----------------------------------------------------------------
    Charge (ESU x 10^10)
                 0.0000
    Dipole Moment (Debye)
         X       1.6029      Y       0.8865      Z       0.4860
       Tot       1.8951
    Quadrupole Moments (Debye-Ang)
        XX    -165.9918     XY       4.3836     YY    -173.6920
        XZ      -6.3534     YZ       0.4907     ZZ    -170.2287

 Total job time:  275.80s(wall), 8439.35s(cpu)
        *  Thank you very much for using Q-Chem.  Have a nice day.  *
