 Q-Chem 5.4, Q-Chem, Inc., Pleasanton, CA (2021)
 Q-Chem 5.4.0 for Intel X86 EM64T Linux

User input:
--------------------------------------------------------------
$molecule
0 1
C	-0.127184	-6.741404	0.223244
C	-0.779949	-6.155638	1.354118
C	0.415271	-5.791452	-0.715408
C	-0.919437	-4.803786	1.595259
H	-1.218801	-6.821518	2.114613
C	0.268806	-4.378638	-0.463133
C	-0.396744	-3.838032	0.688925
C	0.790835	-3.413062	-1.368449
C	-0.542026	-2.426473	0.939189
C	0.652669	-2.059348	-1.130363
C	0.000000	-1.478216	0.000000
H	1.091814	-1.394783	-1.891815
C	1.138124	-6.187987	-1.963749
C	1.506241	-3.798164	-2.607351
N	1.629443	-5.170003	-2.817348
C	-1.636646	-4.424987	2.837621
C	-1.264474	-2.036627	2.188982
N	-1.756205	-3.049156	3.042637
O	1.336258	-7.353131	-2.301222
O	1.967056	-2.986854	-3.407386
O	-2.092167	-5.248946	3.628041
O	-1.472160	-0.878829	2.545844
C	2.336642	-5.563799	-4.040164
H	2.360245	-6.664085	-4.078749
H	3.361968	-5.147101	-4.027880
H	1.813424	-5.148785	-4.922811
C	-2.452149	-2.587487	4.247167
H	-2.772531	-3.483329	4.804209
H	-3.322697	-1.964972	3.965991
H	-1.774507	-1.962932	4.859678
H	-0.033931	-7.822318	0.062364
C	0.000000	0.000000	0.000000
S	0.068929	0.790170	1.580530
C	0.211639	2.421655	0.904911
C	0.086813	0.994207	-0.985400
C	0.201782	2.309433	-0.493528
H	0.066299	0.759454	-2.059934
H	0.278488	3.187020	-1.152593
H	0.288312	3.298992	1.556025
$end

$rem
JOBTYPE		SP
EXCHANGE	HF
CORRELATION	pRIMP2
BASIS		cc-pvtz
METHOD		rimp2
AUX_BASIS	rimp2-cc-pvtz
SOLVENT_METHOD	PCM
PURECART	11111
SYMMETRY	false
MEM_TOTAL	110000
SCF_CONVERGENCE = 6
THRESH=10
GUI = 2
$end

$solvent
dielectric 4.90
$end
--------------------------------------------------------------

             Standard Nuclear Orientation (Angstroms)
    I     Atom           X                Y                Z
 ----------------------------------------------------------------
    1      C      -0.1271840000    -6.7414040000     0.2232440000
    2      C      -0.7799490000    -6.1556380000     1.3541180000
    3      C       0.4152710000    -5.7914520000    -0.7154080000
    4      C      -0.9194370000    -4.8037860000     1.5952590000
    5      H      -1.2188010000    -6.8215180000     2.1146130000
    6      C       0.2688060000    -4.3786380000    -0.4631330000
    7      C      -0.3967440000    -3.8380320000     0.6889250000
    8      C       0.7908350000    -3.4130620000    -1.3684490000
    9      C      -0.5420260000    -2.4264730000     0.9391890000
   10      C       0.6526690000    -2.0593480000    -1.1303630000
   11      C       0.0000000000    -1.4782160000     0.0000000000
   12      H       1.0918140000    -1.3947830000    -1.8918150000
   13      C       1.1381240000    -6.1879870000    -1.9637490000
   14      C       1.5062410000    -3.7981640000    -2.6073510000
   15      N       1.6294430000    -5.1700030000    -2.8173480000
   16      C      -1.6366460000    -4.4249870000     2.8376210000
   17      C      -1.2644740000    -2.0366270000     2.1889820000
   18      N      -1.7562050000    -3.0491560000     3.0426370000
   19      O       1.3362580000    -7.3531310000    -2.3012220000
   20      O       1.9670560000    -2.9868540000    -3.4073860000
   21      O      -2.0921670000    -5.2489460000     3.6280410000
   22      O      -1.4721600000    -0.8788290000     2.5458440000
   23      C       2.3366420000    -5.5637990000    -4.0401640000
   24      H       2.3602450000    -6.6640850000    -4.0787490000
   25      H       3.3619680000    -5.1471010000    -4.0278800000
   26      H       1.8134240000    -5.1487850000    -4.9228110000
   27      C      -2.4521490000    -2.5874870000     4.2471670000
   28      H      -2.7725310000    -3.4833290000     4.8042090000
   29      H      -3.3226970000    -1.9649720000     3.9659910000
   30      H      -1.7745070000    -1.9629320000     4.8596780000
   31      H      -0.0339310000    -7.8223180000     0.0623640000
   32      C       0.0000000000     0.0000000000     0.0000000000
   33      S       0.0689290000     0.7901700000     1.5805300000
   34      C       0.2116390000     2.4216550000     0.9049110000
   35      C       0.0868130000     0.9942070000    -0.9854000000
   36      C       0.2017820000     2.3094330000    -0.4935280000
   37      H       0.0662990000     0.7594540000    -2.0599340000
   38      H       0.2784880000     3.1870200000    -1.1525930000
   39      H       0.2883120000     3.2989920000     1.5560250000
 ----------------------------------------------------------------

   10   -1570.6746744155      7.56e-07  Convergence criterion met
 Total energy in the final basis set =    -1570.6746744155
        RIMP2         total energy =     -1575.3068168335 a.u.

                    Orbital Energies (a.u.)
 --------------------------------------------------------------

 Alpha MOs
 -- Occupied --
-91.9825 -20.5588 -20.5568 -20.5544 -20.5542 -15.6315 -15.6307 -11.4002
-11.3971 -11.3918 -11.3911 -11.3192 -11.3025 -11.3018 -11.3007 -11.2966
-11.2956 -11.2901 -11.2871 -11.2844 -11.2800 -11.2797 -11.2784 -11.2648
-11.2646 -11.2602 -11.2450  -8.9822  -6.6627  -6.6620  -6.6614  -1.4263
 -1.4252  -1.4047  -1.4046  -1.2679  -1.2658  -1.2172  -1.1731  -1.1433
 -1.1170  -1.0623  -1.0497  -0.9930  -0.9885  -0.9819  -0.9591  -0.9474
 -0.8968  -0.8798  -0.8778  -0.8621  -0.7941  -0.7773  -0.7747  -0.7608
 -0.7326  -0.7200  -0.7037  -0.6937  -0.6855  -0.6743  -0.6667  -0.6626
 -0.6569  -0.6407  -0.6375  -0.6351  -0.6282  -0.6138  -0.5840  -0.5826
 -0.5801  -0.5711  -0.5689  -0.5657  -0.5643  -0.5557  -0.5548  -0.5487
 -0.5332  -0.5233  -0.5215  -0.5190  -0.4860  -0.4729  -0.4638  -0.4637
 -0.4572  -0.4378  -0.4263  -0.4169  -0.4091  -0.3721  -0.3404  -0.3366
 -0.3006

          Ground-State Mulliken Net Atomic Charges

     Atom                 Charge (a.u.)
  ----------------------------------------
      1 C                    -0.141944
      2 C                    -0.109289
      3 C                    -0.035433
      4 C                    -0.004478
      5 H                     0.188577
      6 C                     0.002375
      7 C                     0.081446
      8 C                    -0.000682
      9 C                    -0.074064
     10 C                    -0.137384
     11 C                     0.101203
     12 H                     0.183026
     13 C                     0.359927
     14 C                     0.366356
     15 N                    -0.101647
     16 C                     0.359565
     17 C                     0.374345
     18 N                    -0.095388
     19 O                    -0.464239
     20 O                    -0.476778
     21 O                    -0.481930
     22 O                    -0.465558
     23 C                    -0.201105
     24 H                     0.141204
     25 H                     0.112484
     26 H                     0.112304
     27 C                    -0.197057
     28 H                     0.134252
     29 H                     0.113130
     30 H                     0.113095
     31 H                     0.213137
     32 C                    -0.040566
     33 S                     0.085418
     34 C                    -0.210142
     35 C                    -0.167305
     36 C                    -0.225136
     37 H                     0.189996
     38 H                     0.187709
     39 H                     0.210577
  ----------------------------------------
  Sum of atomic charges =     0.000000

                    Cartesian Multipole Moments
 -----------------------------------------------------------------
    Charge (ESU x 10^10)
                 0.0000
    Dipole Moment (Debye)
         X      -0.0378      Y       1.3016      Z      -0.4675
       Tot       1.3835
    Quadrupole Moments (Debye-Ang)
        XX    -169.0752     XY       0.9806     YY    -168.0158
        XZ       8.3971     YZ       0.6881     ZZ    -171.8891

 Total job time:  367.76s(wall), 7737.25s(cpu)
        *  Thank you very much for using Q-Chem.  Have a nice day.  *
