 Q-Chem 5.4, Q-Chem, Inc., Pleasanton, CA (2021)
 Q-Chem 5.4.0 for Intel X86 EM64T Linux

User input:
--------------------------------------------------------------
$molecule
0 1
C	-0.256927	-6.741404	0.001478
C	-1.562675	-6.155638	0.001603
C	0.827197	-5.791452	0.001931
C	-1.841253	-4.803786	0.001374
H	-2.440709	-6.821518	0.001794
C	0.535488	-4.378638	0.001227
C	-0.794999	-3.838032	0.000872
C	1.580529	-3.413062	0.000658
C	-1.084374	-2.426473	0.000186
C	1.305258	-2.059348	0.000046
C	0.000000	-1.478216	0.000000
H	2.184267	-1.394783	-0.000369
C	2.269719	-6.187987	0.003770
C	3.011152	-3.798164	0.000767
N	3.254617	-5.170003	0.002465
C	-3.275775	-4.424987	0.001433
C	-2.527951	-2.036627	-0.000576
N	-3.513104	-3.049156	0.000400
O	2.661046	-7.353131	0.006623
O	3.934410	-2.986854	-0.000172
O	-4.188059	-5.248946	0.002151
O	-2.940845	-0.878829	-0.002006
C	4.667206	-5.563799	0.003509
H	4.712423	-6.664085	0.004658
H	5.169231	-5.147101	0.897610
H	5.169992	-5.148785	-0.890935
C	-4.904229	-2.587487	-0.000039
H	-5.546833	-3.483329	0.001022
H	-5.095998	-1.964972	-0.894545
H	-5.095858	-1.962932	0.893071
H	-0.070974	-7.822318	0.001797
C	0.000000	0.000000	0.000000
S	0.509686	0.607733	1.580530
C	1.562368	1.862312	0.904911
C	0.641367	0.764613	-0.985400
C	1.489926	1.776040	-0.493528
H	0.489914	0.584081	-2.059934
H	2.056124	2.450920	-1.152593
H	2.128395	2.537007	1.556025
$end

$rem
JOBTYPE		SP
EXCHANGE	HF
CORRELATION	pRIMP2
BASIS		cc-pvtz
METHOD		rimp2
AUX_BASIS	rimp2-cc-pvtz
SOLVENT_METHOD	PCM
PURECART	11111
SYMMETRY	false
MEM_TOTAL	110000
SCF_CONVERGENCE = 6
THRESH=10
GUI = 2
$end

$solvent
dielectric 4.90
$end
--------------------------------------------------------------

             Standard Nuclear Orientation (Angstroms)
    I     Atom           X                Y                Z
 ----------------------------------------------------------------
    1      C      -0.2569270000    -6.7414040000     0.0014780000
    2      C      -1.5626750000    -6.1556380000     0.0016030000
    3      C       0.8271970000    -5.7914520000     0.0019310000
    4      C      -1.8412530000    -4.8037860000     0.0013740000
    5      H      -2.4407090000    -6.8215180000     0.0017940000
    6      C       0.5354880000    -4.3786380000     0.0012270000
    7      C      -0.7949990000    -3.8380320000     0.0008720000
    8      C       1.5805290000    -3.4130620000     0.0006580000
    9      C      -1.0843740000    -2.4264730000     0.0001860000
   10      C       1.3052580000    -2.0593480000     0.0000460000
   11      C       0.0000000000    -1.4782160000     0.0000000000
   12      H       2.1842670000    -1.3947830000    -0.0003690000
   13      C       2.2697190000    -6.1879870000     0.0037700000
   14      C       3.0111520000    -3.7981640000     0.0007670000
   15      N       3.2546170000    -5.1700030000     0.0024650000
   16      C      -3.2757750000    -4.4249870000     0.0014330000
   17      C      -2.5279510000    -2.0366270000    -0.0005760000
   18      N      -3.5131040000    -3.0491560000     0.0004000000
   19      O       2.6610460000    -7.3531310000     0.0066230000
   20      O       3.9344100000    -2.9868540000    -0.0001720000
   21      O      -4.1880590000    -5.2489460000     0.0021510000
   22      O      -2.9408450000    -0.8788290000    -0.0020060000
   23      C       4.6672060000    -5.5637990000     0.0035090000
   24      H       4.7124230000    -6.6640850000     0.0046580000
   25      H       5.1692310000    -5.1471010000     0.8976100000
   26      H       5.1699920000    -5.1487850000    -0.8909350000
   27      C      -4.9042290000    -2.5874870000    -0.0000390000
   28      H      -5.5468330000    -3.4833290000     0.0010220000
   29      H      -5.0959980000    -1.9649720000    -0.8945450000
   30      H      -5.0958580000    -1.9629320000     0.8930710000
   31      H      -0.0709740000    -7.8223180000     0.0017970000
   32      C       0.0000000000     0.0000000000     0.0000000000
   33      S       0.5096860000     0.6077330000     1.5805300000
   34      C       1.5623680000     1.8623120000     0.9049110000
   35      C       0.6413670000     0.7646130000    -0.9854000000
   36      C       1.4899260000     1.7760400000    -0.4935280000
   37      H       0.4899140000     0.5840810000    -2.0599340000
   38      H       2.0561240000     2.4509200000    -1.1525930000
   39      H       2.1283950000     2.5370070000     1.5560250000
 ----------------------------------------------------------------

   10   -1570.6666957896      8.49e-07  Convergence criterion met
 Total energy in the final basis set =    -1570.6666957896
        RIMP2         total energy =     -1575.2964814397 a.u.

                    Orbital Energies (a.u.)
 --------------------------------------------------------------

 Alpha MOs
 -- Occupied --
-91.9936 -20.5581 -20.5563 -20.5555 -20.5549 -15.6308 -15.6304 -11.3997
-11.3962 -11.3923 -11.3900 -11.3155 -11.3026 -11.3018 -11.2989 -11.2974
-11.2972 -11.2905 -11.2856 -11.2855 -11.2843 -11.2792 -11.2776 -11.2645
-11.2642 -11.2625 -11.2533  -8.9931  -6.6739  -6.6733  -6.6728  -1.4244
 -1.4236  -1.4037  -1.4027  -1.2671  -1.2648  -1.2174  -1.1815  -1.1428
 -1.1166  -1.0626  -1.0490  -0.9924  -0.9915  -0.9878  -0.9588  -0.9470
 -0.8968  -0.8786  -0.8762  -0.8590  -0.7949  -0.7767  -0.7732  -0.7625
 -0.7366  -0.7183  -0.7060  -0.6941  -0.6816  -0.6738  -0.6660  -0.6619
 -0.6564  -0.6419  -0.6374  -0.6336  -0.6291  -0.6125  -0.5848  -0.5845
 -0.5775  -0.5759  -0.5674  -0.5638  -0.5621  -0.5549  -0.5528  -0.5480
 -0.5375  -0.5269  -0.5199  -0.5055  -0.4829  -0.4732  -0.4666  -0.4602
 -0.4600  -0.4531  -0.4275  -0.4179  -0.4079  -0.3675  -0.3377  -0.3326
 -0.3275

          Ground-State Mulliken Net Atomic Charges

     Atom                 Charge (a.u.)
  ----------------------------------------
      1 C                    -0.134118
      2 C                    -0.111933
      3 C                    -0.040334
      4 C                     0.002555
      5 H                     0.188321
      6 C                     0.000183
      7 C                     0.079159
      8 C                    -0.017683
      9 C                    -0.021746
     10 C                    -0.086857
     11 C                    -0.011570
     12 H                     0.188568
     13 C                     0.360195
     14 C                     0.362721
     15 N                    -0.101272
     16 C                     0.358820
     17 C                     0.363128
     18 N                    -0.097672
     19 O                    -0.465603
     20 O                    -0.478058
     21 O                    -0.480084
     22 O                    -0.457969
     23 C                    -0.201444
     24 H                     0.141052
     25 H                     0.112333
     26 H                     0.112128
     27 C                    -0.196475
     28 H                     0.133618
     29 H                     0.112901
     30 H                     0.113196
     31 H                     0.213842
     32 C                     0.002980
     33 S                     0.036248
     34 C                    -0.190661
     35 C                    -0.194853
     36 C                    -0.189307
     37 H                     0.188651
     38 H                     0.194127
     39 H                     0.212909
  ----------------------------------------
  Sum of atomic charges =     0.000000

                    Cartesian Multipole Moments
 -----------------------------------------------------------------
    Charge (ESU x 10^10)
                 0.0000
    Dipole Moment (Debye)
         X       1.6430      Y       1.1181      Z      -0.8999
       Tot       2.1816
    Quadrupole Moments (Debye-Ang)
        XX    -180.0805     XY       7.0665     YY    -170.6600
        XZ       0.5608     YZ       0.7270     ZZ    -157.0773

 Total job time:  265.24s(wall), 8240.42s(cpu)
        *  Thank you very much for using Q-Chem.  Have a nice day.  *
