 Q-Chem 5.4, Q-Chem, Inc., Pleasanton, CA (2021)
 Q-Chem 5.4.0 for Intel X86 EM64T Linux

User input:
--------------------------------------------------------------
$molecule
0 1
C	-0.252767	-6.741404	0.046070
C	-1.538656	-6.155638	0.272935
C	0.814966	-5.791452	-0.141739
C	-1.813042	-4.803786	0.321083
H	-2.403318	-6.821518	0.425592
C	0.527566	-4.378638	-0.091779
C	-0.782769	-3.838032	0.138909
C	1.556632	-3.413062	-0.273808
C	-1.067868	-2.426473	0.188483
C	1.285436	-2.059348	-0.226610
C	-0.000000	-1.478216	-0.000000
H	2.151019	-1.394783	-0.379657
C	2.235891	-6.187987	-0.390420
C	2.965540	-3.798164	-0.522125
N	3.205600	-5.170003	-0.562731
C	-3.225760	-4.424987	0.570244
C	-2.489646	-2.036627	0.438407
N	-3.459662	-3.049156	0.610438
O	2.621768	-7.353131	-0.455563
O	3.874608	-2.986854	-0.683373
O	-4.124059	-5.248946	0.729367
O	-2.896516	-0.878829	0.508697
C	4.596910	-5.563799	-0.806996
H	4.641640	-6.664085	-0.813717
H	5.246567	-5.147101	-0.013655
H	4.936739	-5.148785	-1.775159
C	-4.829729	-2.587487	0.851572
H	-5.462387	-3.483329	0.964204
H	-5.173914	-1.964972	0.003956
H	-4.863360	-1.962932	1.764390
H	-0.069584	-7.822318	0.014094
C	0.000000	0.000000	0.000000
S	0.271091	0.745405	1.580530
C	0.831198	2.284363	0.904911
C	0.341175	0.937861	-0.985400
C	0.792631	2.178516	-0.493528
H	0.260601	0.716417	-2.059934
H	1.093860	3.006347	-1.152593
H	1.132330	3.111961	1.556025
$end

$rem
JOBTYPE		SP
EXCHANGE	HF
CORRELATION	pRIMP2
BASIS		cc-pvtz
METHOD		rimp2
AUX_BASIS	rimp2-cc-pvtz
SOLVENT_METHOD	PCM
PURECART	11111
SYMMETRY	false
MEM_TOTAL	110000
SCF_CONVERGENCE = 6
THRESH=10
GUI = 2
$end

$solvent
dielectric 4.90
$end
--------------------------------------------------------------

             Standard Nuclear Orientation (Angstroms)
    I     Atom           X                Y                Z
 ----------------------------------------------------------------
    1      C      -0.2527670000    -6.7414040000     0.0460700000
    2      C      -1.5386560000    -6.1556380000     0.2729350000
    3      C       0.8149660000    -5.7914520000    -0.1417390000
    4      C      -1.8130420000    -4.8037860000     0.3210830000
    5      H      -2.4033180000    -6.8215180000     0.4255920000
    6      C       0.5275660000    -4.3786380000    -0.0917790000
    7      C      -0.7827690000    -3.8380320000     0.1389090000
    8      C       1.5566320000    -3.4130620000    -0.2738080000
    9      C      -1.0678680000    -2.4264730000     0.1884830000
   10      C       1.2854360000    -2.0593480000    -0.2266100000
   11      C       0.0000000000    -1.4782160000     0.0000000000
   12      H       2.1510190000    -1.3947830000    -0.3796570000
   13      C       2.2358910000    -6.1879870000    -0.3904200000
   14      C       2.9655400000    -3.7981640000    -0.5221250000
   15      N       3.2056000000    -5.1700030000    -0.5627310000
   16      C      -3.2257600000    -4.4249870000     0.5702440000
   17      C      -2.4896460000    -2.0366270000     0.4384070000
   18      N      -3.4596620000    -3.0491560000     0.6104380000
   19      O       2.6217680000    -7.3531310000    -0.4555630000
   20      O       3.8746080000    -2.9868540000    -0.6833730000
   21      O      -4.1240590000    -5.2489460000     0.7293670000
   22      O      -2.8965160000    -0.8788290000     0.5086970000
   23      C       4.5969100000    -5.5637990000    -0.8069960000
   24      H       4.6416400000    -6.6640850000    -0.8137170000
   25      H       5.2465670000    -5.1471010000    -0.0136550000
   26      H       4.9367390000    -5.1487850000    -1.7751590000
   27      C      -4.8297290000    -2.5874870000     0.8515720000
   28      H      -5.4623870000    -3.4833290000     0.9642040000
   29      H      -5.1739140000    -1.9649720000     0.0039560000
   30      H      -4.8633600000    -1.9629320000     1.7643900000
   31      H      -0.0695840000    -7.8223180000     0.0140940000
   32      C       0.0000000000     0.0000000000     0.0000000000
   33      S       0.2710910000     0.7454050000     1.5805300000
   34      C       0.8311980000     2.2843630000     0.9049110000
   35      C       0.3411750000     0.9378610000    -0.9854000000
   36      C       0.7926310000     2.1785160000    -0.4935280000
   37      H       0.2606010000     0.7164170000    -2.0599340000
   38      H       1.0938600000     3.0063470000    -1.1525930000
   39      H       1.1323300000     3.1119610000     1.5560250000
 ----------------------------------------------------------------

   10   -1570.6859465903      7.23e-07  Convergence criterion met
 Total energy in the final basis set =    -1570.6859465903
        RIMP2         total energy =     -1575.3105446107 a.u.

                    Orbital Energies (a.u.)
 --------------------------------------------------------------

 Alpha MOs
 -- Occupied --
-91.9922 -20.5588 -20.5578 -20.5564 -20.5558 -15.6315 -15.6315 -11.4005
-11.3977 -11.3933 -11.3909 -11.3163 -11.3073 -11.3032 -11.3012 -11.2997
-11.2992 -11.2931 -11.2872 -11.2863 -11.2823 -11.2809 -11.2793 -11.2648
-11.2648 -11.2563 -11.2508  -8.9915  -6.6723  -6.6718  -6.6712  -1.4252
 -1.4248  -1.4044  -1.4038  -1.2680  -1.2657  -1.2185  -1.1764  -1.1444
 -1.1183  -1.0636  -1.0507  -0.9935  -0.9902  -0.9840  -0.9596  -0.9484
 -0.8979  -0.8799  -0.8783  -0.8611  -0.7959  -0.7777  -0.7736  -0.7608
 -0.7365  -0.7194  -0.7057  -0.6952  -0.6818  -0.6740  -0.6668  -0.6626
 -0.6575  -0.6425  -0.6382  -0.6345  -0.6305  -0.6131  -0.5854  -0.5849
 -0.5783  -0.5735  -0.5669  -0.5645  -0.5630  -0.5555  -0.5534  -0.5487
 -0.5342  -0.5267  -0.5214  -0.5149  -0.4839  -0.4718  -0.4674  -0.4612
 -0.4599  -0.4540  -0.4286  -0.4185  -0.4091  -0.3601  -0.3469  -0.3349
 -0.3232

          Ground-State Mulliken Net Atomic Charges

     Atom                 Charge (a.u.)
  ----------------------------------------
      1 C                    -0.129547
      2 C                    -0.109258
      3 C                    -0.043833
      4 C                     0.001815
      5 H                     0.189010
      6 C                     0.001770
      7 C                     0.071583
      8 C                     0.000217
      9 C                    -0.008261
     10 C                    -0.090247
     11 C                     0.005513
     12 H                     0.188248
     13 C                     0.360824
     14 C                     0.364179
     15 N                    -0.101713
     16 C                     0.359818
     17 C                     0.352415
     18 N                    -0.098764
     19 O                    -0.464783
     20 O                    -0.476327
     21 O                    -0.479318
     22 O                    -0.457720
     23 C                    -0.201108
     24 H                     0.141146
     25 H                     0.112599
     26 H                     0.112321
     27 C                    -0.195781
     28 H                     0.133656
     29 H                     0.113374
     30 H                     0.113611
     31 H                     0.214654
     32 C                     0.007109
     33 S                     0.033093
     34 C                    -0.213835
     35 C                    -0.212798
     36 C                    -0.187221
     37 H                     0.189692
     38 H                     0.192716
     39 H                     0.211153
  ----------------------------------------
  Sum of atomic charges =     0.000000

                    Cartesian Multipole Moments
 -----------------------------------------------------------------
    Charge (ESU x 10^10)
                 0.0000
    Dipole Moment (Debye)
         X       0.6674      Y       0.6871      Z      -0.9079
       Tot       1.3198
    Quadrupole Moments (Debye-Ang)
        XX    -182.3915     XY       4.8624     YY    -165.0517
        XZ       3.6484     YZ       0.5304     ZZ    -158.0453

 Total job time:  261.37s(wall), 8047.69s(cpu)
        *  Thank you very much for using Q-Chem.  Have a nice day.  *
