 Q-Chem 5.4, Q-Chem, Inc., Pleasanton, CA (2021)
 Q-Chem 5.4.0 for Intel X86 EM64T Linux

User input:
--------------------------------------------------------------
$molecule
0 1
C	-0.223244	-6.741404	-0.127184
C	-1.354118	-6.155638	-0.779949
C	0.715408	-5.791452	0.415271
C	-1.595259	-4.803786	-0.919437
H	-2.114613	-6.821518	-1.218801
C	0.463133	-4.378638	0.268806
C	-0.688925	-3.838032	-0.396744
C	1.368449	-3.413062	0.790835
C	-0.939189	-2.426473	-0.542026
C	1.130363	-2.059348	0.652669
C	-0.000000	-1.478216	-0.000000
H	1.891815	-1.394783	1.091814
C	1.963749	-6.187987	1.138124
C	2.607351	-3.798164	1.506241
N	2.817348	-5.170003	1.629443
C	-2.837621	-4.424987	-1.636646
C	-2.188982	-2.036627	-1.264474
N	-3.042637	-3.049156	-1.756205
O	2.301222	-7.353131	1.336258
O	3.407386	-2.986854	1.967056
O	-3.628041	-5.248946	-2.092167
O	-2.545844	-0.878829	-1.472160
C	4.040164	-5.563799	2.336642
H	4.078749	-6.664085	2.360245
H	4.027880	-5.147101	3.361968
H	4.922811	-5.148785	1.813424
C	-4.247167	-2.587487	-2.452149
H	-4.804209	-3.483329	-2.772531
H	-3.965991	-1.964972	-3.322697
H	-4.859678	-1.962932	-1.774507
H	-0.062364	-7.822318	-0.033931
C	0.000000	0.000000	0.000000
S	-0.000201	0.793171	1.580530
C	-0.000228	2.430885	0.904911
C	-0.000168	0.997990	-0.985400
C	-0.000267	2.318231	-0.493528
H	-0.000145	0.762343	-2.059934
H	-0.000339	3.199164	-1.152593
H	-0.000311	3.311566	1.556025
$end

$rem
JOBTYPE		SP
EXCHANGE	HF
CORRELATION	pRIMP2
BASIS		cc-pvtz
METHOD		rimp2
AUX_BASIS	rimp2-cc-pvtz
SOLVENT_METHOD	PCM
PURECART	11111
SYMMETRY	false
MEM_TOTAL	110000
SCF_CONVERGENCE = 6
THRESH=10
GUI = 2
$end

$solvent
dielectric 4.90
$end
--------------------------------------------------------------

             Standard Nuclear Orientation (Angstroms)
    I     Atom           X                Y                Z
 ----------------------------------------------------------------
    1      C      -0.2232440000    -6.7414040000    -0.1271840000
    2      C      -1.3541180000    -6.1556380000    -0.7799490000
    3      C       0.7154080000    -5.7914520000     0.4152710000
    4      C      -1.5952590000    -4.8037860000    -0.9194370000
    5      H      -2.1146130000    -6.8215180000    -1.2188010000
    6      C       0.4631330000    -4.3786380000     0.2688060000
    7      C      -0.6889250000    -3.8380320000    -0.3967440000
    8      C       1.3684490000    -3.4130620000     0.7908350000
    9      C      -0.9391890000    -2.4264730000    -0.5420260000
   10      C       1.1303630000    -2.0593480000     0.6526690000
   11      C       0.0000000000    -1.4782160000     0.0000000000
   12      H       1.8918150000    -1.3947830000     1.0918140000
   13      C       1.9637490000    -6.1879870000     1.1381240000
   14      C       2.6073510000    -3.7981640000     1.5062410000
   15      N       2.8173480000    -5.1700030000     1.6294430000
   16      C      -2.8376210000    -4.4249870000    -1.6366460000
   17      C      -2.1889820000    -2.0366270000    -1.2644740000
   18      N      -3.0426370000    -3.0491560000    -1.7562050000
   19      O       2.3012220000    -7.3531310000     1.3362580000
   20      O       3.4073860000    -2.9868540000     1.9670560000
   21      O      -3.6280410000    -5.2489460000    -2.0921670000
   22      O      -2.5458440000    -0.8788290000    -1.4721600000
   23      C       4.0401640000    -5.5637990000     2.3366420000
   24      H       4.0787490000    -6.6640850000     2.3602450000
   25      H       4.0278800000    -5.1471010000     3.3619680000
   26      H       4.9228110000    -5.1487850000     1.8134240000
   27      C      -4.2471670000    -2.5874870000    -2.4521490000
   28      H      -4.8042090000    -3.4833290000    -2.7725310000
   29      H      -3.9659910000    -1.9649720000    -3.3226970000
   30      H      -4.8596780000    -1.9629320000    -1.7745070000
   31      H      -0.0623640000    -7.8223180000    -0.0339310000
   32      C       0.0000000000     0.0000000000     0.0000000000
   33      S      -0.0002010000     0.7931710000     1.5805300000
   34      C      -0.0002280000     2.4308850000     0.9049110000
   35      C      -0.0001680000     0.9979900000    -0.9854000000
   36      C      -0.0002670000     2.3182310000    -0.4935280000
   37      H      -0.0001450000     0.7623430000    -2.0599340000
   38      H      -0.0003390000     3.1991640000    -1.1525930000
   39      H      -0.0003110000     3.3115660000     1.5560250000
 ----------------------------------------------------------------

   10   -1570.6915739496      7.02e-07  Convergence criterion met
 Total energy in the final basis set =    -1570.6915739496
        RIMP2         total energy =     -1575.3156034072 a.u.

                    Orbital Energies (a.u.)
 --------------------------------------------------------------

 Alpha MOs
 -- Occupied --
-91.9935 -20.5588 -20.5563 -20.5560 -20.5553 -15.6314 -15.6310 -11.4004
-11.3967 -11.3929 -11.3907 -11.3165 -11.3062 -11.3031 -11.3012 -11.2991
-11.2985 -11.2923 -11.2867 -11.2866 -11.2827 -11.2808 -11.2788 -11.2648
-11.2646 -11.2554 -11.2504  -8.9927  -6.6736  -6.6731  -6.6725  -1.4250
 -1.4241  -1.4043  -1.4031  -1.2677  -1.2654  -1.2181  -1.1752  -1.1446
 -1.1179  -1.0637  -1.0504  -0.9932  -0.9898  -0.9835  -0.9594  -0.9485
 -0.8975  -0.8798  -0.8783  -0.8614  -0.7962  -0.7779  -0.7731  -0.7597
 -0.7379  -0.7180  -0.7054  -0.6953  -0.6808  -0.6730  -0.6666  -0.6624
 -0.6570  -0.6425  -0.6376  -0.6337  -0.6301  -0.6128  -0.5862  -0.5845
 -0.5783  -0.5732  -0.5660  -0.5641  -0.5608  -0.5554  -0.5524  -0.5486
 -0.5366  -0.5267  -0.5206  -0.5178  -0.4837  -0.4707  -0.4667  -0.4627
 -0.4603  -0.4536  -0.4285  -0.4183  -0.4091  -0.3613  -0.3538  -0.3359
 -0.3135

          Ground-State Mulliken Net Atomic Charges

     Atom                 Charge (a.u.)
  ----------------------------------------
      1 C                    -0.132653
      2 C                    -0.107473
      3 C                    -0.042051
      4 C                    -0.002524
      5 H                     0.188941
      6 C                    -0.004235
      7 C                     0.074345
      8 C                     0.006176
      9 C                    -0.018295
     10 C                    -0.147280
     11 C                     0.087123
     12 H                     0.186673
     13 C                     0.360902
     14 C                     0.368218
     15 N                    -0.101782
     16 C                     0.360237
     17 C                     0.349144
     18 N                    -0.095307
     19 O                    -0.464720
     20 O                    -0.475993
     21 O                    -0.480231
     22 O                    -0.457607
     23 C                    -0.200949
     24 H                     0.141039
     25 H                     0.112585
     26 H                     0.112462
     27 C                    -0.196084
     28 H                     0.133837
     29 H                     0.112491
     30 H                     0.113587
     31 H                     0.214314
     32 C                    -0.053226
     33 S                     0.031717
     34 C                    -0.208552
     35 C                    -0.149973
     36 C                    -0.205943
     37 H                     0.187455
     38 H                     0.191311
     39 H                     0.212317
  ----------------------------------------
  Sum of atomic charges =     0.000000

                    Cartesian Multipole Moments
 -----------------------------------------------------------------
    Charge (ESU x 10^10)
                 0.0000
    Dipole Moment (Debye)
         X      -0.0047      Y       1.0137      Z      -0.9809
       Tot       1.4106
    Quadrupole Moments (Debye-Ang)
        XX    -179.4283     XY       0.6925     YY    -164.2594
        XZ      -8.8480     YZ       1.2136     ZZ    -162.5969

 Total job time:  248.75s(wall), 7683.50s(cpu)
        *  Thank you very much for using Q-Chem.  Have a nice day.  *
