 Q-Chem 5.4, Q-Chem, Inc., Pleasanton, CA (2021)
 Q-Chem 5.4.0 for Intel X86 EM64T Linux

User input:
--------------------------------------------------------------
$molecule
0 1
C	-0.256927	-6.741404	0.001478
C	-1.562675	-6.155638	0.001603
C	0.827197	-5.791452	0.001931
C	-1.841253	-4.803786	0.001374
H	-2.440709	-6.821518	0.001794
C	0.535488	-4.378638	0.001227
C	-0.794999	-3.838032	0.000872
C	1.580529	-3.413062	0.000658
C	-1.084374	-2.426473	0.000186
C	1.305258	-2.059348	0.000046
C	-0.000000	-1.478216	-0.000000
H	2.184267	-1.394783	-0.000369
C	2.269719	-6.187987	0.003770
C	3.011152	-3.798164	0.000767
N	3.254617	-5.170003	0.002465
C	-3.275775	-4.424987	0.001433
C	-2.527951	-2.036627	-0.000576
N	-3.513104	-3.049156	0.000400
O	2.661046	-7.353131	0.006623
O	3.934410	-2.986854	-0.000172
O	-4.188059	-5.248946	0.002151
O	-2.940845	-0.878829	-0.002006
C	4.667206	-5.563799	0.003509
H	4.712423	-6.664085	0.004658
H	5.169231	-5.147101	0.897610
H	5.169992	-5.148785	-0.890935
C	-4.904229	-2.587487	-0.000039
H	-5.546833	-3.483329	0.001022
H	-5.095998	-1.964972	-0.894545
H	-5.095858	-1.962932	0.893071
H	-0.070974	-7.822318	0.001797
C	0.000000	0.000000	0.000000
S	0.335026	0.718942	1.580530
C	1.027130	2.203226	0.904911
C	0.421617	0.904557	-0.985400
C	0.979485	2.101144	-0.493528
H	0.322049	0.690978	-2.059934
H	1.351718	2.899571	-1.152593
H	1.399246	3.001430	1.556025
$end

$rem
JOBTYPE		SP
EXCHANGE	HF
CORRELATION	pRIMP2
BASIS		cc-pvtz
METHOD		rimp2
AUX_BASIS	rimp2-cc-pvtz
SOLVENT_METHOD	PCM
PURECART	11111
SYMMETRY	false
MEM_TOTAL	110000
SCF_CONVERGENCE = 6
THRESH=10
GUI = 2
$end

$solvent
dielectric 4.90
$end
--------------------------------------------------------------

             Standard Nuclear Orientation (Angstroms)
    I     Atom           X                Y                Z
 ----------------------------------------------------------------
    1      C      -0.2569270000    -6.7414040000     0.0014780000
    2      C      -1.5626750000    -6.1556380000     0.0016030000
    3      C       0.8271970000    -5.7914520000     0.0019310000
    4      C      -1.8412530000    -4.8037860000     0.0013740000
    5      H      -2.4407090000    -6.8215180000     0.0017940000
    6      C       0.5354880000    -4.3786380000     0.0012270000
    7      C      -0.7949990000    -3.8380320000     0.0008720000
    8      C       1.5805290000    -3.4130620000     0.0006580000
    9      C      -1.0843740000    -2.4264730000     0.0001860000
   10      C       1.3052580000    -2.0593480000     0.0000460000
   11      C       0.0000000000    -1.4782160000     0.0000000000
   12      H       2.1842670000    -1.3947830000    -0.0003690000
   13      C       2.2697190000    -6.1879870000     0.0037700000
   14      C       3.0111520000    -3.7981640000     0.0007670000
   15      N       3.2546170000    -5.1700030000     0.0024650000
   16      C      -3.2757750000    -4.4249870000     0.0014330000
   17      C      -2.5279510000    -2.0366270000    -0.0005760000
   18      N      -3.5131040000    -3.0491560000     0.0004000000
   19      O       2.6610460000    -7.3531310000     0.0066230000
   20      O       3.9344100000    -2.9868540000    -0.0001720000
   21      O      -4.1880590000    -5.2489460000     0.0021510000
   22      O      -2.9408450000    -0.8788290000    -0.0020060000
   23      C       4.6672060000    -5.5637990000     0.0035090000
   24      H       4.7124230000    -6.6640850000     0.0046580000
   25      H       5.1692310000    -5.1471010000     0.8976100000
   26      H       5.1699920000    -5.1487850000    -0.8909350000
   27      C      -4.9042290000    -2.5874870000    -0.0000390000
   28      H      -5.5468330000    -3.4833290000     0.0010220000
   29      H      -5.0959980000    -1.9649720000    -0.8945450000
   30      H      -5.0958580000    -1.9629320000     0.8930710000
   31      H      -0.0709740000    -7.8223180000     0.0017970000
   32      C       0.0000000000     0.0000000000     0.0000000000
   33      S       0.3350260000     0.7189420000     1.5805300000
   34      C       1.0271300000     2.2032260000     0.9049110000
   35      C       0.4216170000     0.9045570000    -0.9854000000
   36      C       0.9794850000     2.1011440000    -0.4935280000
   37      H       0.3220490000     0.6909780000    -2.0599340000
   38      H       1.3517180000     2.8995710000    -1.1525930000
   39      H       1.3992460000     3.0014300000     1.5560250000
 ----------------------------------------------------------------

   10   -1570.6823707493      7.37e-07  Convergence criterion met
 Total energy in the final basis set =    -1570.6823707493
        RIMP2         total energy =     -1575.3077387593 a.u.

                    Orbital Energies (a.u.)
 --------------------------------------------------------------

 Alpha MOs
 -- Occupied --
-91.9927 -20.5586 -20.5577 -20.5561 -20.5557 -15.6314 -15.6313 -11.4003
-11.3976 -11.3932 -11.3906 -11.3161 -11.3065 -11.3029 -11.3006 -11.2992
-11.2988 -11.2920 -11.2869 -11.2858 -11.2834 -11.2805 -11.2791 -11.2647
-11.2647 -11.2572 -11.2513  -8.9920  -6.6728  -6.6723  -6.6717  -1.4250
 -1.4247  -1.4042  -1.4037  -1.2678  -1.2656  -1.2182  -1.1774  -1.1441
 -1.1180  -1.0634  -1.0503  -0.9933  -0.9905  -0.9846  -0.9594  -0.9481
 -0.8977  -0.8796  -0.8779  -0.8606  -0.7957  -0.7776  -0.7734  -0.7607
 -0.7370  -0.7191  -0.7057  -0.6950  -0.6817  -0.6738  -0.6666  -0.6625
 -0.6573  -0.6424  -0.6381  -0.6344  -0.6303  -0.6129  -0.5854  -0.5847
 -0.5781  -0.5739  -0.5671  -0.5643  -0.5624  -0.5554  -0.5532  -0.5486
 -0.5357  -0.5270  -0.5214  -0.5121  -0.4838  -0.4718  -0.4673  -0.4609
 -0.4606  -0.4539  -0.4284  -0.4184  -0.4088  -0.3621  -0.3435  -0.3335
 -0.3260

          Ground-State Mulliken Net Atomic Charges

     Atom                 Charge (a.u.)
  ----------------------------------------
      1 C                    -0.130023
      2 C                    -0.110017
      3 C                    -0.043662
      4 C                     0.002340
      5 H                     0.188895
      6 C                     0.002708
      7 C                     0.073739
      8 C                    -0.005888
      9 C                    -0.008117
     10 C                    -0.083328
     11 C                    -0.008455
     12 H                     0.189761
     13 C                     0.360828
     14 C                     0.363443
     15 N                    -0.101594
     16 C                     0.359700
     17 C                     0.355022
     18 N                    -0.098817
     19 O                    -0.465111
     20 O                    -0.476574
     21 O                    -0.479219
     22 O                    -0.457729
     23 C                    -0.201148
     24 H                     0.141085
     25 H                     0.112518
     26 H                     0.112315
     27 C                    -0.195881
     28 H                     0.133806
     29 H                     0.113138
     30 H                     0.113525
     31 H                     0.214507
     32 C                     0.013790
     33 S                     0.031008
     34 C                    -0.212144
     35 C                    -0.211654
     36 C                    -0.185439
     37 H                     0.188240
     38 H                     0.193042
     39 H                     0.211387
  ----------------------------------------
  Sum of atomic charges =     0.000000

                    Cartesian Multipole Moments
 -----------------------------------------------------------------
    Charge (ESU x 10^10)
                 0.0000
    Dipole Moment (Debye)
         X       0.8741      Y       0.7447      Z      -0.9265
       Tot       1.4755
    Quadrupole Moments (Debye-Ang)
        XX    -182.4045     XY       5.6598     YY    -166.1456
        XZ       0.2807     YZ       0.7324     ZZ    -157.3854

 Total job time:  260.95s(wall), 8079.16s(cpu)
        *  Thank you very much for using Q-Chem.  Have a nice day.  *
