 Q-Chem 5.4, Q-Chem, Inc., Pleasanton, CA (2021)
 Q-Chem 5.4.0 for Intel X86 EM64T Linux

User input:
--------------------------------------------------------------
$molecule
0 1
C	0.253280	-6.741404	0.043160
C	1.539213	-6.155638	0.269777
C	-0.814295	-5.791452	-0.145543
C	1.813519	-4.803786	0.318377
H	2.403941	-6.821518	0.422058
C	-0.527140	-4.378638	-0.094194
C	0.783072	-3.838032	0.137191
C	-1.556403	-3.413062	-0.275104
C	1.067932	-2.426473	0.188116
C	-1.285420	-2.059348	-0.226701
C	0.000000	-1.478216	0.000000
H	-2.151147	-1.394783	-0.378931
C	-2.234582	-6.187987	-0.397845
C	-2.965273	-3.798164	-0.523637
N	-3.204744	-5.170003	-0.567586
C	3.226257	-4.424987	0.567421
C	2.489446	-2.036627	0.439541
N	3.459801	-3.049156	0.609650
O	-2.619468	-7.353131	-0.468608
O	-3.874668	-2.986854	-0.683034
O	4.124806	-5.248946	0.725131
O	2.895819	-0.878829	0.512648
C	-4.595691	-5.563799	-0.813908
H	-4.640022	-6.664085	-0.822891
H	-4.934830	-5.147101	-1.781600
H	-5.246157	-5.148785	-0.020360
C	4.829716	-2.587487	0.851649
H	5.462742	-3.483329	0.962191
H	4.863242	-1.964972	1.765865
H	5.173521	-1.962932	0.005383
H	0.070208	-7.822318	0.010555
C	0.000000	0.000000	0.000000
S	0.509686	0.607733	1.580530
C	1.562368	1.862312	0.904911
C	0.641367	0.764613	-0.985400
C	1.489926	1.776040	-0.493528
H	0.489914	0.584081	-2.059934
H	2.056124	2.450920	-1.152593
H	2.128395	2.537007	1.556025
$end

$rem
JOBTYPE		SP
EXCHANGE	HF
CORRELATION	pRIMP2
BASIS		cc-pvtz
METHOD		rimp2
AUX_BASIS	rimp2-cc-pvtz
SOLVENT_METHOD	PCM
PURECART	11111
SYMMETRY	false
MEM_TOTAL	110000
SCF_CONVERGENCE = 6
THRESH=10
GUI = 2
$end

$solvent
dielectric 4.90
$end
--------------------------------------------------------------

             Standard Nuclear Orientation (Angstroms)
    I     Atom           X                Y                Z
 ----------------------------------------------------------------
    1      C       0.2532800000    -6.7414040000     0.0431600000
    2      C       1.5392130000    -6.1556380000     0.2697770000
    3      C      -0.8142950000    -5.7914520000    -0.1455430000
    4      C       1.8135190000    -4.8037860000     0.3183770000
    5      H       2.4039410000    -6.8215180000     0.4220580000
    6      C      -0.5271400000    -4.3786380000    -0.0941940000
    7      C       0.7830720000    -3.8380320000     0.1371910000
    8      C      -1.5564030000    -3.4130620000    -0.2751040000
    9      C       1.0679320000    -2.4264730000     0.1881160000
   10      C      -1.2854200000    -2.0593480000    -0.2267010000
   11      C       0.0000000000    -1.4782160000     0.0000000000
   12      H      -2.1511470000    -1.3947830000    -0.3789310000
   13      C      -2.2345820000    -6.1879870000    -0.3978450000
   14      C      -2.9652730000    -3.7981640000    -0.5236370000
   15      N      -3.2047440000    -5.1700030000    -0.5675860000
   16      C       3.2262570000    -4.4249870000     0.5674210000
   17      C       2.4894460000    -2.0366270000     0.4395410000
   18      N       3.4598010000    -3.0491560000     0.6096500000
   19      O      -2.6194680000    -7.3531310000    -0.4686080000
   20      O      -3.8746680000    -2.9868540000    -0.6830340000
   21      O       4.1248060000    -5.2489460000     0.7251310000
   22      O       2.8958190000    -0.8788290000     0.5126480000
   23      C      -4.5956910000    -5.5637990000    -0.8139080000
   24      H      -4.6400220000    -6.6640850000    -0.8228910000
   25      H      -4.9348300000    -5.1471010000    -1.7816000000
   26      H      -5.2461570000    -5.1487850000    -0.0203600000
   27      C       4.8297160000    -2.5874870000     0.8516490000
   28      H       5.4627420000    -3.4833290000     0.9621910000
   29      H       4.8632420000    -1.9649720000     1.7658650000
   30      H       5.1735210000    -1.9629320000     0.0053830000
   31      H       0.0702080000    -7.8223180000     0.0105550000
   32      C       0.0000000000     0.0000000000     0.0000000000
   33      S       0.5096860000     0.6077330000     1.5805300000
   34      C       1.5623680000     1.8623120000     0.9049110000
   35      C       0.6413670000     0.7646130000    -0.9854000000
   36      C       1.4899260000     1.7760400000    -0.4935280000
   37      H       0.4899140000     0.5840810000    -2.0599340000
   38      H       2.0561240000     2.4509200000    -1.1525930000
   39      H       2.1283950000     2.5370070000     1.5560250000
 ----------------------------------------------------------------

   10   -1570.6568432209      9.45e-07  Convergence criterion met
 Total energy in the final basis set =    -1570.6568432209
        RIMP2         total energy =     -1575.2914409456 a.u.

                    Orbital Energies (a.u.)
 --------------------------------------------------------------

 Alpha MOs
 -- Occupied --
-91.9855 -20.5579 -20.5551 -20.5536 -20.5527 -15.6303 -15.6289 -11.3994
-11.3923 -11.3913 -11.3891 -11.3123 -11.3020 -11.3017 -11.2992 -11.2968
-11.2965 -11.2889 -11.2850 -11.2831 -11.2794 -11.2739 -11.2723 -11.2641
-11.2641 -11.2640 -11.2469  -8.9852  -6.6660  -6.6653  -6.6649  -1.4240
 -1.4220  -1.4033  -1.4012  -1.2663  -1.2637  -1.2159  -1.1751  -1.1418
 -1.1155  -1.0604  -1.0479  -0.9920  -0.9874  -0.9828  -0.9582  -0.9477
 -0.8952  -0.8784  -0.8730  -0.8596  -0.7916  -0.7754  -0.7722  -0.7590
 -0.7348  -0.7177  -0.7044  -0.6940  -0.6787  -0.6705  -0.6652  -0.6611
 -0.6558  -0.6419  -0.6361  -0.6339  -0.6282  -0.6110  -0.5846  -0.5831
 -0.5755  -0.5735  -0.5660  -0.5632  -0.5590  -0.5543  -0.5520  -0.5478
 -0.5371  -0.5255  -0.5193  -0.5015  -0.4803  -0.4692  -0.4631  -0.4585
 -0.4546  -0.4446  -0.4267  -0.4176  -0.4080  -0.3560  -0.3425  -0.3305
 -0.3236

          Ground-State Mulliken Net Atomic Charges

     Atom                 Charge (a.u.)
  ----------------------------------------
      1 C                    -0.134619
      2 C                    -0.109126
      3 C                    -0.041844
      4 C                    -0.000403
      5 H                     0.188055
      6 C                    -0.007000
      7 C                     0.066446
      8 C                     0.013480
      9 C                    -0.008514
     10 C                    -0.147299
     11 C                     0.065491
     12 H                     0.179836
     13 C                     0.360649
     14 C                     0.364911
     15 N                    -0.101477
     16 C                     0.356174
     17 C                     0.365342
     18 N                    -0.092436
     19 O                    -0.465420
     20 O                    -0.476516
     21 O                    -0.482767
     22 O                    -0.454550
     23 C                    -0.201317
     24 H                     0.140859
     25 H                     0.112036
     26 H                     0.112347
     27 C                    -0.196926
     28 H                     0.133694
     29 H                     0.112117
     30 H                     0.111782
     31 H                     0.213757
     32 C                    -0.082554
     33 S                     0.027323
     34 C                    -0.157882
     35 C                    -0.154194
     36 C                    -0.196917
     37 H                     0.188359
     38 H                     0.188701
     39 H                     0.210404
  ----------------------------------------
  Sum of atomic charges =     0.000000

                    Cartesian Multipole Moments
 -----------------------------------------------------------------
    Charge (ESU x 10^10)
                 0.0000
    Dipole Moment (Debye)
         X       2.0685      Y       1.3097      Z      -0.9181
       Tot       2.6148
    Quadrupole Moments (Debye-Ang)
        XX    -179.2282     XY       5.5734     YY    -171.9960
        XZ      -2.6583     YZ       0.4432     ZZ    -157.9906

 Total job time:  257.02s(wall), 8053.81s(cpu)
        *  Thank you very much for using Q-Chem.  Have a nice day.  *
