 Q-Chem 5.4, Q-Chem, Inc., Pleasanton, CA (2021)
 Q-Chem 5.4.0 for Intel X86 EM64T Linux

User input:
--------------------------------------------------------------
$molecule
0 1
C	-0.253280	-6.741404	-0.043160
C	-1.539213	-6.155638	-0.269777
C	0.814295	-5.791452	0.145543
C	-1.813519	-4.803786	-0.318377
H	-2.403941	-6.821518	-0.422058
C	0.527140	-4.378638	0.094194
C	-0.783072	-3.838032	-0.137191
C	1.556403	-3.413062	0.275104
C	-1.067932	-2.426473	-0.188116
C	1.285420	-2.059348	0.226701
C	0.000000	-1.478216	0.000000
H	2.151147	-1.394783	0.378931
C	2.234582	-6.187987	0.397845
C	2.965273	-3.798164	0.523637
N	3.204744	-5.170003	0.567586
C	-3.226257	-4.424987	-0.567421
C	-2.489446	-2.036627	-0.439541
N	-3.459801	-3.049156	-0.609650
O	2.619468	-7.353131	0.468608
O	3.874668	-2.986854	0.683034
O	-4.124806	-5.248946	-0.725131
O	-2.895819	-0.878829	-0.512648
C	4.595691	-5.563799	0.813908
H	4.640022	-6.664085	0.822891
H	4.934830	-5.147101	1.781600
H	5.246157	-5.148785	0.020360
C	-4.829716	-2.587487	-0.851649
H	-5.462742	-3.483329	-0.962191
H	-4.863242	-1.964972	-1.765865
H	-5.173521	-1.962932	-0.005383
H	-0.070208	-7.822318	-0.010555
C	0.000000	0.000000	0.000000
S	0.205093	0.766196	1.580530
C	0.628939	2.348114	0.904911
C	0.258137	0.964028	-0.985400
C	0.599745	2.239309	-0.493528
H	0.197169	0.736404	-2.059934
H	0.827678	3.090243	-1.152593
H	0.856796	3.198808	1.556025
$end

$rem
JOBTYPE		SP
EXCHANGE	HF
CORRELATION	pRIMP2
BASIS		cc-pvtz
METHOD		rimp2
AUX_BASIS	rimp2-cc-pvtz
SOLVENT_METHOD	PCM
PURECART	11111
SYMMETRY	false
MEM_TOTAL	110000
SCF_CONVERGENCE = 6
THRESH=10
GUI = 2
$end

$solvent
dielectric 4.90
$end
--------------------------------------------------------------

             Standard Nuclear Orientation (Angstroms)
    I     Atom           X                Y                Z
 ----------------------------------------------------------------
    1      C      -0.2532800000    -6.7414040000    -0.0431600000
    2      C      -1.5392130000    -6.1556380000    -0.2697770000
    3      C       0.8142950000    -5.7914520000     0.1455430000
    4      C      -1.8135190000    -4.8037860000    -0.3183770000
    5      H      -2.4039410000    -6.8215180000    -0.4220580000
    6      C       0.5271400000    -4.3786380000     0.0941940000
    7      C      -0.7830720000    -3.8380320000    -0.1371910000
    8      C       1.5564030000    -3.4130620000     0.2751040000
    9      C      -1.0679320000    -2.4264730000    -0.1881160000
   10      C       1.2854200000    -2.0593480000     0.2267010000
   11      C       0.0000000000    -1.4782160000     0.0000000000
   12      H       2.1511470000    -1.3947830000     0.3789310000
   13      C       2.2345820000    -6.1879870000     0.3978450000
   14      C       2.9652730000    -3.7981640000     0.5236370000
   15      N       3.2047440000    -5.1700030000     0.5675860000
   16      C      -3.2262570000    -4.4249870000    -0.5674210000
   17      C      -2.4894460000    -2.0366270000    -0.4395410000
   18      N      -3.4598010000    -3.0491560000    -0.6096500000
   19      O       2.6194680000    -7.3531310000     0.4686080000
   20      O       3.8746680000    -2.9868540000     0.6830340000
   21      O      -4.1248060000    -5.2489460000    -0.7251310000
   22      O      -2.8958190000    -0.8788290000    -0.5126480000
   23      C       4.5956910000    -5.5637990000     0.8139080000
   24      H       4.6400220000    -6.6640850000     0.8228910000
   25      H       4.9348300000    -5.1471010000     1.7816000000
   26      H       5.2461570000    -5.1487850000     0.0203600000
   27      C      -4.8297160000    -2.5874870000    -0.8516490000
   28      H      -5.4627420000    -3.4833290000    -0.9621910000
   29      H      -4.8632420000    -1.9649720000    -1.7658650000
   30      H      -5.1735210000    -1.9629320000    -0.0053830000
   31      H      -0.0702080000    -7.8223180000    -0.0105550000
   32      C       0.0000000000     0.0000000000     0.0000000000
   33      S       0.2050930000     0.7661960000     1.5805300000
   34      C       0.6289390000     2.3481140000     0.9049110000
   35      C       0.2581370000     0.9640280000    -0.9854000000
   36      C       0.5997450000     2.2393090000    -0.4935280000
   37      H       0.1971690000     0.7364040000    -2.0599340000
   38      H       0.8276780000     3.0902430000    -1.1525930000
   39      H       0.8567960000     3.1988080000     1.5560250000
 ----------------------------------------------------------------

   10   -1570.6881586240      7.01e-07  Convergence criterion met
 Total energy in the final basis set =    -1570.6881586240
        RIMP2         total energy =     -1575.3119994159 a.u.

                    Orbital Energies (a.u.)
 --------------------------------------------------------------

 Alpha MOs
 -- Occupied --
-91.9927 -20.5588 -20.5579 -20.5563 -20.5559 -15.6316 -15.6315 -11.4005
-11.3979 -11.3935 -11.3908 -11.3164 -11.3079 -11.3033 -11.3014 -11.2999
-11.2994 -11.2940 -11.2875 -11.2865 -11.2813 -11.2810 -11.2796 -11.2649
-11.2647 -11.2555 -11.2506  -8.9920  -6.6728  -6.6723  -6.6717  -1.4252
 -1.4249  -1.4044  -1.4040  -1.2681  -1.2658  -1.2186  -1.1760  -1.1446
 -1.1185  -1.0639  -1.0509  -0.9936  -0.9902  -0.9835  -0.9597  -0.9486
 -0.8980  -0.8800  -0.8786  -0.8613  -0.7963  -0.7781  -0.7735  -0.7597
 -0.7379  -0.7192  -0.7056  -0.6955  -0.6815  -0.6737  -0.6669  -0.6627
 -0.6575  -0.6428  -0.6383  -0.6346  -0.6308  -0.6131  -0.5858  -0.5849
 -0.5785  -0.5733  -0.5669  -0.5645  -0.5618  -0.5555  -0.5532  -0.5488
 -0.5361  -0.5272  -0.5214  -0.5146  -0.4841  -0.4713  -0.4674  -0.4616
 -0.4610  -0.4541  -0.4287  -0.4185  -0.4092  -0.3601  -0.3475  -0.3345
 -0.3234

          Ground-State Mulliken Net Atomic Charges

     Atom                 Charge (a.u.)
  ----------------------------------------
      1 C                    -0.129051
      2 C                    -0.108666
      3 C                    -0.044315
      4 C                     0.000351
      5 H                     0.189034
      6 C                     0.001222
      7 C                     0.072580
      8 C                     0.000197
      9 C                    -0.007271
     10 C                    -0.098160
     11 C                     0.015774
     12 H                     0.188762
     13 C                     0.361007
     14 C                     0.365079
     15 N                    -0.101839
     16 C                     0.360281
     17 C                     0.351535
     18 N                    -0.098743
     19 O                    -0.464797
     20 O                    -0.476172
     21 O                    -0.479186
     22 O                    -0.458032
     23 C                    -0.201053
     24 H                     0.141110
     25 H                     0.112562
     26 H                     0.112443
     27 C                    -0.195655
     28 H                     0.133738
     29 H                     0.113129
     30 H                     0.113762
     31 H                     0.214743
     32 C                    -0.006420
     33 S                     0.029945
     34 C                    -0.214151
     35 C                    -0.189747
     36 C                    -0.195223
     37 H                     0.188221
     38 H                     0.192025
     39 H                     0.210984
  ----------------------------------------
  Sum of atomic charges =     0.000000

                    Cartesian Multipole Moments
 -----------------------------------------------------------------
    Charge (ESU x 10^10)
                 0.0000
    Dipole Moment (Debye)
         X       0.4798      Y       0.6636      Z      -0.9522
       Tot       1.2559
    Quadrupole Moments (Debye-Ang)
        XX    -182.8965     XY       4.0470     YY    -164.3368
        XZ      -3.2941     YZ       0.9533     ZZ    -158.0903

 Total job time:  265.86s(wall), 7675.30s(cpu)
        *  Thank you very much for using Q-Chem.  Have a nice day.  *
