 Q-Chem 5.4, Q-Chem, Inc., Pleasanton, CA (2021)
 Q-Chem 5.4.0 for Intel X86 EM64T Linux

User input:
--------------------------------------------------------------
$molecule
0 1
C	0.195868	-6.741404	-0.166281
C	1.196048	-6.155638	-1.005696
C	-0.634911	-5.791452	0.530233
C	1.409599	-4.803786	-1.184587
H	1.868538	-6.821518	-1.570232
C	-0.410996	-4.378638	0.343266
C	0.608444	-3.838032	-0.511683
C	-1.211179	-3.413062	1.015440
C	0.830559	-2.426473	-0.697165
C	-0.999915	-2.059348	0.838968
C	0.000000	-1.478216	0.000000
H	-1.673009	-1.394783	1.404302
C	-1.741129	-6.187987	1.456059
C	-2.307170	-3.798164	1.934944
N	-2.494766	-5.170003	2.090139
C	2.508468	-4.424987	-2.106725
C	1.936893	-2.036627	-1.624494
N	2.690936	-3.049156	-2.258486
O	-2.042736	-7.353131	1.705414
O	-3.013823	-2.986854	2.529122
O	3.206857	-5.248946	-2.693680
O	2.254108	-0.878829	-1.888802
C	-3.577543	-5.563799	2.997334
H	-3.612920	-6.664085	3.025519
H	-4.536833	-5.147101	2.635109
H	-3.387762	-5.148785	4.005702
C	3.756883	-2.587487	-3.152347
H	4.248464	-3.483329	-3.566218
H	4.478763	-1.964972	-2.590383
H	3.329599	-1.962932	-3.959687
H	0.053215	-7.822318	-0.046998
C	0.000000	0.000000	0.000000
S	0.137535	0.781156	1.580530
C	0.421895	2.393994	0.904911
C	0.173134	0.982857	-0.985400
C	0.402294	2.283058	-0.493528
H	0.132237	0.750786	-2.059934
H	0.555196	3.150621	-1.152593
H	0.574741	3.261310	1.556025
$end

$rem
JOBTYPE		SP
EXCHANGE	HF
CORRELATION	pRIMP2
BASIS		cc-pvtz
METHOD		rimp2
AUX_BASIS	rimp2-cc-pvtz
SOLVENT_METHOD	PCM
PURECART	11111
SYMMETRY	false
MEM_TOTAL	110000
SCF_CONVERGENCE = 6
THRESH=10
GUI = 2
$end

$solvent
dielectric 4.90
$end
--------------------------------------------------------------

             Standard Nuclear Orientation (Angstroms)
    I     Atom           X                Y                Z
 ----------------------------------------------------------------
    1      C       0.1958680000    -6.7414040000    -0.1662810000
    2      C       1.1960480000    -6.1556380000    -1.0056960000
    3      C      -0.6349110000    -5.7914520000     0.5302330000
    4      C       1.4095990000    -4.8037860000    -1.1845870000
    5      H       1.8685380000    -6.8215180000    -1.5702320000
    6      C      -0.4109960000    -4.3786380000     0.3432660000
    7      C       0.6084440000    -3.8380320000    -0.5116830000
    8      C      -1.2111790000    -3.4130620000     1.0154400000
    9      C       0.8305590000    -2.4264730000    -0.6971650000
   10      C      -0.9999150000    -2.0593480000     0.8389680000
   11      C       0.0000000000    -1.4782160000     0.0000000000
   12      H      -1.6730090000    -1.3947830000     1.4043020000
   13      C      -1.7411290000    -6.1879870000     1.4560590000
   14      C      -2.3071700000    -3.7981640000     1.9349440000
   15      N      -2.4947660000    -5.1700030000     2.0901390000
   16      C       2.5084680000    -4.4249870000    -2.1067250000
   17      C       1.9368930000    -2.0366270000    -1.6244940000
   18      N       2.6909360000    -3.0491560000    -2.2584860000
   19      O      -2.0427360000    -7.3531310000     1.7054140000
   20      O      -3.0138230000    -2.9868540000     2.5291220000
   21      O       3.2068570000    -5.2489460000    -2.6936800000
   22      O       2.2541080000    -0.8788290000    -1.8888020000
   23      C      -3.5775430000    -5.5637990000     2.9973340000
   24      H      -3.6129200000    -6.6640850000     3.0255190000
   25      H      -4.5368330000    -5.1471010000     2.6351090000
   26      H      -3.3877620000    -5.1487850000     4.0057020000
   27      C       3.7568830000    -2.5874870000    -3.1523470000
   28      H       4.2484640000    -3.4833290000    -3.5662180000
   29      H       4.4787630000    -1.9649720000    -2.5903830000
   30      H       3.3295990000    -1.9629320000    -3.9596870000
   31      H       0.0532150000    -7.8223180000    -0.0469980000
   32      C       0.0000000000     0.0000000000     0.0000000000
   33      S       0.1375350000     0.7811560000     1.5805300000
   34      C       0.4218950000     2.3939940000     0.9049110000
   35      C       0.1731340000     0.9828570000    -0.9854000000
   36      C       0.4022940000     2.2830580000    -0.4935280000
   37      H       0.1322370000     0.7507860000    -2.0599340000
   38      H       0.5551960000     3.1506210000    -1.1525930000
   39      H       0.5747410000     3.2613100000     1.5560250000
 ----------------------------------------------------------------

   10   -1570.6894465894      7.32e-07  Convergence criterion met
 Total energy in the final basis set =    -1570.6894465894
        RIMP2         total energy =     -1575.3147450847 a.u.

                    Orbital Energies (a.u.)
 --------------------------------------------------------------

 Alpha MOs
 -- Occupied --
-91.9939 -20.5586 -20.5562 -20.5547 -20.5544 -15.6312 -15.6304 -11.4001
-11.3958 -11.3923 -11.3906 -11.3167 -11.3038 -11.3027 -11.3007 -11.2979
-11.2972 -11.2891 -11.2866 -11.2858 -11.2856 -11.2802 -11.2780 -11.2646
-11.2645 -11.2568 -11.2505  -8.9932  -6.6740  -6.6735  -6.6729  -1.4249
 -1.4235  -1.4042  -1.4026  -1.2674  -1.2649  -1.2174  -1.1754  -1.1443
 -1.1172  -1.0633  -1.0498  -0.9928  -0.9896  -0.9842  -0.9590  -0.9483
 -0.8969  -0.8794  -0.8776  -0.8612  -0.7958  -0.7775  -0.7727  -0.7604
 -0.7372  -0.7176  -0.7050  -0.6947  -0.6806  -0.6727  -0.6663  -0.6621
 -0.6565  -0.6421  -0.6370  -0.6332  -0.6293  -0.6125  -0.5866  -0.5842
 -0.5779  -0.5737  -0.5655  -0.5633  -0.5606  -0.5553  -0.5519  -0.5483
 -0.5364  -0.5259  -0.5208  -0.5189  -0.4832  -0.4705  -0.4659  -0.4629
 -0.4599  -0.4532  -0.4282  -0.4181  -0.4089  -0.3660  -0.3528  -0.3361
 -0.3084

          Ground-State Mulliken Net Atomic Charges

     Atom                 Charge (a.u.)
  ----------------------------------------
      1 C                    -0.136158
      2 C                    -0.107748
      3 C                    -0.040660
      4 C                    -0.004152
      5 H                     0.188634
      6 C                    -0.009293
      7 C                     0.078465
      8 C                     0.017633
      9 C                    -0.025877
     10 C                    -0.179485
     11 C                     0.120577
     12 H                     0.182095
     13 C                     0.361048
     14 C                     0.368806
     15 N                    -0.101527
     16 C                     0.360022
     17 C                     0.358059
     18 N                    -0.093618
     19 O                    -0.464599
     20 O                    -0.475967
     21 O                    -0.481267
     22 O                    -0.460960
     23 C                    -0.200926
     24 H                     0.141019
     25 H                     0.112379
     26 H                     0.112516
     27 C                    -0.196457
     28 H                     0.133864
     29 H                     0.113318
     30 H                     0.112077
     31 H                     0.213876
     32 C                    -0.076348
     33 S                     0.034909
     34 C                    -0.203870
     35 C                    -0.134833
     36 C                    -0.206912
     37 H                     0.186767
     38 H                     0.191103
     39 H                     0.213491
  ----------------------------------------
  Sum of atomic charges =     0.000000

                    Cartesian Multipole Moments
 -----------------------------------------------------------------
    Charge (ESU x 10^10)
                 0.0000
    Dipole Moment (Debye)
         X       0.3819      Y       1.4269      Z      -0.9897
       Tot       1.7780
    Quadrupole Moments (Debye-Ang)
        XX    -175.9048     XY       1.6452     YY    -165.7123
        XZ      10.3128     YZ       1.0342     ZZ    -165.9765

 Total job time:  265.73s(wall), 7716.18s(cpu)
        *  Thank you very much for using Q-Chem.  Have a nice day.  *
