 Q-Chem 5.4, Q-Chem, Inc., Pleasanton, CA (2021)
 Q-Chem 5.4.0 for Intel X86 EM64T Linux

User input:
--------------------------------------------------------------
$molecule
0 1
C	0.129743	-6.741404	0.221766
C	0.782726	-6.155638	1.352515
C	-0.411926	-5.791452	-0.717339
C	0.921816	-4.803786	1.593885
H	1.221908	-6.821518	2.112819
C	-0.266682	-4.378638	-0.464360
C	0.398255	-3.838032	0.688053
C	-0.789694	-3.413062	-1.369108
C	0.542349	-2.426473	0.939002
C	-0.652589	-2.059348	-1.130409
C	-0.000000	-1.478216	-0.000000
H	-1.092453	-1.394783	-1.891446
C	-1.131595	-6.187987	-1.967519
C	-1.504912	-3.798164	-2.608118
N	-1.625174	-5.170003	-2.819813
C	1.639129	-4.424987	2.836188
C	1.263477	-2.036627	2.189558
N	1.756898	-3.049156	3.042237
O	-1.324787	-7.353131	-2.307845
O	-1.967354	-2.986854	-3.407213
O	2.095892	-5.248946	3.625890
O	1.468685	-0.878829	2.547850
C	-2.330564	-5.563799	-4.043674
H	-2.352178	-6.664085	-4.083407
H	-1.807263	-5.147101	-4.925490
H	-3.356568	-5.148785	-4.031877
C	2.452080	-2.587487	4.247206
H	2.774302	-3.483329	4.803187
H	1.773301	-1.964972	4.860536
H	3.321351	-1.962932	3.966607
H	0.037043	-7.822318	0.060567
C	0.000000	0.000000	0.000000
S	0.271091	0.745405	1.580530
C	0.831198	2.284363	0.904911
C	0.341175	0.937861	-0.985400
C	0.792631	2.178516	-0.493528
H	0.260601	0.716417	-2.059934
H	1.093860	3.006347	-1.152593
H	1.132330	3.111961	1.556025
$end

$rem
JOBTYPE		SP
EXCHANGE	HF
CORRELATION	pRIMP2
BASIS		cc-pvtz
METHOD		rimp2
AUX_BASIS	rimp2-cc-pvtz
SOLVENT_METHOD	PCM
PURECART	11111
SYMMETRY	false
MEM_TOTAL	110000
SCF_CONVERGENCE = 6
THRESH=10
GUI = 2
$end

$solvent
dielectric 4.90
$end
--------------------------------------------------------------

             Standard Nuclear Orientation (Angstroms)
    I     Atom           X                Y                Z
 ----------------------------------------------------------------
    1      C       0.1297430000    -6.7414040000     0.2217660000
    2      C       0.7827260000    -6.1556380000     1.3525150000
    3      C      -0.4119260000    -5.7914520000    -0.7173390000
    4      C       0.9218160000    -4.8037860000     1.5938850000
    5      H       1.2219080000    -6.8215180000     2.1128190000
    6      C      -0.2666820000    -4.3786380000    -0.4643600000
    7      C       0.3982550000    -3.8380320000     0.6880530000
    8      C      -0.7896940000    -3.4130620000    -1.3691080000
    9      C       0.5423490000    -2.4264730000     0.9390020000
   10      C      -0.6525890000    -2.0593480000    -1.1304090000
   11      C       0.0000000000    -1.4782160000     0.0000000000
   12      H      -1.0924530000    -1.3947830000    -1.8914460000
   13      C      -1.1315950000    -6.1879870000    -1.9675190000
   14      C      -1.5049120000    -3.7981640000    -2.6081180000
   15      N      -1.6251740000    -5.1700030000    -2.8198130000
   16      C       1.6391290000    -4.4249870000     2.8361880000
   17      C       1.2634770000    -2.0366270000     2.1895580000
   18      N       1.7568980000    -3.0491560000     3.0422370000
   19      O      -1.3247870000    -7.3531310000    -2.3078450000
   20      O      -1.9673540000    -2.9868540000    -3.4072130000
   21      O       2.0958920000    -5.2489460000     3.6258900000
   22      O       1.4686850000    -0.8788290000     2.5478500000
   23      C      -2.3305640000    -5.5637990000    -4.0436740000
   24      H      -2.3521780000    -6.6640850000    -4.0834070000
   25      H      -1.8072630000    -5.1471010000    -4.9254900000
   26      H      -3.3565680000    -5.1487850000    -4.0318770000
   27      C       2.4520800000    -2.5874870000     4.2472060000
   28      H       2.7743020000    -3.4833290000     4.8031870000
   29      H       1.7733010000    -1.9649720000     4.8605360000
   30      H       3.3213510000    -1.9629320000     3.9666070000
   31      H       0.0370430000    -7.8223180000     0.0605670000
   32      C       0.0000000000     0.0000000000     0.0000000000
   33      S       0.2710910000     0.7454050000     1.5805300000
   34      C       0.8311980000     2.2843630000     0.9049110000
   35      C       0.3411750000     0.9378610000    -0.9854000000
   36      C       0.7926310000     2.1785160000    -0.4935280000
   37      H       0.2606010000     0.7164170000    -2.0599340000
   38      H       1.0938600000     3.0063470000    -1.1525930000
   39      H       1.1323300000     3.1119610000     1.5560250000
 ----------------------------------------------------------------

   10   -1570.6376419649      9.20e-07  Convergence criterion met
 Total energy in the final basis set =    -1570.6376419649
        RIMP2         total energy =     -1575.2794616231 a.u.

                    Orbital Energies (a.u.)
 --------------------------------------------------------------

 Alpha MOs
 -- Occupied --
-91.9813 -20.5588 -20.5566 -20.5544 -20.5530 -15.6317 -15.6313 -11.4000
-11.3992 -11.3919 -11.3908 -11.3195 -11.3024 -11.3010 -11.2993 -11.2953
-11.2942 -11.2869 -11.2836 -11.2830 -11.2794 -11.2791 -11.2769 -11.2653
-11.2647 -11.2579 -11.2396  -8.9814  -6.6616  -6.6608  -6.6601  -1.4300
 -1.4250  -1.4067  -1.4044  -1.2689  -1.2663  -1.2167  -1.1715  -1.1420
 -1.1165  -1.0611  -1.0493  -0.9930  -0.9882  -0.9805  -0.9593  -0.9468
 -0.8969  -0.8800  -0.8768  -0.8627  -0.7926  -0.7776  -0.7758  -0.7583
 -0.7321  -0.7235  -0.7028  -0.6924  -0.6877  -0.6736  -0.6672  -0.6629
 -0.6571  -0.6404  -0.6395  -0.6364  -0.6279  -0.6138  -0.5843  -0.5819
 -0.5793  -0.5726  -0.5686  -0.5648  -0.5634  -0.5561  -0.5555  -0.5490
 -0.5340  -0.5239  -0.5217  -0.5172  -0.4847  -0.4710  -0.4659  -0.4635
 -0.4568  -0.4357  -0.4235  -0.4153  -0.4090  -0.3713  -0.3369  -0.3175
 -0.2983

          Ground-State Mulliken Net Atomic Charges

     Atom                 Charge (a.u.)
  ----------------------------------------
      1 C                    -0.145625
      2 C                    -0.108727
      3 C                    -0.033482
      4 C                    -0.006171
      5 H                     0.188127
      6 C                    -0.007113
      7 C                     0.084495
      8 C                     0.005252
      9 C                    -0.093830
     10 C                    -0.155029
     11 C                     0.099925
     12 H                     0.182653
     13 C                     0.360578
     14 C                     0.365602
     15 N                    -0.101460
     16 C                     0.359276
     17 C                     0.411661
     18 N                    -0.094621
     19 O                    -0.464055
     20 O                    -0.476162
     21 O                    -0.481782
     22 O                    -0.450996
     23 C                    -0.201046
     24 H                     0.141142
     25 H                     0.112235
     26 H                     0.112487
     27 C                    -0.197997
     28 H                     0.134759
     29 H                     0.113231
     30 H                     0.113184
     31 H                     0.212615
     32 C                    -0.072191
     33 S                     0.096446
     34 C                    -0.195053
     35 C                    -0.142753
     36 C                    -0.250548
     37 H                     0.190145
     38 H                     0.185948
     39 H                     0.208880
  ----------------------------------------
  Sum of atomic charges =     0.000000

                    Cartesian Multipole Moments
 -----------------------------------------------------------------
    Charge (ESU x 10^10)
                 0.0000
    Dipole Moment (Debye)
         X       1.1308      Y       1.0722      Z       0.0817
       Tot       1.5604
    Quadrupole Moments (Debye-Ang)
        XX    -167.5956     XY       3.4188     YY    -171.1186
        XZ      -7.1774     YZ       0.6594     ZZ    -171.0184

 Total job time:  268.60s(wall), 8128.82s(cpu)
        *  Thank you very much for using Q-Chem.  Have a nice day.  *
