 Q-Chem 5.4, Q-Chem, Inc., Pleasanton, CA (2021)
 Q-Chem 5.4.0 for Intel X86 EM64T Linux

User input:
--------------------------------------------------------------
$molecule
0 1
C	0.241938	-6.741404	0.086486
C	1.468983	-6.155638	0.532960
C	-0.776651	-5.791452	-0.284733
C	1.730681	-4.803786	0.628455
H	2.294130	-6.821518	0.833086
C	-0.502775	-4.378638	-0.184300
C	0.747353	-3.838032	0.271086
C	-1.484986	-3.413062	-0.541191
C	1.019042	-2.426473	0.370703
C	-1.226525	-2.059348	-0.446468
C	-0.000000	-1.478216	-0.000000
H	-2.052666	-1.394783	-0.746717
C	-2.131549	-6.187987	-0.779832
C	-2.829295	-3.798164	-1.030596
N	-3.057496	-5.170003	-1.115461
C	3.078712	-4.424987	1.119034
C	2.375300	-2.036627	0.865151
N	3.301374	-3.049156	1.201176
O	-2.498300	-7.353131	-0.916355
O	-3.697195	-2.986854	-1.345486
O	3.936224	-5.248946	1.430379
O	2.762805	-0.878829	1.007714
C	-4.384539	-5.563799	-1.599576
H	-4.426636	-6.664085	-1.616121
H	-4.550487	-5.147101	-2.611458
H	-5.162921	-5.148785	-0.931037
C	4.608454	-2.587487	1.677382
H	5.212668	-3.483329	1.896168
H	4.482719	-1.964972	2.583531
H	5.093988	-1.962932	0.903674
H	0.067309	-7.822318	0.022586
C	0.000000	0.000000	0.000000
S	0.335026	0.718942	1.580530
C	1.027130	2.203226	0.904911
C	0.421617	0.904557	-0.985400
C	0.979485	2.101144	-0.493528
H	0.322049	0.690978	-2.059934
H	1.351718	2.899571	-1.152593
H	1.399246	3.001430	1.556025
$end

$rem
JOBTYPE		SP
EXCHANGE	HF
CORRELATION	pRIMP2
BASIS		cc-pvtz
METHOD		rimp2
AUX_BASIS	rimp2-cc-pvtz
SOLVENT_METHOD	PCM
PURECART	11111
SYMMETRY	false
MEM_TOTAL	110000
SCF_CONVERGENCE = 6
THRESH=10
GUI = 2
$end

$solvent
dielectric 4.90
$end
--------------------------------------------------------------

             Standard Nuclear Orientation (Angstroms)
    I     Atom           X                Y                Z
 ----------------------------------------------------------------
    1      C       0.2419380000    -6.7414040000     0.0864860000
    2      C       1.4689830000    -6.1556380000     0.5329600000
    3      C      -0.7766510000    -5.7914520000    -0.2847330000
    4      C       1.7306810000    -4.8037860000     0.6284550000
    5      H       2.2941300000    -6.8215180000     0.8330860000
    6      C      -0.5027750000    -4.3786380000    -0.1843000000
    7      C       0.7473530000    -3.8380320000     0.2710860000
    8      C      -1.4849860000    -3.4130620000    -0.5411910000
    9      C       1.0190420000    -2.4264730000     0.3707030000
   10      C      -1.2265250000    -2.0593480000    -0.4464680000
   11      C       0.0000000000    -1.4782160000     0.0000000000
   12      H      -2.0526660000    -1.3947830000    -0.7467170000
   13      C      -2.1315490000    -6.1879870000    -0.7798320000
   14      C      -2.8292950000    -3.7981640000    -1.0305960000
   15      N      -3.0574960000    -5.1700030000    -1.1154610000
   16      C       3.0787120000    -4.4249870000     1.1190340000
   17      C       2.3753000000    -2.0366270000     0.8651510000
   18      N       3.3013740000    -3.0491560000     1.2011760000
   19      O      -2.4983000000    -7.3531310000    -0.9163550000
   20      O      -3.6971950000    -2.9868540000    -1.3454860000
   21      O       3.9362240000    -5.2489460000     1.4303790000
   22      O       2.7628050000    -0.8788290000     1.0077140000
   23      C      -4.3845390000    -5.5637990000    -1.5995760000
   24      H      -4.4266360000    -6.6640850000    -1.6161210000
   25      H      -4.5504870000    -5.1471010000    -2.6114580000
   26      H      -5.1629210000    -5.1487850000    -0.9310370000
   27      C       4.6084540000    -2.5874870000     1.6773820000
   28      H       5.2126680000    -3.4833290000     1.8961680000
   29      H       4.4827190000    -1.9649720000     2.5835310000
   30      H       5.0939880000    -1.9629320000     0.9036740000
   31      H       0.0673090000    -7.8223180000     0.0225860000
   32      C       0.0000000000     0.0000000000     0.0000000000
   33      S       0.3350260000     0.7189420000     1.5805300000
   34      C       1.0271300000     2.2032260000     0.9049110000
   35      C       0.4216170000     0.9045570000    -0.9854000000
   36      C       0.9794850000     2.1011440000    -0.4935280000
   37      H       0.3220490000     0.6909780000    -2.0599340000
   38      H       1.3517180000     2.8995710000    -1.1525930000
   39      H       1.3992460000     3.0014300000     1.5560250000
 ----------------------------------------------------------------

   10   -1570.6745678761      7.71e-07  Convergence criterion met
 Total energy in the final basis set =    -1570.6745678761
        RIMP2         total energy =     -1575.3040151913 a.u.

                    Orbital Energies (a.u.)
 --------------------------------------------------------------

 Alpha MOs
 -- Occupied --
-91.9856 -20.5585 -20.5559 -20.5546 -20.5542 -15.6310 -15.6299 -11.4000
-11.3946 -11.3922 -11.3901 -11.3146 -11.3054 -11.3026 -11.3007 -11.2983
-11.2980 -11.2862 -11.2850 -11.2847 -11.2846 -11.2803 -11.2758 -11.2645
-11.2643 -11.2602 -11.2485  -8.9852  -6.6660  -6.6654  -6.6649  -1.4247
 -1.4232  -1.4040  -1.4023  -1.2672  -1.2646  -1.2172  -1.1739  -1.1434
 -1.1171  -1.0621  -1.0495  -0.9927  -0.9883  -0.9820  -0.9589  -0.9484
 -0.8963  -0.8794  -0.8759  -0.8611  -0.7936  -0.7766  -0.7731  -0.7595
 -0.7351  -0.7187  -0.7049  -0.6946  -0.6802  -0.6723  -0.6660  -0.6618
 -0.6567  -0.6421  -0.6371  -0.6340  -0.6294  -0.6122  -0.5851  -0.5838
 -0.5770  -0.5723  -0.5663  -0.5639  -0.5623  -0.5550  -0.5528  -0.5482
 -0.5364  -0.5260  -0.5205  -0.5081  -0.4819  -0.4700  -0.4644  -0.4591
 -0.4563  -0.4509  -0.4276  -0.4180  -0.4087  -0.3564  -0.3452  -0.3341
 -0.3194

          Ground-State Mulliken Net Atomic Charges

     Atom                 Charge (a.u.)
  ----------------------------------------
      1 C                    -0.132207
      2 C                    -0.108175
      3 C                    -0.042725
      4 C                    -0.001101
      5 H                     0.188653
      6 C                    -0.006774
      7 C                     0.068740
      8 C                     0.014940
      9 C                    -0.000720
     10 C                    -0.149619
     11 C                     0.071757
     12 H                     0.179769
     13 C                     0.360972
     14 C                     0.366926
     15 N                    -0.101694
     16 C                     0.357808
     17 C                     0.369020
     18 N                    -0.094905
     19 O                    -0.465008
     20 O                    -0.476265
     21 O                    -0.481129
     22 O                    -0.455798
     23 C                    -0.201040
     24 H                     0.140970
     25 H                     0.112190
     26 H                     0.112541
     27 C                    -0.196428
     28 H                     0.133604
     29 H                     0.112670
     30 H                     0.112760
     31 H                     0.214242
     32 C                    -0.060925
     33 S                     0.037010
     34 C                    -0.189312
     35 C                    -0.176432
     36 C                    -0.205468
     37 H                     0.189624
     38 H                     0.190962
     39 H                     0.210568
  ----------------------------------------
  Sum of atomic charges =     0.000000

                    Cartesian Multipole Moments
 -----------------------------------------------------------------
    Charge (ESU x 10^10)
                 0.0000
    Dipole Moment (Debye)
         X       1.2174      Y       1.0250      Z      -0.8249
       Tot       1.7925
    Quadrupole Moments (Debye-Ang)
        XX    -180.2171     XY       3.8441     YY    -167.4297
        XZ      -5.8501     YZ       0.3046     ZZ    -159.7849

 Total job time:  269.55s(wall), 8196.73s(cpu)
        *  Thank you very much for using Q-Chem.  Have a nice day.  *
