 Q-Chem 5.4, Q-Chem, Inc., Pleasanton, CA (2021)
 Q-Chem 5.4.0 for Intel X86 EM64T Linux

User input:
--------------------------------------------------------------
$molecule
0 1
C	0.221766	-6.741404	-0.129743
C	1.352515	-6.155638	-0.782726
C	-0.717339	-5.791452	0.411926
C	1.593885	-4.803786	-0.921816
H	2.112819	-6.821518	-1.221908
C	-0.464360	-4.378638	0.266682
C	0.688053	-3.838032	-0.398255
C	-1.369108	-3.413062	0.789694
C	0.939002	-2.426473	-0.542349
C	-1.130409	-2.059348	0.652589
C	0.000000	-1.478216	0.000000
H	-1.891446	-1.394783	1.092453
C	-1.967519	-6.187987	1.131595
C	-2.608118	-3.798164	1.504912
N	-2.819813	-5.170003	1.625174
C	2.836188	-4.424987	-1.639129
C	2.189558	-2.036627	-1.263477
N	3.042237	-3.049156	-1.756898
O	-2.307845	-7.353131	1.324787
O	-3.407213	-2.986854	1.967354
O	3.625890	-5.248946	-2.095892
O	2.547850	-0.878829	-1.468685
C	-4.043674	-5.563799	2.330564
H	-4.083407	-6.664085	2.352178
H	-4.925490	-5.147101	1.807263
H	-4.031877	-5.148785	3.356568
C	4.247206	-2.587487	-2.452080
H	4.803187	-3.483329	-2.774302
H	4.860536	-1.964972	-1.773301
H	3.966607	-1.962932	-3.321351
H	0.060567	-7.822318	-0.037043
C	0.000000	0.000000	0.000000
S	0.137535	0.781156	1.580530
C	0.421895	2.393994	0.904911
C	0.173134	0.982857	-0.985400
C	0.402294	2.283058	-0.493528
H	0.132237	0.750786	-2.059934
H	0.555196	3.150621	-1.152593
H	0.574741	3.261310	1.556025
$end

$rem
JOBTYPE		SP
EXCHANGE	HF
CORRELATION	pRIMP2
BASIS		cc-pvtz
METHOD		rimp2
AUX_BASIS	rimp2-cc-pvtz
SOLVENT_METHOD	PCM
PURECART	11111
SYMMETRY	false
MEM_TOTAL	110000
SCF_CONVERGENCE = 6
THRESH=10
GUI = 2
$end

$solvent
dielectric 4.90
$end
--------------------------------------------------------------

             Standard Nuclear Orientation (Angstroms)
    I     Atom           X                Y                Z
 ----------------------------------------------------------------
    1      C       0.2217660000    -6.7414040000    -0.1297430000
    2      C       1.3525150000    -6.1556380000    -0.7827260000
    3      C      -0.7173390000    -5.7914520000     0.4119260000
    4      C       1.5938850000    -4.8037860000    -0.9218160000
    5      H       2.1128190000    -6.8215180000    -1.2219080000
    6      C      -0.4643600000    -4.3786380000     0.2666820000
    7      C       0.6880530000    -3.8380320000    -0.3982550000
    8      C      -1.3691080000    -3.4130620000     0.7896940000
    9      C       0.9390020000    -2.4264730000    -0.5423490000
   10      C      -1.1304090000    -2.0593480000     0.6525890000
   11      C       0.0000000000    -1.4782160000     0.0000000000
   12      H      -1.8914460000    -1.3947830000     1.0924530000
   13      C      -1.9675190000    -6.1879870000     1.1315950000
   14      C      -2.6081180000    -3.7981640000     1.5049120000
   15      N      -2.8198130000    -5.1700030000     1.6251740000
   16      C       2.8361880000    -4.4249870000    -1.6391290000
   17      C       2.1895580000    -2.0366270000    -1.2634770000
   18      N       3.0422370000    -3.0491560000    -1.7568980000
   19      O      -2.3078450000    -7.3531310000     1.3247870000
   20      O      -3.4072130000    -2.9868540000     1.9673540000
   21      O       3.6258900000    -5.2489460000    -2.0958920000
   22      O       2.5478500000    -0.8788290000    -1.4686850000
   23      C      -4.0436740000    -5.5637990000     2.3305640000
   24      H      -4.0834070000    -6.6640850000     2.3521780000
   25      H      -4.9254900000    -5.1471010000     1.8072630000
   26      H      -4.0318770000    -5.1487850000     3.3565680000
   27      C       4.2472060000    -2.5874870000    -2.4520800000
   28      H       4.8031870000    -3.4833290000    -2.7743020000
   29      H       4.8605360000    -1.9649720000    -1.7733010000
   30      H       3.9666070000    -1.9629320000    -3.3213510000
   31      H       0.0605670000    -7.8223180000    -0.0370430000
   32      C       0.0000000000     0.0000000000     0.0000000000
   33      S       0.1375350000     0.7811560000     1.5805300000
   34      C       0.4218950000     2.3939940000     0.9049110000
   35      C       0.1731340000     0.9828570000    -0.9854000000
   36      C       0.4022940000     2.2830580000    -0.4935280000
   37      H       0.1322370000     0.7507860000    -2.0599340000
   38      H       0.5551960000     3.1506210000    -1.1525930000
   39      H       0.5747410000     3.2613100000     1.5560250000
 ----------------------------------------------------------------

   10   -1570.6890993267      7.26e-07  Convergence criterion met
 Total energy in the final basis set =    -1570.6890993267
        RIMP2         total energy =     -1575.3138229931 a.u.

                    Orbital Energies (a.u.)
 --------------------------------------------------------------

 Alpha MOs
 -- Occupied --
-91.9936 -20.5586 -20.5562 -20.5551 -20.5551 -15.6312 -15.6307 -11.4002
-11.3962 -11.3926 -11.3906 -11.3160 -11.3055 -11.3029 -11.3010 -11.2987
-11.2981 -11.2895 -11.2863 -11.2863 -11.2840 -11.2806 -11.2781 -11.2647
-11.2645 -11.2558 -11.2502  -8.9927  -6.6735  -6.6731  -6.6725  -1.4249
 -1.4237  -1.4042  -1.4028  -1.2675  -1.2651  -1.2177  -1.1748  -1.1444
 -1.1176  -1.0633  -1.0501  -0.9930  -0.9894  -0.9834  -0.9592  -0.9485
 -0.8971  -0.8797  -0.8776  -0.8613  -0.7957  -0.7775  -0.7729  -0.7597
 -0.7376  -0.7178  -0.7052  -0.6950  -0.6805  -0.6726  -0.6664  -0.6622
 -0.6568  -0.6423  -0.6373  -0.6335  -0.6298  -0.6126  -0.5860  -0.5844
 -0.5779  -0.5734  -0.5657  -0.5638  -0.5606  -0.5552  -0.5521  -0.5485
 -0.5359  -0.5264  -0.5197  -0.5186  -0.4833  -0.4707  -0.4660  -0.4621
 -0.4600  -0.4534  -0.4282  -0.4182  -0.4089  -0.3613  -0.3530  -0.3356
 -0.3129

          Ground-State Mulliken Net Atomic Charges

     Atom                 Charge (a.u.)
  ----------------------------------------
      1 C                    -0.133382
      2 C                    -0.107489
      3 C                    -0.042009
      4 C                    -0.002629
      5 H                     0.188768
      6 C                    -0.009713
      7 C                     0.077386
      8 C                     0.013833
      9 C                    -0.014333
     10 C                    -0.166924
     11 C                     0.106204
     12 H                     0.183994
     13 C                     0.361144
     14 C                     0.369344
     15 N                    -0.101609
     16 C                     0.359876
     17 C                     0.357262
     18 N                    -0.094451
     19 O                    -0.464780
     20 O                    -0.476069
     21 O                    -0.480493
     22 O                    -0.458073
     23 C                    -0.200947
     24 H                     0.141017
     25 H                     0.112410
     26 H                     0.112571
     27 C                    -0.196284
     28 H                     0.133844
     29 H                     0.113476
     30 H                     0.112266
     31 H                     0.214187
     32 C                    -0.077182
     33 S                     0.034173
     34 C                    -0.205993
     35 C                    -0.143087
     36 C                    -0.205609
     37 H                     0.185919
     38 H                     0.190747
     39 H                     0.212635
  ----------------------------------------
  Sum of atomic charges =     0.000000

                    Cartesian Multipole Moments
 -----------------------------------------------------------------
    Charge (ESU x 10^10)
                 0.0000
    Dipole Moment (Debye)
         X       0.4152      Y       1.1407      Z      -1.0096
       Tot       1.5789
    Quadrupole Moments (Debye-Ang)
        XX    -179.1823     XY       1.3163     YY    -164.9590
        XZ       9.0021     YZ       1.0779     ZZ    -162.5977

 Total job time:  265.31s(wall), 8012.62s(cpu)
        *  Thank you very much for using Q-Chem.  Have a nice day.  *
