 Q-Chem 5.4, Q-Chem, Inc., Pleasanton, CA (2021)
 Q-Chem 5.4.0 for Intel X86 EM64T Linux

User input:
--------------------------------------------------------------
$molecule
0 1
C	-0.166281	-6.741404	-0.195868
C	-1.005696	-6.155638	-1.196048
C	0.530233	-5.791452	0.634911
C	-1.184587	-4.803786	-1.409599
H	-1.570232	-6.821518	-1.868538
C	0.343266	-4.378638	0.410996
C	-0.511683	-3.838032	-0.608444
C	1.015440	-3.413062	1.211179
C	-0.697165	-2.426473	-0.830559
C	0.838968	-2.059348	0.999915
C	0.000000	-1.478216	0.000000
H	1.404302	-1.394783	1.673009
C	1.456059	-6.187987	1.741129
C	1.934944	-3.798164	2.307170
N	2.090139	-5.170003	2.494766
C	-2.106725	-4.424987	-2.508468
C	-1.624494	-2.036627	-1.936893
N	-2.258486	-3.049156	-2.690936
O	1.705414	-7.353131	2.042736
O	2.529122	-2.986854	3.013823
O	-2.693680	-5.248946	-3.206857
O	-1.888802	-0.878829	-2.254108
C	2.997334	-5.563799	3.577543
H	3.025519	-6.664085	3.612920
H	2.635109	-5.147101	4.536833
H	4.005702	-5.148785	3.387762
C	-3.152347	-2.587487	-3.756883
H	-3.566218	-3.483329	-4.248464
H	-2.590383	-1.964972	-4.478763
H	-3.959687	-1.962932	-3.329599
H	-0.046998	-7.822318	-0.053215
C	0.000000	0.000000	0.000000
S	0.068929	0.790170	1.580530
C	0.211639	2.421655	0.904911
C	0.086813	0.994207	-0.985400
C	0.201782	2.309433	-0.493528
H	0.066299	0.759454	-2.059934
H	0.278488	3.187020	-1.152593
H	0.288312	3.298992	1.556025
$end

$rem
JOBTYPE		SP
EXCHANGE	HF
CORRELATION	pRIMP2
BASIS		cc-pvtz
METHOD		rimp2
AUX_BASIS	rimp2-cc-pvtz
SOLVENT_METHOD	PCM
PURECART	11111
SYMMETRY	false
MEM_TOTAL	110000
SCF_CONVERGENCE = 6
THRESH=10
GUI = 2
$end

$solvent
dielectric 4.90
$end
--------------------------------------------------------------

             Standard Nuclear Orientation (Angstroms)
    I     Atom           X                Y                Z
 ----------------------------------------------------------------
    1      C      -0.1662810000    -6.7414040000    -0.1958680000
    2      C      -1.0056960000    -6.1556380000    -1.1960480000
    3      C       0.5302330000    -5.7914520000     0.6349110000
    4      C      -1.1845870000    -4.8037860000    -1.4095990000
    5      H      -1.5702320000    -6.8215180000    -1.8685380000
    6      C       0.3432660000    -4.3786380000     0.4109960000
    7      C      -0.5116830000    -3.8380320000    -0.6084440000
    8      C       1.0154400000    -3.4130620000     1.2111790000
    9      C      -0.6971650000    -2.4264730000    -0.8305590000
   10      C       0.8389680000    -2.0593480000     0.9999150000
   11      C       0.0000000000    -1.4782160000     0.0000000000
   12      H       1.4043020000    -1.3947830000     1.6730090000
   13      C       1.4560590000    -6.1879870000     1.7411290000
   14      C       1.9349440000    -3.7981640000     2.3071700000
   15      N       2.0901390000    -5.1700030000     2.4947660000
   16      C      -2.1067250000    -4.4249870000    -2.5084680000
   17      C      -1.6244940000    -2.0366270000    -1.9368930000
   18      N      -2.2584860000    -3.0491560000    -2.6909360000
   19      O       1.7054140000    -7.3531310000     2.0427360000
   20      O       2.5291220000    -2.9868540000     3.0138230000
   21      O      -2.6936800000    -5.2489460000    -3.2068570000
   22      O      -1.8888020000    -0.8788290000    -2.2541080000
   23      C       2.9973340000    -5.5637990000     3.5775430000
   24      H       3.0255190000    -6.6640850000     3.6129200000
   25      H       2.6351090000    -5.1471010000     4.5368330000
   26      H       4.0057020000    -5.1487850000     3.3877620000
   27      C      -3.1523470000    -2.5874870000    -3.7568830000
   28      H      -3.5662180000    -3.4833290000    -4.2484640000
   29      H      -2.5903830000    -1.9649720000    -4.4787630000
   30      H      -3.9596870000    -1.9629320000    -3.3295990000
   31      H      -0.0469980000    -7.8223180000    -0.0532150000
   32      C       0.0000000000     0.0000000000     0.0000000000
   33      S       0.0689290000     0.7901700000     1.5805300000
   34      C       0.2116390000     2.4216550000     0.9049110000
   35      C       0.0868130000     0.9942070000    -0.9854000000
   36      C       0.2017820000     2.3094330000    -0.4935280000
   37      H       0.0662990000     0.7594540000    -2.0599340000
   38      H       0.2784880000     3.1870200000    -1.1525930000
   39      H       0.2883120000     3.2989920000     1.5560250000
 ----------------------------------------------------------------

   10   -1570.6915572463      7.12e-07  Convergence criterion met
 Total energy in the final basis set =    -1570.6915572463
        RIMP2         total energy =     -1575.3170871853 a.u.

                    Orbital Energies (a.u.)
 --------------------------------------------------------------

 Alpha MOs
 -- Occupied --
-91.9937 -20.5586 -20.5564 -20.5551 -20.5545 -15.6313 -15.6304 -11.4001
-11.3959 -11.3921 -11.3908 -11.3179 -11.3028 -11.3026 -11.3006 -11.2974
-11.2967 -11.2923 -11.2870 -11.2865 -11.2851 -11.2801 -11.2780 -11.2646
-11.2645 -11.2576 -11.2510  -8.9932  -6.6740  -6.6736  -6.6729  -1.4249
 -1.4237  -1.4043  -1.4027  -1.2674  -1.2650  -1.2175  -1.1766  -1.1444
 -1.1172  -1.0638  -1.0498  -0.9928  -0.9902  -0.9853  -0.9590  -0.9480
 -0.8972  -0.8793  -0.8783  -0.8611  -0.7964  -0.7784  -0.7729  -0.7611
 -0.7371  -0.7174  -0.7051  -0.6949  -0.6809  -0.6733  -0.6663  -0.6621
 -0.6565  -0.6420  -0.6370  -0.6330  -0.6292  -0.6128  -0.5875  -0.5842
 -0.5789  -0.5732  -0.5658  -0.5634  -0.5611  -0.5555  -0.5523  -0.5480
 -0.5383  -0.5263  -0.5219  -0.5168  -0.4834  -0.4696  -0.4671  -0.4638
 -0.4600  -0.4532  -0.4284  -0.4183  -0.4092  -0.3698  -0.3541  -0.3366
 -0.3057

          Ground-State Mulliken Net Atomic Charges

     Atom                 Charge (a.u.)
  ----------------------------------------
      1 C                    -0.137755
      2 C                    -0.108028
      3 C                    -0.038717
      4 C                    -0.004784
      5 H                     0.188726
      6 C                    -0.000790
      7 C                     0.073132
      8 C                     0.017869
      9 C                    -0.039074
     10 C                    -0.164985
     11 C                     0.098809
     12 H                     0.181246
     13 C                     0.360181
     14 C                     0.366078
     15 N                    -0.101675
     16 C                     0.359970
     17 C                     0.350508
     18 N                    -0.094239
     19 O                    -0.464457
     20 O                    -0.475879
     21 O                    -0.481682
     22 O                    -0.464027
     23 C                    -0.200987
     24 H                     0.141049
     25 H                     0.112491
     26 H                     0.112446
     27 C                    -0.196526
     28 H                     0.133877
     29 H                     0.112120
     30 H                     0.113313
     31 H                     0.213676
     32 C                    -0.046024
     33 S                     0.024819
     34 C                    -0.195220
     35 C                    -0.127621
     36 C                    -0.216619
     37 H                     0.192703
     38 H                     0.191586
     39 H                     0.214492
  ----------------------------------------
  Sum of atomic charges =     0.000000

                    Cartesian Multipole Moments
 -----------------------------------------------------------------
    Charge (ESU x 10^10)
                 0.0000
    Dipole Moment (Debye)
         X       0.2999      Y       1.5481      Z      -0.8782
       Tot       1.8050
    Quadrupole Moments (Debye-Ang)
        XX    -172.5510     XY       1.1402     YY    -165.7608
        XZ     -10.1520     YZ       1.0786     ZZ    -169.5670

 Total job time:  254.42s(wall), 7372.20s(cpu)
        *  Thank you very much for using Q-Chem.  Have a nice day.  *
