 Q-Chem 5.4, Q-Chem, Inc., Pleasanton, CA (2021)
 Q-Chem 5.4.0 for Intel X86 EM64T Linux

User input:
--------------------------------------------------------------
$molecule
0 1
C	0.089263	-6.741404	0.240927
C	0.535973	-6.155638	1.467886
C	-0.281103	-5.791452	-0.777972
C	0.631036	-4.803786	1.729742
H	0.836458	-6.821518	2.292903
C	-0.181995	-4.378638	-0.503614
C	0.272725	-3.838032	0.746756
C	-0.539954	-3.413062	-1.485437
C	0.371053	-2.426473	1.018915
C	-0.446381	-2.059348	-1.226557
C	-0.000000	-1.478216	-0.000000
H	-0.747410	-1.394783	-2.052413
C	-0.772747	-6.187987	-2.134128
C	-1.029154	-3.798164	-2.829820
N	-1.110828	-5.170003	-3.059182
C	1.121728	-4.424987	3.077731
C	0.864069	-2.036627	2.375694
N	1.201928	-3.049156	3.301101
O	-0.903908	-7.353131	-2.502830
O	-1.345809	-2.986854	-3.697078
O	1.434422	-5.248946	3.934752
O	1.003943	-0.878829	2.764177
C	-1.592981	-5.563799	-4.386939
H	-1.607367	-6.664085	-4.429822
H	-0.924504	-5.147101	-5.164489
H	-2.605446	-5.148785	-4.553486
C	1.677308	-2.587487	4.608481
H	1.898089	-3.483329	5.211969
H	0.902337	-1.964972	5.094624
H	2.582098	-1.962932	4.483092
H	0.025963	-7.822318	0.066080
C	0.000000	0.000000	0.000000
S	0.686805	0.396760	1.580530
C	2.105095	1.215640	0.904911
C	0.864201	0.499140	-0.985400
C	2.007514	1.159347	-0.493528
H	0.660136	0.381296	-2.059934
H	2.770388	1.599875	-1.152593
H	2.867745	1.656053	1.556025
$end

$rem
JOBTYPE		SP
EXCHANGE	HF
CORRELATION	pRIMP2
BASIS		cc-pvtz
METHOD		rimp2
AUX_BASIS	rimp2-cc-pvtz
SOLVENT_METHOD	PCM
PURECART	11111
SYMMETRY	false
MEM_TOTAL	110000
SCF_CONVERGENCE = 6
THRESH=10
GUI = 2
$end

$solvent
dielectric 4.90
$end
--------------------------------------------------------------

             Standard Nuclear Orientation (Angstroms)
    I     Atom           X                Y                Z
 ----------------------------------------------------------------
    1      C       0.0892630000    -6.7414040000     0.2409270000
    2      C       0.5359730000    -6.1556380000     1.4678860000
    3      C      -0.2811030000    -5.7914520000    -0.7779720000
    4      C       0.6310360000    -4.8037860000     1.7297420000
    5      H       0.8364580000    -6.8215180000     2.2929030000
    6      C      -0.1819950000    -4.3786380000    -0.5036140000
    7      C       0.2727250000    -3.8380320000     0.7467560000
    8      C      -0.5399540000    -3.4130620000    -1.4854370000
    9      C       0.3710530000    -2.4264730000     1.0189150000
   10      C      -0.4463810000    -2.0593480000    -1.2265570000
   11      C       0.0000000000    -1.4782160000     0.0000000000
   12      H      -0.7474100000    -1.3947830000    -2.0524130000
   13      C      -0.7727470000    -6.1879870000    -2.1341280000
   14      C      -1.0291540000    -3.7981640000    -2.8298200000
   15      N      -1.1108280000    -5.1700030000    -3.0591820000
   16      C       1.1217280000    -4.4249870000     3.0777310000
   17      C       0.8640690000    -2.0366270000     2.3756940000
   18      N       1.2019280000    -3.0491560000     3.3011010000
   19      O      -0.9039080000    -7.3531310000    -2.5028300000
   20      O      -1.3458090000    -2.9868540000    -3.6970780000
   21      O       1.4344220000    -5.2489460000     3.9347520000
   22      O       1.0039430000    -0.8788290000     2.7641770000
   23      C      -1.5929810000    -5.5637990000    -4.3869390000
   24      H      -1.6073670000    -6.6640850000    -4.4298220000
   25      H      -0.9245040000    -5.1471010000    -5.1644890000
   26      H      -2.6054460000    -5.1487850000    -4.5534860000
   27      C       1.6773080000    -2.5874870000     4.6084810000
   28      H       1.8980890000    -3.4833290000     5.2119690000
   29      H       0.9023370000    -1.9649720000     5.0946240000
   30      H       2.5820980000    -1.9629320000     4.4830920000
   31      H       0.0259630000    -7.8223180000     0.0660800000
   32      C       0.0000000000     0.0000000000     0.0000000000
   33      S       0.6868050000     0.3967600000     1.5805300000
   34      C       2.1050950000     1.2156400000     0.9049110000
   35      C       0.8642010000     0.4991400000    -0.9854000000
   36      C       2.0075140000     1.1593470000    -0.4935280000
   37      H       0.6601360000     0.3812960000    -2.0599340000
   38      H       2.7703880000     1.5998750000    -1.1525930000
   39      H       2.8677450000     1.6560530000     1.5560250000
 ----------------------------------------------------------------

   11   -1570.4758400045      7.56e-07  Convergence criterion met
 Total energy in the final basis set =    -1570.4758400045
        RIMP2         total energy =     -1575.1492916115 a.u.

                    Orbital Energies (a.u.)
 --------------------------------------------------------------

 Alpha MOs
 -- Occupied --
-92.0358 -20.6202 -20.5609 -20.5602 -20.5575 -15.6526 -15.6320 -11.4361
-11.4008 -11.3995 -11.3915 -11.3267 -11.3040 -11.3038 -11.2915 -11.2915
-11.2898 -11.2879 -11.2815 -11.2797 -11.2757 -11.2737 -11.2648 -11.2532
-11.2527 -11.2313 -11.2278  -9.0305  -6.7119  -6.7091  -6.7069  -1.5094
 -1.4258  -1.4192  -1.4051  -1.2930  -1.2674  -1.2195  -1.1787  -1.1403
 -1.1177  -1.0601  -1.0519  -1.0116  -0.9990  -0.9831  -0.9646  -0.9474
 -0.9088  -0.8851  -0.8757  -0.8670  -0.8093  -0.7923  -0.7829  -0.7585
 -0.7534  -0.7301  -0.7043  -0.6962  -0.6937  -0.6896  -0.6764  -0.6648
 -0.6616  -0.6463  -0.6421  -0.6400  -0.6309  -0.6204  -0.6173  -0.5979
 -0.5855  -0.5787  -0.5681  -0.5661  -0.5632  -0.5626  -0.5520  -0.5468
 -0.5449  -0.5370  -0.5202  -0.5141  -0.4872  -0.4784  -0.4703  -0.4626
 -0.4568  -0.4445  -0.4228  -0.4114  -0.4080  -0.3706  -0.3421  -0.2972
 -0.2434

          Ground-State Mulliken Net Atomic Charges

     Atom                 Charge (a.u.)
  ----------------------------------------
      1 C                    -0.171307
      2 C                    -0.104752
      3 C                    -0.013651
      4 C                    -0.015599
      5 H                     0.187421
      6 C                    -0.009248
      7 C                     0.104566
      8 C                    -0.002344
      9 C                    -0.178025
     10 C                    -0.142926
     11 C                     0.130049
     12 H                     0.181657
     13 C                     0.361148
     14 C                     0.363897
     15 N                    -0.102143
     16 C                     0.364081
     17 C                     0.420334
     18 N                    -0.078592
     19 O                    -0.460987
     20 O                    -0.472915
     21 O                    -0.474550
     22 O                    -0.309139
     23 C                    -0.201039
     24 H                     0.141116
     25 H                     0.112816
     26 H                     0.112779
     27 C                    -0.198658
     28 H                     0.140176
     29 H                     0.118086
     30 H                     0.117764
     31 H                     0.210279
     32 C                    -0.154047
     33 S                     0.267566
     34 C                    -0.350400
     35 C                    -0.226070
     36 C                    -0.232447
     37 H                     0.181157
     38 H                     0.184580
     39 H                     0.199369
  ----------------------------------------
  Sum of atomic charges =     0.000000

                    Cartesian Multipole Moments
 -----------------------------------------------------------------
    Charge (ESU x 10^10)
                 0.0000
    Dipole Moment (Debye)
         X       2.0059      Y      -1.3117      Z       3.4265
       Tot       4.1815
    Quadrupole Moments (Debye-Ang)
        XX    -160.4868     XY       1.7098     YY    -179.9156
        XZ      -0.4897     YZ      -3.4115     ZZ    -164.2570

 Total job time:  295.15s(wall), 8298.90s(cpu)
        *  Thank you very much for using Q-Chem.  Have a nice day.  *
