 Q-Chem 5.4, Q-Chem, Inc., Pleasanton, CA (2021)
 Q-Chem 5.4.0 for Intel X86 EM64T Linux

User input:
--------------------------------------------------------------
$molecule
0 1
C	-0.253280	-6.741404	-0.043160
C	-1.539213	-6.155638	-0.269777
C	0.814295	-5.791452	0.145543
C	-1.813519	-4.803786	-0.318377
H	-2.403941	-6.821518	-0.422058
C	0.527140	-4.378638	0.094194
C	-0.783072	-3.838032	-0.137191
C	1.556403	-3.413062	0.275104
C	-1.067932	-2.426473	-0.188116
C	1.285420	-2.059348	0.226701
C	-0.000000	-1.478216	-0.000000
H	2.151147	-1.394783	0.378931
C	2.234582	-6.187987	0.397845
C	2.965273	-3.798164	0.523637
N	3.204744	-5.170003	0.567586
C	-3.226257	-4.424987	-0.567421
C	-2.489446	-2.036627	-0.439541
N	-3.459801	-3.049156	-0.609650
O	2.619468	-7.353131	0.468608
O	3.874668	-2.986854	0.683034
O	-4.124806	-5.248946	-0.725131
O	-2.895819	-0.878829	-0.512648
C	4.595691	-5.563799	0.813908
H	4.640022	-6.664085	0.822891
H	4.934830	-5.147101	1.781600
H	5.246157	-5.148785	0.020360
C	-4.829716	-2.587487	-0.851649
H	-5.462742	-3.483329	-0.962191
H	-4.863242	-1.964972	-1.765865
H	-5.173521	-1.962932	-0.005383
H	-0.070208	-7.822318	-0.010555
C	0.000000	0.000000	0.000000
S	0.335026	0.718942	1.580530
C	1.027130	2.203226	0.904911
C	0.421617	0.904557	-0.985400
C	0.979485	2.101144	-0.493528
H	0.322049	0.690978	-2.059934
H	1.351718	2.899571	-1.152593
H	1.399246	3.001430	1.556025
$end

$rem
JOBTYPE		SP
EXCHANGE	HF
CORRELATION	pRIMP2
BASIS		cc-pvtz
METHOD		rimp2
AUX_BASIS	rimp2-cc-pvtz
SOLVENT_METHOD	PCM
PURECART	11111
SYMMETRY	false
MEM_TOTAL	110000
SCF_CONVERGENCE = 6
THRESH=10
GUI = 2
$end

$solvent
dielectric 4.90
$end
--------------------------------------------------------------

             Standard Nuclear Orientation (Angstroms)
    I     Atom           X                Y                Z
 ----------------------------------------------------------------
    1      C      -0.2532800000    -6.7414040000    -0.0431600000
    2      C      -1.5392130000    -6.1556380000    -0.2697770000
    3      C       0.8142950000    -5.7914520000     0.1455430000
    4      C      -1.8135190000    -4.8037860000    -0.3183770000
    5      H      -2.4039410000    -6.8215180000    -0.4220580000
    6      C       0.5271400000    -4.3786380000     0.0941940000
    7      C      -0.7830720000    -3.8380320000    -0.1371910000
    8      C       1.5564030000    -3.4130620000     0.2751040000
    9      C      -1.0679320000    -2.4264730000    -0.1881160000
   10      C       1.2854200000    -2.0593480000     0.2267010000
   11      C       0.0000000000    -1.4782160000     0.0000000000
   12      H       2.1511470000    -1.3947830000     0.3789310000
   13      C       2.2345820000    -6.1879870000     0.3978450000
   14      C       2.9652730000    -3.7981640000     0.5236370000
   15      N       3.2047440000    -5.1700030000     0.5675860000
   16      C      -3.2262570000    -4.4249870000    -0.5674210000
   17      C      -2.4894460000    -2.0366270000    -0.4395410000
   18      N      -3.4598010000    -3.0491560000    -0.6096500000
   19      O       2.6194680000    -7.3531310000     0.4686080000
   20      O       3.8746680000    -2.9868540000     0.6830340000
   21      O      -4.1248060000    -5.2489460000    -0.7251310000
   22      O      -2.8958190000    -0.8788290000    -0.5126480000
   23      C       4.5956910000    -5.5637990000     0.8139080000
   24      H       4.6400220000    -6.6640850000     0.8228910000
   25      H       4.9348300000    -5.1471010000     1.7816000000
   26      H       5.2461570000    -5.1487850000     0.0203600000
   27      C      -4.8297160000    -2.5874870000    -0.8516490000
   28      H      -5.4627420000    -3.4833290000    -0.9621910000
   29      H      -4.8632420000    -1.9649720000    -1.7658650000
   30      H      -5.1735210000    -1.9629320000    -0.0053830000
   31      H      -0.0702080000    -7.8223180000    -0.0105550000
   32      C       0.0000000000     0.0000000000     0.0000000000
   33      S       0.3350260000     0.7189420000     1.5805300000
   34      C       1.0271300000     2.2032260000     0.9049110000
   35      C       0.4216170000     0.9045570000    -0.9854000000
   36      C       0.9794850000     2.1011440000    -0.4935280000
   37      H       0.3220490000     0.6909780000    -2.0599340000
   38      H       1.3517180000     2.8995710000    -1.1525930000
   39      H       1.3992460000     3.0014300000     1.5560250000
 ----------------------------------------------------------------

   10   -1570.6820969000      7.30e-07  Convergence criterion met
 Total energy in the final basis set =    -1570.6820969000
        RIMP2         total energy =     -1575.3076476059 a.u.

                    Orbital Energies (a.u.)
 --------------------------------------------------------------

 Alpha MOs
 -- Occupied --
-91.9927 -20.5586 -20.5576 -20.5560 -20.5557 -15.6314 -15.6313 -11.4002
-11.3975 -11.3932 -11.3906 -11.3163 -11.3063 -11.3029 -11.3006 -11.2991
-11.2987 -11.2920 -11.2869 -11.2858 -11.2838 -11.2804 -11.2791 -11.2648
-11.2646 -11.2577 -11.2514  -8.9921  -6.6729  -6.6724  -6.6718  -1.4249
 -1.4246  -1.4042  -1.4037  -1.2678  -1.2656  -1.2182  -1.1777  -1.1441
 -1.1179  -1.0635  -1.0503  -0.9932  -0.9906  -0.9848  -0.9594  -0.9481
 -0.8977  -0.8796  -0.8780  -0.8606  -0.7959  -0.7777  -0.7734  -0.7605
 -0.7376  -0.7189  -0.7058  -0.6951  -0.6815  -0.6737  -0.6666  -0.6625
 -0.6572  -0.6425  -0.6380  -0.6343  -0.6303  -0.6129  -0.5856  -0.5846
 -0.5783  -0.5739  -0.5672  -0.5643  -0.5619  -0.5553  -0.5531  -0.5485
 -0.5371  -0.5272  -0.5213  -0.5112  -0.4838  -0.4716  -0.4673  -0.4616
 -0.4607  -0.4538  -0.4284  -0.4184  -0.4089  -0.3630  -0.3444  -0.3341
 -0.3240

          Ground-State Mulliken Net Atomic Charges

     Atom                 Charge (a.u.)
  ----------------------------------------
      1 C                    -0.130295
      2 C                    -0.109985
      3 C                    -0.043344
      4 C                     0.001247
      5 H                     0.188804
      6 C                     0.002954
      7 C                     0.074037
      8 C                    -0.006908
      9 C                    -0.010645
     10 C                    -0.087621
     11 C                    -0.002175
     12 H                     0.190451
     13 C                     0.360877
     14 C                     0.363412
     15 N                    -0.101601
     16 C                     0.359958
     17 C                     0.354969
     18 N                    -0.098624
     19 O                    -0.465036
     20 O                    -0.476539
     21 O                    -0.479388
     22 O                    -0.458526
     23 C                    -0.201175
     24 H                     0.141099
     25 H                     0.112490
     26 H                     0.112361
     27 C                    -0.195878
     28 H                     0.133677
     29 H                     0.113035
     30 H                     0.113631
     31 H                     0.214476
     32 C                     0.007848
     33 S                     0.028387
     34 C                    -0.209256
     35 C                    -0.197104
     36 C                    -0.191710
     37 H                     0.187784
     38 H                     0.192867
     39 H                     0.211444
  ----------------------------------------
  Sum of atomic charges =     0.000000

                    Cartesian Multipole Moments
 -----------------------------------------------------------------
    Charge (ESU x 10^10)
                 0.0000
    Dipole Moment (Debye)
         X       0.9038      Y       0.8096      Z      -0.9430
       Tot       1.5368
    Quadrupole Moments (Debye-Ang)
        XX    -181.7970     XY       5.5836     YY    -166.3451
        XZ      -3.1867     YZ       0.9373     ZZ    -157.9870

 Total job time:  259.10s(wall), 8017.91s(cpu)
        *  Thank you very much for using Q-Chem.  Have a nice day.  *
