 Q-Chem 5.4, Q-Chem, Inc., Pleasanton, CA (2021)
 Q-Chem 5.4.0 for Intel X86 EM64T Linux

User input:
--------------------------------------------------------------
$molecule
0 1
C	0.195868	-6.741404	-0.166281
C	1.196048	-6.155638	-1.005696
C	-0.634911	-5.791452	0.530233
C	1.409599	-4.803786	-1.184587
H	1.868538	-6.821518	-1.570232
C	-0.410996	-4.378638	0.343266
C	0.608444	-3.838032	-0.511683
C	-1.211179	-3.413062	1.015440
C	0.830559	-2.426473	-0.697165
C	-0.999915	-2.059348	0.838968
C	-0.000000	-1.478216	-0.000000
H	-1.673009	-1.394783	1.404302
C	-1.741129	-6.187987	1.456059
C	-2.307170	-3.798164	1.934944
N	-2.494766	-5.170003	2.090139
C	2.508468	-4.424987	-2.106725
C	1.936893	-2.036627	-1.624494
N	2.690936	-3.049156	-2.258486
O	-2.042736	-7.353131	1.705414
O	-3.013823	-2.986854	2.529122
O	3.206857	-5.248946	-2.693680
O	2.254108	-0.878829	-1.888802
C	-3.577543	-5.563799	2.997334
H	-3.612920	-6.664085	3.025519
H	-4.536833	-5.147101	2.635109
H	-3.387762	-5.148785	4.005702
C	3.756883	-2.587487	-3.152347
H	4.248464	-3.483329	-3.566218
H	4.478763	-1.964972	-2.590383
H	3.329599	-1.962932	-3.959687
H	0.053215	-7.822318	-0.046998
C	0.000000	0.000000	0.000000
S	-0.000201	0.793171	1.580530
C	-0.000228	2.430885	0.904911
C	-0.000168	0.997990	-0.985400
C	-0.000267	2.318231	-0.493528
H	-0.000145	0.762343	-2.059934
H	-0.000339	3.199164	-1.152593
H	-0.000311	3.311566	1.556025
$end

$rem
JOBTYPE		SP
EXCHANGE	HF
CORRELATION	pRIMP2
BASIS		cc-pvtz
METHOD		rimp2
AUX_BASIS	rimp2-cc-pvtz
SOLVENT_METHOD	PCM
PURECART	11111
SYMMETRY	false
MEM_TOTAL	110000
SCF_CONVERGENCE = 6
THRESH=10
GUI = 2
$end

$solvent
dielectric 4.90
$end
--------------------------------------------------------------

             Standard Nuclear Orientation (Angstroms)
    I     Atom           X                Y                Z
 ----------------------------------------------------------------
    1      C       0.1958680000    -6.7414040000    -0.1662810000
    2      C       1.1960480000    -6.1556380000    -1.0056960000
    3      C      -0.6349110000    -5.7914520000     0.5302330000
    4      C       1.4095990000    -4.8037860000    -1.1845870000
    5      H       1.8685380000    -6.8215180000    -1.5702320000
    6      C      -0.4109960000    -4.3786380000     0.3432660000
    7      C       0.6084440000    -3.8380320000    -0.5116830000
    8      C      -1.2111790000    -3.4130620000     1.0154400000
    9      C       0.8305590000    -2.4264730000    -0.6971650000
   10      C      -0.9999150000    -2.0593480000     0.8389680000
   11      C       0.0000000000    -1.4782160000     0.0000000000
   12      H      -1.6730090000    -1.3947830000     1.4043020000
   13      C      -1.7411290000    -6.1879870000     1.4560590000
   14      C      -2.3071700000    -3.7981640000     1.9349440000
   15      N      -2.4947660000    -5.1700030000     2.0901390000
   16      C       2.5084680000    -4.4249870000    -2.1067250000
   17      C       1.9368930000    -2.0366270000    -1.6244940000
   18      N       2.6909360000    -3.0491560000    -2.2584860000
   19      O      -2.0427360000    -7.3531310000     1.7054140000
   20      O      -3.0138230000    -2.9868540000     2.5291220000
   21      O       3.2068570000    -5.2489460000    -2.6936800000
   22      O       2.2541080000    -0.8788290000    -1.8888020000
   23      C      -3.5775430000    -5.5637990000     2.9973340000
   24      H      -3.6129200000    -6.6640850000     3.0255190000
   25      H      -4.5368330000    -5.1471010000     2.6351090000
   26      H      -3.3877620000    -5.1487850000     4.0057020000
   27      C       3.7568830000    -2.5874870000    -3.1523470000
   28      H       4.2484640000    -3.4833290000    -3.5662180000
   29      H       4.4787630000    -1.9649720000    -2.5903830000
   30      H       3.3295990000    -1.9629320000    -3.9596870000
   31      H       0.0532150000    -7.8223180000    -0.0469980000
   32      C       0.0000000000     0.0000000000     0.0000000000
   33      S      -0.0002010000     0.7931710000     1.5805300000
   34      C      -0.0002280000     2.4308850000     0.9049110000
   35      C      -0.0001680000     0.9979900000    -0.9854000000
   36      C      -0.0002670000     2.3182310000    -0.4935280000
   37      H      -0.0001450000     0.7623430000    -2.0599340000
   38      H      -0.0003390000     3.1991640000    -1.1525930000
   39      H      -0.0003110000     3.3115660000     1.5560250000
 ----------------------------------------------------------------

   10   -1570.6919096781      7.07e-07  Convergence criterion met
 Total energy in the final basis set =    -1570.6919096781
        RIMP2         total energy =     -1575.3166072752 a.u.

                    Orbital Energies (a.u.)
 --------------------------------------------------------------

 Alpha MOs
 -- Occupied --
-91.9938 -20.5587 -20.5564 -20.5552 -20.5549 -15.6313 -15.6306 -11.4002
-11.3962 -11.3925 -11.3907 -11.3171 -11.3045 -11.3029 -11.3009 -11.2983
-11.2976 -11.2919 -11.2868 -11.2859 -11.2846 -11.2804 -11.2785 -11.2647
-11.2646 -11.2565 -11.2507  -8.9931  -6.6739  -6.6735  -6.6728  -1.4250
 -1.4237  -1.4043  -1.4028  -1.2676  -1.2651  -1.2178  -1.1757  -1.1445
 -1.1176  -1.0637  -1.0501  -0.9930  -0.9899  -0.9842  -0.9592  -0.9483
 -0.8973  -0.8796  -0.8782  -0.8613  -0.7963  -0.7779  -0.7730  -0.7604
 -0.7375  -0.7175  -0.7053  -0.6951  -0.6807  -0.6730  -0.6664  -0.6622
 -0.6567  -0.6422  -0.6373  -0.6333  -0.6297  -0.6128  -0.5867  -0.5844
 -0.5784  -0.5733  -0.5658  -0.5637  -0.5608  -0.5554  -0.5522  -0.5483
 -0.5373  -0.5264  -0.5212  -0.5179  -0.4835  -0.4703  -0.4667  -0.4634
 -0.4601  -0.4534  -0.4284  -0.4183  -0.4091  -0.3658  -0.3538  -0.3363
 -0.3091

          Ground-State Mulliken Net Atomic Charges

     Atom                 Charge (a.u.)
  ----------------------------------------
      1 C                    -0.135222
      2 C                    -0.107648
      3 C                    -0.040709
      4 C                    -0.003917
      5 H                     0.188831
      6 C                    -0.003740
      7 C                     0.074685
      8 C                     0.010475
      9 C                    -0.027623
     10 C                    -0.161546
     11 C                     0.103323
     12 H                     0.184763
     13 C                     0.360745
     14 C                     0.367788
     15 N                    -0.101697
     16 C                     0.360244
     17 C                     0.349770
     18 N                    -0.094478
     19 O                    -0.464552
     20 O                    -0.475892
     21 O                    -0.481008
     22 O                    -0.459918
     23 C                    -0.200929
     24 H                     0.141039
     25 H                     0.112407
     26 H                     0.112550
     27 C                    -0.196279
     28 H                     0.133824
     29 H                     0.113442
     30 H                     0.112252
     31 H                     0.214035
     32 C                    -0.056619
     33 S                     0.030415
     34 C                    -0.204299
     35 C                    -0.138195
     36 C                    -0.209313
     37 H                     0.188204
     38 H                     0.191473
     39 H                     0.213318
  ----------------------------------------
  Sum of atomic charges =     0.000000

                    Cartesian Multipole Moments
 -----------------------------------------------------------------
    Charge (ESU x 10^10)
                 0.0000
    Dipole Moment (Debye)
         X      -0.0423      Y       1.2908      Z      -0.9484
       Tot       1.6023
    Quadrupole Moments (Debye-Ang)
        XX    -176.1992     XY      -0.4504     YY    -164.9509
        XZ      10.1444     YZ       1.0889     ZZ    -165.9455

 Total job time:  251.33s(wall), 7768.16s(cpu)
        *  Thank you very much for using Q-Chem.  Have a nice day.  *
