 Q-Chem 5.4, Q-Chem, Inc., Pleasanton, CA (2021)
 Q-Chem 5.4.0 for Intel X86 EM64T Linux

User input:
--------------------------------------------------------------
$molecule
0 1
C	0.195868	-6.741404	-0.166281
C	1.196048	-6.155638	-1.005696
C	-0.634911	-5.791452	0.530233
C	1.409599	-4.803786	-1.184587
H	1.868538	-6.821518	-1.570232
C	-0.410996	-4.378638	0.343266
C	0.608444	-3.838032	-0.511683
C	-1.211179	-3.413062	1.015440
C	0.830559	-2.426473	-0.697165
C	-0.999915	-2.059348	0.838968
C	0.000000	-1.478216	0.000000
H	-1.673009	-1.394783	1.404302
C	-1.741129	-6.187987	1.456059
C	-2.307170	-3.798164	1.934944
N	-2.494766	-5.170003	2.090139
C	2.508468	-4.424987	-2.106725
C	1.936893	-2.036627	-1.624494
N	2.690936	-3.049156	-2.258486
O	-2.042736	-7.353131	1.705414
O	-3.013823	-2.986854	2.529122
O	3.206857	-5.248946	-2.693680
O	2.254108	-0.878829	-1.888802
C	-3.577543	-5.563799	2.997334
H	-3.612920	-6.664085	3.025519
H	-4.536833	-5.147101	2.635109
H	-3.387762	-5.148785	4.005702
C	3.756883	-2.587487	-3.152347
H	4.248464	-3.483329	-3.566218
H	4.478763	-1.964972	-2.590383
H	3.329599	-1.962932	-3.959687
H	0.053215	-7.822318	-0.046998
C	0.000000	0.000000	0.000000
S	0.205093	0.766196	1.580530
C	0.628939	2.348114	0.904911
C	0.258137	0.964028	-0.985400
C	0.599745	2.239309	-0.493528
H	0.197169	0.736404	-2.059934
H	0.827678	3.090243	-1.152593
H	0.856796	3.198808	1.556025
$end

$rem
JOBTYPE		SP
EXCHANGE	HF
CORRELATION	pRIMP2
BASIS		cc-pvtz
METHOD		rimp2
AUX_BASIS	rimp2-cc-pvtz
SOLVENT_METHOD	PCM
PURECART	11111
SYMMETRY	false
MEM_TOTAL	110000
SCF_CONVERGENCE = 6
THRESH=10
GUI = 2
$end

$solvent
dielectric 4.90
$end
--------------------------------------------------------------

             Standard Nuclear Orientation (Angstroms)
    I     Atom           X                Y                Z
 ----------------------------------------------------------------
    1      C       0.1958680000    -6.7414040000    -0.1662810000
    2      C       1.1960480000    -6.1556380000    -1.0056960000
    3      C      -0.6349110000    -5.7914520000     0.5302330000
    4      C       1.4095990000    -4.8037860000    -1.1845870000
    5      H       1.8685380000    -6.8215180000    -1.5702320000
    6      C      -0.4109960000    -4.3786380000     0.3432660000
    7      C       0.6084440000    -3.8380320000    -0.5116830000
    8      C      -1.2111790000    -3.4130620000     1.0154400000
    9      C       0.8305590000    -2.4264730000    -0.6971650000
   10      C      -0.9999150000    -2.0593480000     0.8389680000
   11      C       0.0000000000    -1.4782160000     0.0000000000
   12      H      -1.6730090000    -1.3947830000     1.4043020000
   13      C      -1.7411290000    -6.1879870000     1.4560590000
   14      C      -2.3071700000    -3.7981640000     1.9349440000
   15      N      -2.4947660000    -5.1700030000     2.0901390000
   16      C       2.5084680000    -4.4249870000    -2.1067250000
   17      C       1.9368930000    -2.0366270000    -1.6244940000
   18      N       2.6909360000    -3.0491560000    -2.2584860000
   19      O      -2.0427360000    -7.3531310000     1.7054140000
   20      O      -3.0138230000    -2.9868540000     2.5291220000
   21      O       3.2068570000    -5.2489460000    -2.6936800000
   22      O       2.2541080000    -0.8788290000    -1.8888020000
   23      C      -3.5775430000    -5.5637990000     2.9973340000
   24      H      -3.6129200000    -6.6640850000     3.0255190000
   25      H      -4.5368330000    -5.1471010000     2.6351090000
   26      H      -3.3877620000    -5.1487850000     4.0057020000
   27      C       3.7568830000    -2.5874870000    -3.1523470000
   28      H       4.2484640000    -3.4833290000    -3.5662180000
   29      H       4.4787630000    -1.9649720000    -2.5903830000
   30      H       3.3295990000    -1.9629320000    -3.9596870000
   31      H       0.0532150000    -7.8223180000    -0.0469980000
   32      C       0.0000000000     0.0000000000     0.0000000000
   33      S       0.2050930000     0.7661960000     1.5805300000
   34      C       0.6289390000     2.3481140000     0.9049110000
   35      C       0.2581370000     0.9640280000    -0.9854000000
   36      C       0.5997450000     2.2393090000    -0.4935280000
   37      H       0.1971690000     0.7364040000    -2.0599340000
   38      H       0.8276780000     3.0902430000    -1.1525930000
   39      H       0.8567960000     3.1988080000     1.5560250000
 ----------------------------------------------------------------

   10   -1570.6867760761      7.56e-07  Convergence criterion met
 Total energy in the final basis set =    -1570.6867760761
        RIMP2         total energy =     -1575.3126905465 a.u.

                    Orbital Energies (a.u.)
 --------------------------------------------------------------

 Alpha MOs
 -- Occupied --
-91.9938 -20.5585 -20.5561 -20.5545 -20.5538 -15.6311 -15.6302 -11.4000
-11.3955 -11.3921 -11.3904 -11.3164 -11.3030 -11.3025 -11.3004 -11.2974
-11.2968 -11.2870 -11.2870 -11.2863 -11.2853 -11.2800 -11.2775 -11.2646
-11.2644 -11.2575 -11.2504  -8.9931  -6.6739  -6.6734  -6.6728  -1.4248
 -1.4233  -1.4041  -1.4024  -1.2673  -1.2648  -1.2171  -1.1754  -1.1441
 -1.1169  -1.0630  -1.0495  -0.9927  -0.9895  -0.9844  -0.9589  -0.9482
 -0.8967  -0.8793  -0.8771  -0.8611  -0.7955  -0.7772  -0.7726  -0.7605
 -0.7370  -0.7176  -0.7049  -0.6945  -0.6805  -0.6724  -0.6661  -0.6619
 -0.6563  -0.6419  -0.6368  -0.6331  -0.6290  -0.6124  -0.5866  -0.5841
 -0.5776  -0.5740  -0.5653  -0.5630  -0.5605  -0.5552  -0.5517  -0.5482
 -0.5360  -0.5257  -0.5209  -0.5185  -0.4830  -0.4705  -0.4654  -0.4625
 -0.4596  -0.4530  -0.4280  -0.4180  -0.4088  -0.3662  -0.3520  -0.3359
 -0.3081

          Ground-State Mulliken Net Atomic Charges

     Atom                 Charge (a.u.)
  ----------------------------------------
      1 C                    -0.136951
      2 C                    -0.107809
      3 C                    -0.040470
      4 C                    -0.004425
      5 H                     0.188499
      6 C                    -0.011617
      7 C                     0.080143
      8 C                     0.021918
      9 C                    -0.025069
     10 C                    -0.185754
     11 C                     0.123195
     12 H                     0.181152
     13 C                     0.361131
     14 C                     0.368079
     15 N                    -0.101409
     16 C                     0.359830
     17 C                     0.362859
     18 N                    -0.093550
     19 O                    -0.464649
     20 O                    -0.475967
     21 O                    -0.481472
     22 O                    -0.462406
     23 C                    -0.200956
     24 H                     0.141002
     25 H                     0.112350
     26 H                     0.112485
     27 C                    -0.196568
     28 H                     0.133885
     29 H                     0.113249
     30 H                     0.111950
     31 H                     0.213729
     32 C                    -0.083373
     33 S                     0.036407
     34 C                    -0.201593
     35 C                    -0.134571
     36 C                    -0.204230
     37 H                     0.186411
     38 H                     0.190874
     39 H                     0.213693
  ----------------------------------------
  Sum of atomic charges =     0.000000

                    Cartesian Multipole Moments
 -----------------------------------------------------------------
    Charge (ESU x 10^10)
                 0.0000
    Dipole Moment (Debye)
         X       0.6071      Y       1.5300      Z      -1.0118
       Tot       1.9322
    Quadrupole Moments (Debye-Ang)
        XX    -175.5110     XY       2.6573     YY    -166.5149
        XZ      10.4123     YZ       0.9936     ZZ    -165.9885

 Total job time:  255.48s(wall), 7991.22s(cpu)
        *  Thank you very much for using Q-Chem.  Have a nice day.  *
