 Q-Chem 5.4, Q-Chem, Inc., Pleasanton, CA (2021)
 Q-Chem 5.4.0 for Intel X86 EM64T Linux

User input:
--------------------------------------------------------------
$molecule
0 1
C	0.166281	-6.741404	0.195868
C	1.005696	-6.155638	1.196048
C	-0.530233	-5.791452	-0.634911
C	1.184587	-4.803786	1.409599
H	1.570232	-6.821518	1.868538
C	-0.343266	-4.378638	-0.410996
C	0.511683	-3.838032	0.608444
C	-1.015440	-3.413062	-1.211179
C	0.697165	-2.426473	0.830559
C	-0.838968	-2.059348	-0.999915
C	0.000000	-1.478216	0.000000
H	-1.404302	-1.394783	-1.673009
C	-1.456059	-6.187987	-1.741129
C	-1.934944	-3.798164	-2.307170
N	-2.090139	-5.170003	-2.494766
C	2.106725	-4.424987	2.508468
C	1.624494	-2.036627	1.936893
N	2.258486	-3.049156	2.690936
O	-1.705414	-7.353131	-2.042736
O	-2.529122	-2.986854	-3.013823
O	2.693680	-5.248946	3.206857
O	1.888802	-0.878829	2.254108
C	-2.997334	-5.563799	-3.577543
H	-3.025519	-6.664085	-3.612920
H	-2.635109	-5.147101	-4.536833
H	-4.005702	-5.148785	-3.387762
C	3.152347	-2.587487	3.756883
H	3.566218	-3.483329	4.248464
H	2.590383	-1.964972	4.478763
H	3.959687	-1.962932	3.329599
H	0.046998	-7.822318	0.053215
C	0.000000	0.000000	0.000000
S	0.509686	0.607733	1.580530
C	1.562368	1.862312	0.904911
C	0.641367	0.764613	-0.985400
C	1.489926	1.776040	-0.493528
H	0.489914	0.584081	-2.059934
H	2.056124	2.450920	-1.152593
H	2.128395	2.537007	1.556025
$end

$rem
JOBTYPE		SP
EXCHANGE	HF
CORRELATION	pRIMP2
BASIS		cc-pvtz
METHOD		rimp2
AUX_BASIS	rimp2-cc-pvtz
SOLVENT_METHOD	PCM
PURECART	11111
SYMMETRY	false
MEM_TOTAL	110000
SCF_CONVERGENCE = 6
THRESH=10
GUI = 2
$end

$solvent
dielectric 4.90
$end
--------------------------------------------------------------

             Standard Nuclear Orientation (Angstroms)
    I     Atom           X                Y                Z
 ----------------------------------------------------------------
    1      C       0.1662810000    -6.7414040000     0.1958680000
    2      C       1.0056960000    -6.1556380000     1.1960480000
    3      C      -0.5302330000    -5.7914520000    -0.6349110000
    4      C       1.1845870000    -4.8037860000     1.4095990000
    5      H       1.5702320000    -6.8215180000     1.8685380000
    6      C      -0.3432660000    -4.3786380000    -0.4109960000
    7      C       0.5116830000    -3.8380320000     0.6084440000
    8      C      -1.0154400000    -3.4130620000    -1.2111790000
    9      C       0.6971650000    -2.4264730000     0.8305590000
   10      C      -0.8389680000    -2.0593480000    -0.9999150000
   11      C       0.0000000000    -1.4782160000     0.0000000000
   12      H      -1.4043020000    -1.3947830000    -1.6730090000
   13      C      -1.4560590000    -6.1879870000    -1.7411290000
   14      C      -1.9349440000    -3.7981640000    -2.3071700000
   15      N      -2.0901390000    -5.1700030000    -2.4947660000
   16      C       2.1067250000    -4.4249870000     2.5084680000
   17      C       1.6244940000    -2.0366270000     1.9368930000
   18      N       2.2584860000    -3.0491560000     2.6909360000
   19      O      -1.7054140000    -7.3531310000    -2.0427360000
   20      O      -2.5291220000    -2.9868540000    -3.0138230000
   21      O       2.6936800000    -5.2489460000     3.2068570000
   22      O       1.8888020000    -0.8788290000     2.2541080000
   23      C      -2.9973340000    -5.5637990000    -3.5775430000
   24      H      -3.0255190000    -6.6640850000    -3.6129200000
   25      H      -2.6351090000    -5.1471010000    -4.5368330000
   26      H      -4.0057020000    -5.1487850000    -3.3877620000
   27      C       3.1523470000    -2.5874870000     3.7568830000
   28      H       3.5662180000    -3.4833290000     4.2484640000
   29      H       2.5903830000    -1.9649720000     4.4787630000
   30      H       3.9596870000    -1.9629320000     3.3295990000
   31      H       0.0469980000    -7.8223180000     0.0532150000
   32      C       0.0000000000     0.0000000000     0.0000000000
   33      S       0.5096860000     0.6077330000     1.5805300000
   34      C       1.5623680000     1.8623120000     0.9049110000
   35      C       0.6413670000     0.7646130000    -0.9854000000
   36      C       1.4899260000     1.7760400000    -0.4935280000
   37      H       0.4899140000     0.5840810000    -2.0599340000
   38      H       2.0561240000     2.4509200000    -1.1525930000
   39      H       2.1283950000     2.5370070000     1.5560250000
 ----------------------------------------------------------------

   11   -1570.5952526440      6.05e-07  Convergence criterion met
 Total energy in the final basis set =    -1570.5952526440
        RIMP2         total energy =     -1575.2484573630 a.u.

                    Orbital Energies (a.u.)
 --------------------------------------------------------------

 Alpha MOs
 -- Occupied --
-91.9878 -20.5587 -20.5563 -20.5550 -20.5549 -15.6332 -15.6310 -11.4019
-11.3999 -11.3924 -11.3903 -11.3189 -11.3022 -11.3005 -11.2965 -11.2940
-11.2931 -11.2862 -11.2831 -11.2828 -11.2792 -11.2735 -11.2710 -11.2662
-11.2645 -11.2563 -11.2400  -8.9876  -6.6678  -6.6672  -6.6662  -1.4348
 -1.4248  -1.4085  -1.4041  -1.2707  -1.2663  -1.2162  -1.1734  -1.1411
 -1.1157  -1.0601  -1.0486  -0.9932  -0.9891  -0.9825  -0.9595  -0.9468
 -0.8972  -0.8800  -0.8744  -0.8627  -0.7907  -0.7784  -0.7759  -0.7573
 -0.7330  -0.7251  -0.7032  -0.6918  -0.6883  -0.6730  -0.6676  -0.6631
 -0.6573  -0.6446  -0.6396  -0.6366  -0.6280  -0.6134  -0.5858  -0.5823
 -0.5775  -0.5747  -0.5679  -0.5641  -0.5634  -0.5565  -0.5561  -0.5492
 -0.5360  -0.5245  -0.5214  -0.5140  -0.4815  -0.4709  -0.4642  -0.4611
 -0.4560  -0.4419  -0.4248  -0.4183  -0.4089  -0.3672  -0.3365  -0.3029
 -0.2937

          Ground-State Mulliken Net Atomic Charges

     Atom                 Charge (a.u.)
  ----------------------------------------
      1 C                    -0.149223
      2 C                    -0.106411
      3 C                    -0.031037
      4 C                    -0.008048
      5 H                     0.187857
      6 C                    -0.012883
      7 C                     0.081101
      8 C                     0.005846
      9 C                    -0.111768
     10 C                    -0.157890
     11 C                     0.115255
     12 H                     0.180730
     13 C                     0.360906
     14 C                     0.364485
     15 N                    -0.101421
     16 C                     0.359536
     17 C                     0.436233
     18 N                    -0.091830
     19 O                    -0.463873
     20 O                    -0.475553
     21 O                    -0.481283
     22 O                    -0.444023
     23 C                    -0.201139
     24 H                     0.141024
     25 H                     0.112144
     26 H                     0.112463
     27 C                    -0.197503
     28 H                     0.135199
     29 H                     0.113423
     30 H                     0.113026
     31 H                     0.212241
     32 C                    -0.107463
     33 S                     0.097682
     34 C                    -0.181578
     35 C                    -0.143832
     36 C                    -0.249798
     37 H                     0.191654
     38 H                     0.187684
     39 H                     0.208068
  ----------------------------------------
  Sum of atomic charges =     0.000000

                    Cartesian Multipole Moments
 -----------------------------------------------------------------
    Charge (ESU x 10^10)
                 0.0000
    Dipole Moment (Debye)
         X       2.2687      Y       0.7637      Z       0.4186
       Tot       2.4301
    Quadrupole Moments (Debye-Ang)
        XX    -167.0213     XY       5.1973     YY    -175.0935
        XZ      -7.0176     YZ       0.1443     ZZ    -167.2090

 Total job time:  281.54s(wall), 8568.59s(cpu)
        *  Thank you very much for using Q-Chem.  Have a nice day.  *
