 Q-Chem 5.4, Q-Chem, Inc., Pleasanton, CA (2021)
 Q-Chem 5.4.0 for Intel X86 EM64T Linux

User input:
--------------------------------------------------------------
$molecule
0 1
C	-0.086486	-6.741404	0.241938
C	-0.532960	-6.155638	1.468983
C	0.284733	-5.791452	-0.776651
C	-0.628455	-4.803786	1.730681
H	-0.833086	-6.821518	2.294130
C	0.184300	-4.378638	-0.502775
C	-0.271086	-3.838032	0.747353
C	0.541191	-3.413062	-1.484986
C	-0.370703	-2.426473	1.019042
C	0.446468	-2.059348	-1.226525
C	-0.000000	-1.478216	-0.000000
H	0.746717	-1.394783	-2.052666
C	0.779832	-6.187987	-2.131549
C	1.030596	-3.798164	-2.829295
N	1.115461	-5.170003	-3.057496
C	-1.119034	-4.424987	3.078712
C	-0.865151	-2.036627	2.375300
N	-1.201176	-3.049156	3.301374
O	0.916355	-7.353131	-2.498300
O	1.345486	-2.986854	-3.697195
O	-1.430379	-5.248946	3.936224
O	-1.007714	-0.878829	2.762805
C	1.599576	-5.563799	-4.384539
H	1.616121	-6.664085	-4.426636
H	2.611458	-5.147101	-4.550487
H	0.931037	-5.148785	-5.162921
C	-1.677382	-2.587487	4.608454
H	-1.896168	-3.483329	5.212668
H	-2.583531	-1.964972	4.482719
H	-0.903674	-1.962932	5.093988
H	-0.022586	-7.822318	0.067309
C	0.000000	0.000000	0.000000
S	0.686805	0.396760	1.580530
C	2.105095	1.215640	0.904911
C	0.864201	0.499140	-0.985400
C	2.007514	1.159347	-0.493528
H	0.660136	0.381296	-2.059934
H	2.770388	1.599875	-1.152593
H	2.867745	1.656053	1.556025
$end

$rem
JOBTYPE		SP
EXCHANGE	HF
CORRELATION	pRIMP2
BASIS		cc-pvtz
METHOD		rimp2
AUX_BASIS	rimp2-cc-pvtz
SOLVENT_METHOD	PCM
PURECART	11111
SYMMETRY	false
MEM_TOTAL	110000
SCF_CONVERGENCE = 6
THRESH=10
GUI = 2
$end

$solvent
dielectric 4.90
$end
--------------------------------------------------------------

             Standard Nuclear Orientation (Angstroms)
    I     Atom           X                Y                Z
 ----------------------------------------------------------------
    1      C      -0.0864860000    -6.7414040000     0.2419380000
    2      C      -0.5329600000    -6.1556380000     1.4689830000
    3      C       0.2847330000    -5.7914520000    -0.7766510000
    4      C      -0.6284550000    -4.8037860000     1.7306810000
    5      H      -0.8330860000    -6.8215180000     2.2941300000
    6      C       0.1843000000    -4.3786380000    -0.5027750000
    7      C      -0.2710860000    -3.8380320000     0.7473530000
    8      C       0.5411910000    -3.4130620000    -1.4849860000
    9      C      -0.3707030000    -2.4264730000     1.0190420000
   10      C       0.4464680000    -2.0593480000    -1.2265250000
   11      C       0.0000000000    -1.4782160000     0.0000000000
   12      H       0.7467170000    -1.3947830000    -2.0526660000
   13      C       0.7798320000    -6.1879870000    -2.1315490000
   14      C       1.0305960000    -3.7981640000    -2.8292950000
   15      N       1.1154610000    -5.1700030000    -3.0574960000
   16      C      -1.1190340000    -4.4249870000     3.0787120000
   17      C      -0.8651510000    -2.0366270000     2.3753000000
   18      N      -1.2011760000    -3.0491560000     3.3013740000
   19      O       0.9163550000    -7.3531310000    -2.4983000000
   20      O       1.3454860000    -2.9868540000    -3.6971950000
   21      O      -1.4303790000    -5.2489460000     3.9362240000
   22      O      -1.0077140000    -0.8788290000     2.7628050000
   23      C       1.5995760000    -5.5637990000    -4.3845390000
   24      H       1.6161210000    -6.6640850000    -4.4266360000
   25      H       2.6114580000    -5.1471010000    -4.5504870000
   26      H       0.9310370000    -5.1487850000    -5.1629210000
   27      C      -1.6773820000    -2.5874870000     4.6084540000
   28      H      -1.8961680000    -3.4833290000     5.2126680000
   29      H      -2.5835310000    -1.9649720000     4.4827190000
   30      H      -0.9036740000    -1.9629320000     5.0939880000
   31      H      -0.0225860000    -7.8223180000     0.0673090000
   32      C       0.0000000000     0.0000000000     0.0000000000
   33      S       0.6868050000     0.3967600000     1.5805300000
   34      C       2.1050950000     1.2156400000     0.9049110000
   35      C       0.8642010000     0.4991400000    -0.9854000000
   36      C       2.0075140000     1.1593470000    -0.4935280000
   37      H       0.6601360000     0.3812960000    -2.0599340000
   38      H       2.7703880000     1.5998750000    -1.1525930000
   39      H       2.8677450000     1.6560530000     1.5560250000
 ----------------------------------------------------------------

   11   -1570.6143246567      5.73e-07  Convergence criterion met
 Total energy in the final basis set =    -1570.6143246567
        RIMP2         total energy =     -1575.2578424408 a.u.

                    Orbital Energies (a.u.)
 --------------------------------------------------------------

 Alpha MOs
 -- Occupied --
-91.9890 -20.5577 -20.5561 -20.5535 -20.5498 -15.6303 -15.6273 -11.3985
-11.3920 -11.3899 -11.3877 -11.3209 -11.3048 -11.2994 -11.2962 -11.2879
-11.2875 -11.2843 -11.2840 -11.2839 -11.2775 -11.2754 -11.2706 -11.2705
-11.2642 -11.2628 -11.2546  -8.9888  -6.6691  -6.6680  -6.6676  -1.4242
 -1.4240  -1.4036  -1.4018  -1.2661  -1.2630  -1.2165  -1.1892  -1.1395
 -1.1119  -1.0617  -1.0457  -0.9972  -0.9931  -0.9894  -0.9567  -0.9445
 -0.8935  -0.8763  -0.8723  -0.8585  -0.7920  -0.7779  -0.7767  -0.7677
 -0.7319  -0.7163  -0.7056  -0.6917  -0.6859  -0.6744  -0.6650  -0.6608
 -0.6543  -0.6393  -0.6338  -0.6325  -0.6239  -0.6129  -0.5939  -0.5862
 -0.5795  -0.5724  -0.5707  -0.5640  -0.5630  -0.5545  -0.5541  -0.5476
 -0.5337  -0.5283  -0.5134  -0.5089  -0.4869  -0.4721  -0.4605  -0.4561
 -0.4519  -0.4347  -0.4228  -0.4131  -0.4059  -0.3749  -0.3562  -0.3327
 -0.2981

          Ground-State Mulliken Net Atomic Charges

     Atom                 Charge (a.u.)
  ----------------------------------------
      1 C                    -0.162454
      2 C                    -0.109084
      3 C                    -0.019746
      4 C                    -0.006352
      5 H                     0.186621
      6 C                    -0.025108
      7 C                     0.073401
      8 C                     0.028587
      9 C                    -0.104361
     10 C                    -0.163190
     11 C                     0.099421
     12 H                     0.173049
     13 C                     0.358183
     14 C                     0.363110
     15 N                    -0.101221
     16 C                     0.354347
     17 C                     0.380741
     18 N                    -0.093053
     19 O                    -0.464481
     20 O                    -0.480581
     21 O                    -0.487646
     22 O                    -0.484930
     23 C                    -0.201580
     24 H                     0.141154
     25 H                     0.111660
     26 H                     0.112015
     27 C                    -0.197799
     28 H                     0.133612
     29 H                     0.112072
     30 H                     0.111835
     31 H                     0.210130
     32 C                    -0.122207
     33 S                     0.108333
     34 C                    -0.134952
     35 C                    -0.060137
     36 C                    -0.242651
     37 H                     0.193866
     38 H                     0.192866
     39 H                     0.216529
  ----------------------------------------
  Sum of atomic charges =     0.000000

                    Cartesian Multipole Moments
 -----------------------------------------------------------------
    Charge (ESU x 10^10)
                 0.0000
    Dipole Moment (Debye)
         X       3.1585      Y       2.8293      Z      -0.9871
       Tot       4.3538
    Quadrupole Moments (Debye-Ang)
        XX    -156.9316     XY       5.3256     YY    -184.1016
        XZ       8.4807     YZ       1.7237     ZZ    -175.3978

 Total job time:  286.18s(wall), 8207.81s(cpu)
        *  Thank you very much for using Q-Chem.  Have a nice day.  *
