 Q-Chem 5.4, Q-Chem, Inc., Pleasanton, CA (2021)
 Q-Chem 5.4.0 for Intel X86 EM64T Linux

User input:
--------------------------------------------------------------
$molecule
0 1
C	0.252767	-6.741404	-0.046070
C	1.538656	-6.155638	-0.272935
C	-0.814966	-5.791452	0.141739
C	1.813042	-4.803786	-0.321083
H	2.403318	-6.821518	-0.425592
C	-0.527566	-4.378638	0.091779
C	0.782769	-3.838032	-0.138909
C	-1.556632	-3.413062	0.273808
C	1.067868	-2.426473	-0.188483
C	-1.285436	-2.059348	0.226610
C	-0.000000	-1.478216	-0.000000
H	-2.151019	-1.394783	0.379657
C	-2.235891	-6.187987	0.390420
C	-2.965540	-3.798164	0.522125
N	-3.205600	-5.170003	0.562731
C	3.225760	-4.424987	-0.570244
C	2.489646	-2.036627	-0.438407
N	3.459662	-3.049156	-0.610438
O	-2.621768	-7.353131	0.455563
O	-3.874608	-2.986854	0.683373
O	4.124059	-5.248946	-0.729367
O	2.896516	-0.878829	-0.508697
C	-4.596910	-5.563799	0.806996
H	-4.641640	-6.664085	0.813717
H	-5.246567	-5.147101	0.013655
H	-4.936739	-5.148785	1.775159
C	4.829729	-2.587487	-0.851572
H	5.462387	-3.483329	-0.964204
H	5.173914	-1.964972	-0.003956
H	4.863360	-1.962932	-1.764390
H	0.069584	-7.822318	-0.014094
C	0.000000	0.000000	0.000000
S	0.271091	0.745405	1.580530
C	0.831198	2.284363	0.904911
C	0.341175	0.937861	-0.985400
C	0.792631	2.178516	-0.493528
H	0.260601	0.716417	-2.059934
H	1.093860	3.006347	-1.152593
H	1.132330	3.111961	1.556025
$end

$rem
JOBTYPE		SP
EXCHANGE	HF
CORRELATION	pRIMP2
BASIS		cc-pvtz
METHOD		rimp2
AUX_BASIS	rimp2-cc-pvtz
SOLVENT_METHOD	PCM
PURECART	11111
SYMMETRY	false
MEM_TOTAL	110000
SCF_CONVERGENCE = 6
THRESH=10
GUI = 2
$end

$solvent
dielectric 4.90
$end
--------------------------------------------------------------

             Standard Nuclear Orientation (Angstroms)
    I     Atom           X                Y                Z
 ----------------------------------------------------------------
    1      C       0.2527670000    -6.7414040000    -0.0460700000
    2      C       1.5386560000    -6.1556380000    -0.2729350000
    3      C      -0.8149660000    -5.7914520000     0.1417390000
    4      C       1.8130420000    -4.8037860000    -0.3210830000
    5      H       2.4033180000    -6.8215180000    -0.4255920000
    6      C      -0.5275660000    -4.3786380000     0.0917790000
    7      C       0.7827690000    -3.8380320000    -0.1389090000
    8      C      -1.5566320000    -3.4130620000     0.2738080000
    9      C       1.0678680000    -2.4264730000    -0.1884830000
   10      C      -1.2854360000    -2.0593480000     0.2266100000
   11      C       0.0000000000    -1.4782160000     0.0000000000
   12      H      -2.1510190000    -1.3947830000     0.3796570000
   13      C      -2.2358910000    -6.1879870000     0.3904200000
   14      C      -2.9655400000    -3.7981640000     0.5221250000
   15      N      -3.2056000000    -5.1700030000     0.5627310000
   16      C       3.2257600000    -4.4249870000    -0.5702440000
   17      C       2.4896460000    -2.0366270000    -0.4384070000
   18      N       3.4596620000    -3.0491560000    -0.6104380000
   19      O      -2.6217680000    -7.3531310000     0.4555630000
   20      O      -3.8746080000    -2.9868540000     0.6833730000
   21      O       4.1240590000    -5.2489460000    -0.7293670000
   22      O       2.8965160000    -0.8788290000    -0.5086970000
   23      C      -4.5969100000    -5.5637990000     0.8069960000
   24      H      -4.6416400000    -6.6640850000     0.8137170000
   25      H      -5.2465670000    -5.1471010000     0.0136550000
   26      H      -4.9367390000    -5.1487850000     1.7751590000
   27      C       4.8297290000    -2.5874870000    -0.8515720000
   28      H       5.4623870000    -3.4833290000    -0.9642040000
   29      H       5.1739140000    -1.9649720000    -0.0039560000
   30      H       4.8633600000    -1.9629320000    -1.7643900000
   31      H       0.0695840000    -7.8223180000    -0.0140940000
   32      C       0.0000000000     0.0000000000     0.0000000000
   33      S       0.2710910000     0.7454050000     1.5805300000
   34      C       0.8311980000     2.2843630000     0.9049110000
   35      C       0.3411750000     0.9378610000    -0.9854000000
   36      C       0.7926310000     2.1785160000    -0.4935280000
   37      H       0.2606010000     0.7164170000    -2.0599340000
   38      H       1.0938600000     3.0063470000    -1.1525930000
   39      H       1.1323300000     3.1119610000     1.5560250000
 ----------------------------------------------------------------

   10   -1570.6824671945      7.63e-07  Convergence criterion met
 Total energy in the final basis set =    -1570.6824671945
        RIMP2         total energy =     -1575.3083855059 a.u.

                    Orbital Energies (a.u.)
 --------------------------------------------------------------

 Alpha MOs
 -- Occupied --
-91.9919 -20.5586 -20.5560 -20.5560 -20.5553 -15.6311 -15.6308 -11.4002
-11.3963 -11.3929 -11.3903 -11.3145 -11.3069 -11.3030 -11.3011 -11.2992
-11.2989 -11.2869 -11.2864 -11.2855 -11.2839 -11.2808 -11.2769 -11.2647
-11.2645 -11.2564 -11.2495  -8.9912  -6.6720  -6.6715  -6.6709  -1.4248
 -1.4239  -1.4041  -1.4030  -1.2675  -1.2652  -1.2177  -1.1743  -1.1441
 -1.1177  -1.0628  -1.0501  -0.9931  -0.9890  -0.9828  -0.9593  -0.9487
 -0.8970  -0.8798  -0.8768  -0.8614  -0.7948  -0.7772  -0.7730  -0.7592
 -0.7372  -0.7185  -0.7053  -0.6952  -0.6802  -0.6722  -0.6664  -0.6622
 -0.6570  -0.6426  -0.6375  -0.6341  -0.6300  -0.6124  -0.5855  -0.5844
 -0.5775  -0.5733  -0.5659  -0.5640  -0.5609  -0.5552  -0.5525  -0.5486
 -0.5355  -0.5268  -0.5201  -0.5133  -0.4830  -0.4708  -0.4656  -0.4604
 -0.4589  -0.4530  -0.4281  -0.4181  -0.4088  -0.3550  -0.3504  -0.3334
 -0.3225

          Ground-State Mulliken Net Atomic Charges

     Atom                 Charge (a.u.)
  ----------------------------------------
      1 C                    -0.130203
      2 C                    -0.107415
      3 C                    -0.044192
      4 C                    -0.000733
      5 H                     0.188701
      6 C                    -0.009012
      7 C                     0.071041
      8 C                     0.017743
      9 C                     0.011269
     10 C                    -0.156096
     11 C                     0.082855
     12 H                     0.180193
     13 C                     0.361289
     14 C                     0.368818
     15 N                    -0.101661
     16 C                     0.358759
     17 C                     0.362480
     18 N                    -0.095541
     19 O                    -0.464887
     20 O                    -0.476117
     21 O                    -0.480061
     22 O                    -0.456622
     23 C                    -0.201008
     24 H                     0.141023
     25 H                     0.112364
     26 H                     0.112505
     27 C                    -0.196389
     28 H                     0.133701
     29 H                     0.113592
     30 H                     0.112505
     31 H                     0.214577
     32 C                    -0.071939
     33 S                     0.030994
     34 C                    -0.206129
     35 C                    -0.171730
     36 C                    -0.193404
     37 H                     0.186515
     38 H                     0.190250
     39 H                     0.211964
  ----------------------------------------
  Sum of atomic charges =     0.000000

                    Cartesian Multipole Moments
 -----------------------------------------------------------------
    Charge (ESU x 10^10)
                 0.0000
    Dipole Moment (Debye)
         X       0.8997      Y       0.9214      Z      -1.0035
       Tot       1.6326
    Quadrupole Moments (Debye-Ang)
        XX    -182.6055     XY       2.7038     YY    -165.4509
        XZ       3.7296     YZ       0.8481     ZZ    -158.0817

 Total job time:  274.95s(wall), 8097.16s(cpu)
        *  Thank you very much for using Q-Chem.  Have a nice day.  *
