 Q-Chem 5.4, Q-Chem, Inc., Pleasanton, CA (2021)
 Q-Chem 5.4.0 for Intel X86 EM64T Linux

User input:
--------------------------------------------------------------
$molecule
0 1
C	0.164018	-6.741404	-0.197767
C	1.003240	-6.155638	-1.198109
C	-0.533192	-5.791452	0.632428
C	1.182482	-4.803786	-1.411364
H	1.567483	-6.821518	-1.870845
C	-0.345145	-4.378638	0.409419
C	0.510347	-3.838032	-0.609565
C	-1.016449	-3.413062	1.210332
C	0.696879	-2.426473	-0.830799
C	-0.839039	-2.059348	0.999856
C	0.000000	-1.478216	0.000000
H	-1.403737	-1.394783	1.673483
C	-1.461835	-6.187987	1.736282
C	-1.936119	-3.798164	2.306183
N	-2.093916	-5.170003	2.491597
C	2.104529	-4.424987	-2.510310
C	1.625377	-2.036627	-1.936153
N	2.257873	-3.049156	-2.691451
O	-1.715561	-7.353131	2.034222
O	-2.528858	-2.986854	3.014044
O	2.690385	-5.248946	-3.209622
O	1.891876	-0.878829	-2.251529
C	-3.002711	-5.563799	3.573032
H	-3.032655	-6.664085	3.606932
H	-4.010326	-5.147101	3.382888
H	-2.640711	-5.148785	4.533125
C	3.152408	-2.587487	-3.756832
H	3.564653	-3.483329	-4.249778
H	3.960905	-1.964972	-3.328759
H	2.591422	-1.962932	-4.477709
H	0.044245	-7.822318	-0.055524
C	0.000000	0.000000	0.000000
S	0.068929	0.790170	1.580530
C	0.211639	2.421655	0.904911
C	0.086813	0.994207	-0.985400
C	0.201782	2.309433	-0.493528
H	0.066299	0.759454	-2.059934
H	0.278488	3.187020	-1.152593
H	0.288312	3.298992	1.556025
$end

$rem
JOBTYPE		SP
EXCHANGE	HF
CORRELATION	pRIMP2
BASIS		cc-pvtz
METHOD		rimp2
AUX_BASIS	rimp2-cc-pvtz
SOLVENT_METHOD	PCM
PURECART	11111
SYMMETRY	false
MEM_TOTAL	110000
SCF_CONVERGENCE = 6
THRESH=10
GUI = 2
$end

$solvent
dielectric 4.90
$end
--------------------------------------------------------------

             Standard Nuclear Orientation (Angstroms)
    I     Atom           X                Y                Z
 ----------------------------------------------------------------
    1      C       0.1640180000    -6.7414040000    -0.1977670000
    2      C       1.0032400000    -6.1556380000    -1.1981090000
    3      C      -0.5331920000    -5.7914520000     0.6324280000
    4      C       1.1824820000    -4.8037860000    -1.4113640000
    5      H       1.5674830000    -6.8215180000    -1.8708450000
    6      C      -0.3451450000    -4.3786380000     0.4094190000
    7      C       0.5103470000    -3.8380320000    -0.6095650000
    8      C      -1.0164490000    -3.4130620000     1.2103320000
    9      C       0.6968790000    -2.4264730000    -0.8307990000
   10      C      -0.8390390000    -2.0593480000     0.9998560000
   11      C       0.0000000000    -1.4782160000     0.0000000000
   12      H      -1.4037370000    -1.3947830000     1.6734830000
   13      C      -1.4618350000    -6.1879870000     1.7362820000
   14      C      -1.9361190000    -3.7981640000     2.3061830000
   15      N      -2.0939160000    -5.1700030000     2.4915970000
   16      C       2.1045290000    -4.4249870000    -2.5103100000
   17      C       1.6253770000    -2.0366270000    -1.9361530000
   18      N       2.2578730000    -3.0491560000    -2.6914510000
   19      O      -1.7155610000    -7.3531310000     2.0342220000
   20      O      -2.5288580000    -2.9868540000     3.0140440000
   21      O       2.6903850000    -5.2489460000    -3.2096220000
   22      O       1.8918760000    -0.8788290000    -2.2515290000
   23      C      -3.0027110000    -5.5637990000     3.5730320000
   24      H      -3.0326550000    -6.6640850000     3.6069320000
   25      H      -4.0103260000    -5.1471010000     3.3828880000
   26      H      -2.6407110000    -5.1487850000     4.5331250000
   27      C       3.1524080000    -2.5874870000    -3.7568320000
   28      H       3.5646530000    -3.4833290000    -4.2497780000
   29      H       3.9609050000    -1.9649720000    -3.3287590000
   30      H       2.5914220000    -1.9629320000    -4.4777090000
   31      H       0.0442450000    -7.8223180000    -0.0555240000
   32      C       0.0000000000     0.0000000000     0.0000000000
   33      S       0.0689290000     0.7901700000     1.5805300000
   34      C       0.2116390000     2.4216550000     0.9049110000
   35      C       0.0868130000     0.9942070000    -0.9854000000
   36      C       0.2017820000     2.3094330000    -0.4935280000
   37      H       0.0662990000     0.7594540000    -2.0599340000
   38      H       0.2784880000     3.1870200000    -1.1525930000
   39      H       0.2883120000     3.2989920000     1.5560250000
 ----------------------------------------------------------------

   10   -1570.6910561994      7.27e-07  Convergence criterion met
 Total energy in the final basis set =    -1570.6910561994
        RIMP2         total energy =     -1575.3166652846 a.u.

                    Orbital Energies (a.u.)
 --------------------------------------------------------------

 Alpha MOs
 -- Occupied --
-91.9940 -20.5586 -20.5563 -20.5544 -20.5544 -15.6312 -15.6303 -11.4001
-11.3957 -11.3920 -11.3907 -11.3177 -11.3026 -11.3025 -11.3005 -11.2973
-11.2965 -11.2906 -11.2869 -11.2869 -11.2850 -11.2799 -11.2782 -11.2646
-11.2645 -11.2570 -11.2508  -8.9934  -6.6742  -6.6738  -6.6731  -1.4249
 -1.4236  -1.4042  -1.4026  -1.2674  -1.2649  -1.2173  -1.1761  -1.1444
 -1.1170  -1.0635  -1.0497  -0.9928  -0.9899  -0.9850  -0.9589  -0.9481
 -0.8970  -0.8793  -0.8780  -0.8612  -0.7962  -0.7780  -0.7728  -0.7611
 -0.7369  -0.7177  -0.7048  -0.6946  -0.6809  -0.6730  -0.6663  -0.6620
 -0.6564  -0.6419  -0.6369  -0.6330  -0.6290  -0.6127  -0.5876  -0.5842
 -0.5783  -0.5735  -0.5654  -0.5630  -0.5610  -0.5554  -0.5521  -0.5480
 -0.5371  -0.5258  -0.5217  -0.5186  -0.4831  -0.4698  -0.4662  -0.4638
 -0.4598  -0.4530  -0.4283  -0.4183  -0.4091  -0.3700  -0.3534  -0.3365
 -0.3051

          Ground-State Mulliken Net Atomic Charges

     Atom                 Charge (a.u.)
  ----------------------------------------
      1 C                    -0.138493
      2 C                    -0.108109
      3 C                    -0.039015
      4 C                    -0.004981
      5 H                     0.188583
      6 C                    -0.005524
      7 C                     0.076073
      8 C                     0.021328
      9 C                    -0.039180
     10 C                    -0.180807
     11 C                     0.121074
     12 H                     0.178506
     13 C                     0.360643
     14 C                     0.368451
     15 N                    -0.101603
     16 C                     0.360055
     17 C                     0.357072
     18 N                    -0.093157
     19 O                    -0.464453
     20 O                    -0.475992
     21 O                    -0.481846
     22 O                    -0.464595
     23 C                    -0.200941
     24 H                     0.141039
     25 H                     0.112423
     26 H                     0.112495
     27 C                    -0.196628
     28 H                     0.133945
     29 H                     0.113201
     30 H                     0.112065
     31 H                     0.213593
     32 C                    -0.062726
     33 S                     0.031873
     34 C                    -0.201655
     35 C                    -0.128595
     36 C                    -0.211363
     37 H                     0.191319
     38 H                     0.191451
     39 H                     0.214475
  ----------------------------------------
  Sum of atomic charges =     0.000000

                    Cartesian Multipole Moments
 -----------------------------------------------------------------
    Charge (ESU x 10^10)
                -0.0000
    Dipole Moment (Debye)
         X       0.1387      Y       1.6340      Z      -0.9256
       Tot       1.8831
    Quadrupole Moments (Debye-Ang)
        XX    -172.5804     XY       0.8707     YY    -165.9794
        XZ      10.2971     YZ       0.9521     ZZ    -169.5934

 Total job time:  256.16s(wall), 7475.22s(cpu)
        *  Thank you very much for using Q-Chem.  Have a nice day.  *
