 Q-Chem 5.4, Q-Chem, Inc., Pleasanton, CA (2021)
 Q-Chem 5.4.0 for Intel X86 EM64T Linux

User input:
--------------------------------------------------------------
$molecule
0 1
C	-0.086486	-6.741404	0.241938
C	-0.532960	-6.155638	1.468983
C	0.284733	-5.791452	-0.776651
C	-0.628455	-4.803786	1.730681
H	-0.833086	-6.821518	2.294130
C	0.184300	-4.378638	-0.502775
C	-0.271086	-3.838032	0.747353
C	0.541191	-3.413062	-1.484986
C	-0.370703	-2.426473	1.019042
C	0.446468	-2.059348	-1.226525
C	0.000000	-1.478216	0.000000
H	0.746717	-1.394783	-2.052666
C	0.779832	-6.187987	-2.131549
C	1.030596	-3.798164	-2.829295
N	1.115461	-5.170003	-3.057496
C	-1.119034	-4.424987	3.078712
C	-0.865151	-2.036627	2.375300
N	-1.201176	-3.049156	3.301374
O	0.916355	-7.353131	-2.498300
O	1.345486	-2.986854	-3.697195
O	-1.430379	-5.248946	3.936224
O	-1.007714	-0.878829	2.762805
C	1.599576	-5.563799	-4.384539
H	1.616121	-6.664085	-4.426636
H	2.611458	-5.147101	-4.550487
H	0.931037	-5.148785	-5.162921
C	-1.677382	-2.587487	4.608454
H	-1.896168	-3.483329	5.212668
H	-2.583531	-1.964972	4.482719
H	-0.903674	-1.962932	5.093988
H	-0.022586	-7.822318	0.067309
C	0.000000	0.000000	0.000000
S	0.509686	0.607733	1.580530
C	1.562368	1.862312	0.904911
C	0.641367	0.764613	-0.985400
C	1.489926	1.776040	-0.493528
H	0.489914	0.584081	-2.059934
H	2.056124	2.450920	-1.152593
H	2.128395	2.537007	1.556025
$end

$rem
JOBTYPE		SP
EXCHANGE	HF
CORRELATION	pRIMP2
BASIS		cc-pvtz
METHOD		rimp2
AUX_BASIS	rimp2-cc-pvtz
SOLVENT_METHOD	PCM
PURECART	11111
SYMMETRY	false
MEM_TOTAL	110000
SCF_CONVERGENCE = 6
THRESH=10
GUI = 2
$end

$solvent
dielectric 4.90
$end
--------------------------------------------------------------

             Standard Nuclear Orientation (Angstroms)
    I     Atom           X                Y                Z
 ----------------------------------------------------------------
    1      C      -0.0864860000    -6.7414040000     0.2419380000
    2      C      -0.5329600000    -6.1556380000     1.4689830000
    3      C       0.2847330000    -5.7914520000    -0.7766510000
    4      C      -0.6284550000    -4.8037860000     1.7306810000
    5      H      -0.8330860000    -6.8215180000     2.2941300000
    6      C       0.1843000000    -4.3786380000    -0.5027750000
    7      C      -0.2710860000    -3.8380320000     0.7473530000
    8      C       0.5411910000    -3.4130620000    -1.4849860000
    9      C      -0.3707030000    -2.4264730000     1.0190420000
   10      C       0.4464680000    -2.0593480000    -1.2265250000
   11      C       0.0000000000    -1.4782160000     0.0000000000
   12      H       0.7467170000    -1.3947830000    -2.0526660000
   13      C       0.7798320000    -6.1879870000    -2.1315490000
   14      C       1.0305960000    -3.7981640000    -2.8292950000
   15      N       1.1154610000    -5.1700030000    -3.0574960000
   16      C      -1.1190340000    -4.4249870000     3.0787120000
   17      C      -0.8651510000    -2.0366270000     2.3753000000
   18      N      -1.2011760000    -3.0491560000     3.3013740000
   19      O       0.9163550000    -7.3531310000    -2.4983000000
   20      O       1.3454860000    -2.9868540000    -3.6971950000
   21      O      -1.4303790000    -5.2489460000     3.9362240000
   22      O      -1.0077140000    -0.8788290000     2.7628050000
   23      C       1.5995760000    -5.5637990000    -4.3845390000
   24      H       1.6161210000    -6.6640850000    -4.4266360000
   25      H       2.6114580000    -5.1471010000    -4.5504870000
   26      H       0.9310370000    -5.1487850000    -5.1629210000
   27      C      -1.6773820000    -2.5874870000     4.6084540000
   28      H      -1.8961680000    -3.4833290000     5.2126680000
   29      H      -2.5835310000    -1.9649720000     4.4827190000
   30      H      -0.9036740000    -1.9629320000     5.0939880000
   31      H      -0.0225860000    -7.8223180000     0.0673090000
   32      C       0.0000000000     0.0000000000     0.0000000000
   33      S       0.5096860000     0.6077330000     1.5805300000
   34      C       1.5623680000     1.8623120000     0.9049110000
   35      C       0.6413670000     0.7646130000    -0.9854000000
   36      C       1.4899260000     1.7760400000    -0.4935280000
   37      H       0.4899140000     0.5840810000    -2.0599340000
   38      H       2.0561240000     2.4509200000    -1.1525930000
   39      H       2.1283950000     2.5370070000     1.5560250000
 ----------------------------------------------------------------

   11   -1570.6529209303      4.45e-07  Convergence criterion met
 Total energy in the final basis set =    -1570.6529209303
        RIMP2         total energy =     -1575.2900715753 a.u.

                    Orbital Energies (a.u.)
 --------------------------------------------------------------

 Alpha MOs
 -- Occupied --
-91.9852 -20.5582 -20.5564 -20.5556 -20.5520 -15.6309 -15.6292 -11.3993
-11.3951 -11.3904 -11.3898 -11.3202 -11.3008 -11.2986 -11.2925 -11.2921
-11.2912 -11.2899 -11.2857 -11.2828 -11.2808 -11.2774 -11.2748 -11.2712
-11.2645 -11.2638 -11.2505  -8.9847  -6.6652  -6.6643  -6.6637  -1.4260
 -1.4246  -1.4040  -1.4037  -1.2669  -1.2647  -1.2156  -1.1803  -1.1417
 -1.1144  -1.0614  -1.0474  -0.9920  -0.9905  -0.9885  -0.9579  -0.9461
 -0.8953  -0.8779  -0.8752  -0.8603  -0.7924  -0.7766  -0.7752  -0.7651
 -0.7317  -0.7186  -0.7048  -0.6928  -0.6861  -0.6744  -0.6660  -0.6619
 -0.6556  -0.6394  -0.6356  -0.6339  -0.6257  -0.6136  -0.5857  -0.5838
 -0.5813  -0.5719  -0.5712  -0.5659  -0.5638  -0.5552  -0.5547  -0.5482
 -0.5323  -0.5274  -0.5178  -0.5143  -0.4877  -0.4730  -0.4621  -0.4592
 -0.4565  -0.4342  -0.4237  -0.4138  -0.4071  -0.3743  -0.3522  -0.3351
 -0.2983

          Ground-State Mulliken Net Atomic Charges

     Atom                 Charge (a.u.)
  ----------------------------------------
      1 C                    -0.152384
      2 C                    -0.109987
      3 C                    -0.025655
      4 C                    -0.006078
      5 H                     0.187503
      6 C                    -0.008296
      7 C                     0.079854
      8 C                     0.016667
      9 C                    -0.093338
     10 C                    -0.144766
     11 C                     0.080192
     12 H                     0.177584
     13 C                     0.358389
     14 C                     0.363643
     15 N                    -0.101614
     16 C                     0.356788
     17 C                     0.374989
     18 N                    -0.093650
     19 O                    -0.464301
     20 O                    -0.478775
     21 O                    -0.484714
     22 O                    -0.477621
     23 C                    -0.201454
     24 H                     0.141192
     25 H                     0.112089
     26 H                     0.112202
     27 C                    -0.197688
     28 H                     0.134097
     29 H                     0.112613
     30 H                     0.112640
     31 H                     0.211560
     32 C                    -0.022943
     33 S                     0.101570
     34 C                    -0.187610
     35 C                    -0.165112
     36 C                    -0.213050
     37 H                     0.191448
     38 H                     0.191166
     39 H                     0.212852
  ----------------------------------------
  Sum of atomic charges =     0.000000

                    Cartesian Multipole Moments
 -----------------------------------------------------------------
    Charge (ESU x 10^10)
                 0.0000
    Dipole Moment (Debye)
         X       1.7193      Y       2.2735      Z      -0.7819
       Tot       2.9557
    Quadrupole Moments (Debye-Ang)
        XX    -161.7274     XY       5.6184     YY    -176.2828
        XZ       7.4488     YZ       1.1871     ZZ    -175.0404

 Total job time:  282.01s(wall), 8513.33s(cpu)
        *  Thank you very much for using Q-Chem.  Have a nice day.  *
