 Q-Chem 5.4, Q-Chem, Inc., Pleasanton, CA (2021)
 Q-Chem 5.4.0 for Intel X86 EM64T Linux

User input:
--------------------------------------------------------------
$molecule
0 1
C	-0.195868	-6.741404	0.166281
C	-1.196048	-6.155638	1.005696
C	0.634911	-5.791452	-0.530233
C	-1.409599	-4.803786	1.184587
H	-1.868538	-6.821518	1.570232
C	0.410996	-4.378638	-0.343266
C	-0.608444	-3.838032	0.511683
C	1.211179	-3.413062	-1.015440
C	-0.830559	-2.426473	0.697165
C	0.999915	-2.059348	-0.838968
C	-0.000000	-1.478216	-0.000000
H	1.673009	-1.394783	-1.404302
C	1.741129	-6.187987	-1.456059
C	2.307170	-3.798164	-1.934944
N	2.494766	-5.170003	-2.090139
C	-2.508468	-4.424987	2.106725
C	-1.936893	-2.036627	1.624494
N	-2.690936	-3.049156	2.258486
O	2.042736	-7.353131	-1.705414
O	3.013823	-2.986854	-2.529122
O	-3.206857	-5.248946	2.693680
O	-2.254108	-0.878829	1.888802
C	3.577543	-5.563799	-2.997334
H	3.612920	-6.664085	-3.025519
H	4.536833	-5.147101	-2.635109
H	3.387762	-5.148785	-4.005702
C	-3.756883	-2.587487	3.152347
H	-4.248464	-3.483329	3.566218
H	-4.478763	-1.964972	2.590383
H	-3.329599	-1.962932	3.959687
H	-0.053215	-7.822318	0.046998
C	0.000000	0.000000	0.000000
S	0.335026	0.718942	1.580530
C	1.027130	2.203226	0.904911
C	0.421617	0.904557	-0.985400
C	0.979485	2.101144	-0.493528
H	0.322049	0.690978	-2.059934
H	1.351718	2.899571	-1.152593
H	1.399246	3.001430	1.556025
$end

$rem
JOBTYPE		SP
EXCHANGE	HF
CORRELATION	pRIMP2
BASIS		cc-pvtz
METHOD		rimp2
AUX_BASIS	rimp2-cc-pvtz
SOLVENT_METHOD	PCM
PURECART	11111
SYMMETRY	false
MEM_TOTAL	110000
SCF_CONVERGENCE = 6
THRESH=10
GUI = 2
$end

$solvent
dielectric 4.90
$end
--------------------------------------------------------------

             Standard Nuclear Orientation (Angstroms)
    I     Atom           X                Y                Z
 ----------------------------------------------------------------
    1      C      -0.1958680000    -6.7414040000     0.1662810000
    2      C      -1.1960480000    -6.1556380000     1.0056960000
    3      C       0.6349110000    -5.7914520000    -0.5302330000
    4      C      -1.4095990000    -4.8037860000     1.1845870000
    5      H      -1.8685380000    -6.8215180000     1.5702320000
    6      C       0.4109960000    -4.3786380000    -0.3432660000
    7      C      -0.6084440000    -3.8380320000     0.5116830000
    8      C       1.2111790000    -3.4130620000    -1.0154400000
    9      C      -0.8305590000    -2.4264730000     0.6971650000
   10      C       0.9999150000    -2.0593480000    -0.8389680000
   11      C       0.0000000000    -1.4782160000     0.0000000000
   12      H       1.6730090000    -1.3947830000    -1.4043020000
   13      C       1.7411290000    -6.1879870000    -1.4560590000
   14      C       2.3071700000    -3.7981640000    -1.9349440000
   15      N       2.4947660000    -5.1700030000    -2.0901390000
   16      C      -2.5084680000    -4.4249870000     2.1067250000
   17      C      -1.9368930000    -2.0366270000     1.6244940000
   18      N      -2.6909360000    -3.0491560000     2.2584860000
   19      O       2.0427360000    -7.3531310000    -1.7054140000
   20      O       3.0138230000    -2.9868540000    -2.5291220000
   21      O      -3.2068570000    -5.2489460000     2.6936800000
   22      O      -2.2541080000    -0.8788290000     1.8888020000
   23      C       3.5775430000    -5.5637990000    -2.9973340000
   24      H       3.6129200000    -6.6640850000    -3.0255190000
   25      H       4.5368330000    -5.1471010000    -2.6351090000
   26      H       3.3877620000    -5.1487850000    -4.0057020000
   27      C      -3.7568830000    -2.5874870000     3.1523470000
   28      H      -4.2484640000    -3.4833290000     3.5662180000
   29      H      -4.4787630000    -1.9649720000     2.5903830000
   30      H      -3.3295990000    -1.9629320000     3.9596870000
   31      H      -0.0532150000    -7.8223180000     0.0469980000
   32      C       0.0000000000     0.0000000000     0.0000000000
   33      S       0.3350260000     0.7189420000     1.5805300000
   34      C       1.0271300000     2.2032260000     0.9049110000
   35      C       0.4216170000     0.9045570000    -0.9854000000
   36      C       0.9794850000     2.1011440000    -0.4935280000
   37      H       0.3220490000     0.6909780000    -2.0599340000
   38      H       1.3517180000     2.8995710000    -1.1525930000
   39      H       1.3992460000     3.0014300000     1.5560250000
 ----------------------------------------------------------------

   10   -1570.6827129618      7.69e-07  Convergence criterion met
 Total energy in the final basis set =    -1570.6827129618
        RIMP2         total energy =     -1575.3105541929 a.u.

                    Orbital Energies (a.u.)
 --------------------------------------------------------------

 Alpha MOs
 -- Occupied --
-91.9905 -20.5587 -20.5566 -20.5556 -20.5543 -15.6314 -15.6302 -11.4002
-11.3960 -11.3919 -11.3909 -11.3173 -11.3026 -11.3023 -11.3004 -11.2973
-11.2968 -11.2901 -11.2867 -11.2864 -11.2851 -11.2800 -11.2775 -11.2648
-11.2641 -11.2610 -11.2508  -8.9898  -6.6705  -6.6700  -6.6694  -1.4251
 -1.4238  -1.4044  -1.4029  -1.2675  -1.2649  -1.2173  -1.1773  -1.1437
 -1.1171  -1.0629  -1.0496  -0.9928  -0.9900  -0.9856  -0.9589  -0.9477
 -0.8969  -0.8791  -0.8773  -0.8605  -0.7948  -0.7768  -0.7737  -0.7634
 -0.7336  -0.7180  -0.7057  -0.6945  -0.6822  -0.6744  -0.6663  -0.6621
 -0.6567  -0.6413  -0.6373  -0.6332  -0.6288  -0.6132  -0.5845  -0.5843
 -0.5788  -0.5733  -0.5670  -0.5653  -0.5641  -0.5553  -0.5535  -0.5483
 -0.5315  -0.5242  -0.5222  -0.5173  -0.4837  -0.4724  -0.4655  -0.4596
 -0.4591  -0.4522  -0.4281  -0.4181  -0.4087  -0.3657  -0.3517  -0.3365
 -0.3089

          Ground-State Mulliken Net Atomic Charges

     Atom                 Charge (a.u.)
  ----------------------------------------
      1 C                    -0.137062
      2 C                    -0.108353
      3 C                    -0.037884
      4 C                    -0.003154
      5 H                     0.188712
      6 C                     0.000971
      7 C                     0.078206
      8 C                     0.003608
      9 C                    -0.049871
     10 C                    -0.128905
     11 C                     0.074485
     12 H                     0.187668
     13 C                     0.359630
     14 C                     0.364173
     15 N                    -0.101511
     16 C                     0.358869
     17 C                     0.351362
     18 N                    -0.095988
     19 O                    -0.464523
     20 O                    -0.476659
     21 O                    -0.481325
     22 O                    -0.463471
     23 C                    -0.201204
     24 H                     0.141184
     25 H                     0.112424
     26 H                     0.112231
     27 C                    -0.196512
     28 H                     0.133585
     29 H                     0.113292
     30 H                     0.113002
     31 H                     0.213674
     32 C                    -0.010494
     33 S                     0.062361
     34 C                    -0.204123
     35 C                    -0.218949
     36 C                    -0.190062
     37 H                     0.195748
     38 H                     0.192708
     39 H                     0.212158
  ----------------------------------------
  Sum of atomic charges =     0.000000

                    Cartesian Multipole Moments
 -----------------------------------------------------------------
    Charge (ESU x 10^10)
                 0.0000
    Dipole Moment (Debye)
         X       1.0020      Y       1.3100      Z      -0.8719
       Tot       1.8656
    Quadrupole Moments (Debye-Ang)
        XX    -174.2189     XY       4.8647     YY    -167.9197
        XZ      10.4532     YZ       0.5044     ZZ    -165.6966

 Total job time:  268.48s(wall), 8383.95s(cpu)
        *  Thank you very much for using Q-Chem.  Have a nice day.  *
