 Q-Chem 5.4, Q-Chem, Inc., Pleasanton, CA (2021)
 Q-Chem 5.4.0 for Intel X86 EM64T Linux

User input:
--------------------------------------------------------------
$molecule
0 1
C	0.221766	-6.741404	-0.129743
C	1.352515	-6.155638	-0.782726
C	-0.717339	-5.791452	0.411926
C	1.593885	-4.803786	-0.921816
H	2.112819	-6.821518	-1.221908
C	-0.464360	-4.378638	0.266682
C	0.688053	-3.838032	-0.398255
C	-1.369108	-3.413062	0.789694
C	0.939002	-2.426473	-0.542349
C	-1.130409	-2.059348	0.652589
C	0.000000	-1.478216	0.000000
H	-1.891446	-1.394783	1.092453
C	-1.967519	-6.187987	1.131595
C	-2.608118	-3.798164	1.504912
N	-2.819813	-5.170003	1.625174
C	2.836188	-4.424987	-1.639129
C	2.189558	-2.036627	-1.263477
N	3.042237	-3.049156	-1.756898
O	-2.307845	-7.353131	1.324787
O	-3.407213	-2.986854	1.967354
O	3.625890	-5.248946	-2.095892
O	2.547850	-0.878829	-1.468685
C	-4.043674	-5.563799	2.330564
H	-4.083407	-6.664085	2.352178
H	-4.925490	-5.147101	1.807263
H	-4.031877	-5.148785	3.356568
C	4.247206	-2.587487	-2.452080
H	4.803187	-3.483329	-2.774302
H	4.860536	-1.964972	-1.773301
H	3.966607	-1.962932	-3.321351
H	0.060567	-7.822318	-0.037043
C	0.000000	0.000000	0.000000
S	0.205093	0.766196	1.580530
C	0.628939	2.348114	0.904911
C	0.258137	0.964028	-0.985400
C	0.599745	2.239309	-0.493528
H	0.197169	0.736404	-2.059934
H	0.827678	3.090243	-1.152593
H	0.856796	3.198808	1.556025
$end

$rem
JOBTYPE		SP
EXCHANGE	HF
CORRELATION	pRIMP2
BASIS		cc-pvtz
METHOD		rimp2
AUX_BASIS	rimp2-cc-pvtz
SOLVENT_METHOD	PCM
PURECART	11111
SYMMETRY	false
MEM_TOTAL	110000
SCF_CONVERGENCE = 6
THRESH=10
GUI = 2
$end

$solvent
dielectric 4.90
$end
--------------------------------------------------------------

             Standard Nuclear Orientation (Angstroms)
    I     Atom           X                Y                Z
 ----------------------------------------------------------------
    1      C       0.2217660000    -6.7414040000    -0.1297430000
    2      C       1.3525150000    -6.1556380000    -0.7827260000
    3      C      -0.7173390000    -5.7914520000     0.4119260000
    4      C       1.5938850000    -4.8037860000    -0.9218160000
    5      H       2.1128190000    -6.8215180000    -1.2219080000
    6      C      -0.4643600000    -4.3786380000     0.2666820000
    7      C       0.6880530000    -3.8380320000    -0.3982550000
    8      C      -1.3691080000    -3.4130620000     0.7896940000
    9      C       0.9390020000    -2.4264730000    -0.5423490000
   10      C      -1.1304090000    -2.0593480000     0.6525890000
   11      C       0.0000000000    -1.4782160000     0.0000000000
   12      H      -1.8914460000    -1.3947830000     1.0924530000
   13      C      -1.9675190000    -6.1879870000     1.1315950000
   14      C      -2.6081180000    -3.7981640000     1.5049120000
   15      N      -2.8198130000    -5.1700030000     1.6251740000
   16      C       2.8361880000    -4.4249870000    -1.6391290000
   17      C       2.1895580000    -2.0366270000    -1.2634770000
   18      N       3.0422370000    -3.0491560000    -1.7568980000
   19      O      -2.3078450000    -7.3531310000     1.3247870000
   20      O      -3.4072130000    -2.9868540000     1.9673540000
   21      O       3.6258900000    -5.2489460000    -2.0958920000
   22      O       2.5478500000    -0.8788290000    -1.4686850000
   23      C      -4.0436740000    -5.5637990000     2.3305640000
   24      H      -4.0834070000    -6.6640850000     2.3521780000
   25      H      -4.9254900000    -5.1471010000     1.8072630000
   26      H      -4.0318770000    -5.1487850000     3.3565680000
   27      C       4.2472060000    -2.5874870000    -2.4520800000
   28      H       4.8031870000    -3.4833290000    -2.7743020000
   29      H       4.8605360000    -1.9649720000    -1.7733010000
   30      H       3.9666070000    -1.9629320000    -3.3213510000
   31      H       0.0605670000    -7.8223180000    -0.0370430000
   32      C       0.0000000000     0.0000000000     0.0000000000
   33      S       0.2050930000     0.7661960000     1.5805300000
   34      C       0.6289390000     2.3481140000     0.9049110000
   35      C       0.2581370000     0.9640280000    -0.9854000000
   36      C       0.5997450000     2.2393090000    -0.4935280000
   37      H       0.1971690000     0.7364040000    -2.0599340000
   38      H       0.8276780000     3.0902430000    -1.1525930000
   39      H       0.8567960000     3.1988080000     1.5560250000
 ----------------------------------------------------------------

   10   -1570.6865193894      7.48e-07  Convergence criterion met
 Total energy in the final basis set =    -1570.6865193894
        RIMP2         total energy =     -1575.3119188237 a.u.

                    Orbital Energies (a.u.)
 --------------------------------------------------------------

 Alpha MOs
 -- Occupied --
-91.9934 -20.5586 -20.5561 -20.5549 -20.5546 -15.6311 -15.6305 -11.4001
-11.3959 -11.3925 -11.3904 -11.3156 -11.3048 -11.3027 -11.3008 -11.2983
-11.2978 -11.2873 -11.2861 -11.2860 -11.2851 -11.2804 -11.2775 -11.2647
-11.2644 -11.2565 -11.2501  -8.9926  -6.6734  -6.6730  -6.6724  -1.4248
 -1.4235  -1.4041  -1.4026  -1.2674  -1.2650  -1.2174  -1.1748  -1.1442
 -1.1173  -1.0630  -1.0498  -0.9929  -0.9893  -0.9835  -0.9591  -0.9484
 -0.8969  -0.8795  -0.8771  -0.8612  -0.7953  -0.7772  -0.7727  -0.7598
 -0.7373  -0.7177  -0.7051  -0.6948  -0.6803  -0.6723  -0.6662  -0.6621
 -0.6566  -0.6422  -0.6371  -0.6334  -0.6295  -0.6124  -0.5860  -0.5842
 -0.5776  -0.5737  -0.5655  -0.5636  -0.5604  -0.5551  -0.5519  -0.5484
 -0.5357  -0.5262  -0.5200  -0.5177  -0.4831  -0.4707  -0.4656  -0.4616
 -0.4598  -0.4532  -0.4280  -0.4180  -0.4088  -0.3616  -0.3522  -0.3354
 -0.3126

          Ground-State Mulliken Net Atomic Charges

     Atom                 Charge (a.u.)
  ----------------------------------------
      1 C                    -0.133995
      2 C                    -0.107516
      3 C                    -0.041988
      4 C                    -0.002741
      5 H                     0.188648
      6 C                    -0.012045
      7 C                     0.078611
      8 C                     0.019267
      9 C                    -0.011443
     10 C                    -0.175608
     11 C                     0.110670
     12 H                     0.183099
     13 C                     0.361220
     14 C                     0.368736
     15 N                    -0.101483
     16 C                     0.359609
     17 C                     0.361540
     18 N                    -0.094375
     19 O                    -0.464840
     20 O                    -0.476064
     21 O                    -0.480686
     22 O                    -0.459168
     23 C                    -0.200973
     24 H                     0.140998
     25 H                     0.112379
     26 H                     0.112539
     27 C                    -0.196388
     28 H                     0.133850
     29 H                     0.113407
     30 H                     0.112114
     31 H                     0.214058
     32 C                    -0.085833
     33 S                     0.034948
     34 C                    -0.203589
     35 C                    -0.142428
     36 C                    -0.203006
     37 H                     0.185192
     38 H                     0.190374
     39 H                     0.212913
  ----------------------------------------
  Sum of atomic charges =     0.000000

                    Cartesian Multipole Moments
 -----------------------------------------------------------------
    Charge (ESU x 10^10)
                 0.0000
    Dipole Moment (Debye)
         X       0.6334      Y       1.2378      Z      -1.0281
       Tot       1.7293
    Quadrupole Moments (Debye-Ang)
        XX    -178.8147     XY       2.3166     YY    -165.7108
        XZ       9.0955     YZ       1.0539     ZZ    -162.5948

 Total job time:  263.85s(wall), 7544.08s(cpu)
        *  Thank you very much for using Q-Chem.  Have a nice day.  *
