 Q-Chem 5.4, Q-Chem, Inc., Pleasanton, CA (2021)
 Q-Chem 5.4.0 for Intel X86 EM64T Linux

User input:
--------------------------------------------------------------
$molecule
0 1
C	0.086486	-6.741404	-0.241938
C	0.532960	-6.155638	-1.468983
C	-0.284733	-5.791452	0.776651
C	0.628455	-4.803786	-1.730681
H	0.833086	-6.821518	-2.294130
C	-0.184300	-4.378638	0.502775
C	0.271086	-3.838032	-0.747353
C	-0.541191	-3.413062	1.484986
C	0.370703	-2.426473	-1.019042
C	-0.446468	-2.059348	1.226525
C	-0.000000	-1.478216	-0.000000
H	-0.746717	-1.394783	2.052666
C	-0.779832	-6.187987	2.131549
C	-1.030596	-3.798164	2.829295
N	-1.115461	-5.170003	3.057496
C	1.119034	-4.424987	-3.078712
C	0.865151	-2.036627	-2.375300
N	1.201176	-3.049156	-3.301374
O	-0.916355	-7.353131	2.498300
O	-1.345486	-2.986854	3.697195
O	1.430379	-5.248946	-3.936224
O	1.007714	-0.878829	-2.762805
C	-1.599576	-5.563799	4.384539
H	-1.616121	-6.664085	4.426636
H	-2.611458	-5.147101	4.550487
H	-0.931037	-5.148785	5.162921
C	1.677382	-2.587487	-4.608454
H	1.896168	-3.483329	-5.212668
H	2.583531	-1.964972	-4.482719
H	0.903674	-1.962932	-5.093988
H	0.022586	-7.822318	-0.067309
C	0.000000	0.000000	0.000000
S	0.335026	0.718942	1.580530
C	1.027130	2.203226	0.904911
C	0.421617	0.904557	-0.985400
C	0.979485	2.101144	-0.493528
H	0.322049	0.690978	-2.059934
H	1.351718	2.899571	-1.152593
H	1.399246	3.001430	1.556025
$end

$rem
JOBTYPE		SP
EXCHANGE	HF
CORRELATION	pRIMP2
BASIS		cc-pvtz
METHOD		rimp2
AUX_BASIS	rimp2-cc-pvtz
SOLVENT_METHOD	PCM
PURECART	11111
SYMMETRY	false
MEM_TOTAL	110000
SCF_CONVERGENCE = 6
THRESH=10
GUI = 2
$end

$solvent
dielectric 4.90
$end
--------------------------------------------------------------

             Standard Nuclear Orientation (Angstroms)
    I     Atom           X                Y                Z
 ----------------------------------------------------------------
    1      C       0.0864860000    -6.7414040000    -0.2419380000
    2      C       0.5329600000    -6.1556380000    -1.4689830000
    3      C      -0.2847330000    -5.7914520000     0.7766510000
    4      C       0.6284550000    -4.8037860000    -1.7306810000
    5      H       0.8330860000    -6.8215180000    -2.2941300000
    6      C      -0.1843000000    -4.3786380000     0.5027750000
    7      C       0.2710860000    -3.8380320000    -0.7473530000
    8      C      -0.5411910000    -3.4130620000     1.4849860000
    9      C       0.3707030000    -2.4264730000    -1.0190420000
   10      C      -0.4464680000    -2.0593480000     1.2265250000
   11      C       0.0000000000    -1.4782160000     0.0000000000
   12      H      -0.7467170000    -1.3947830000     2.0526660000
   13      C      -0.7798320000    -6.1879870000     2.1315490000
   14      C      -1.0305960000    -3.7981640000     2.8292950000
   15      N      -1.1154610000    -5.1700030000     3.0574960000
   16      C       1.1190340000    -4.4249870000    -3.0787120000
   17      C       0.8651510000    -2.0366270000    -2.3753000000
   18      N       1.2011760000    -3.0491560000    -3.3013740000
   19      O      -0.9163550000    -7.3531310000     2.4983000000
   20      O      -1.3454860000    -2.9868540000     3.6971950000
   21      O       1.4303790000    -5.2489460000    -3.9362240000
   22      O       1.0077140000    -0.8788290000    -2.7628050000
   23      C      -1.5995760000    -5.5637990000     4.3845390000
   24      H      -1.6161210000    -6.6640850000     4.4266360000
   25      H      -2.6114580000    -5.1471010000     4.5504870000
   26      H      -0.9310370000    -5.1487850000     5.1629210000
   27      C       1.6773820000    -2.5874870000    -4.6084540000
   28      H       1.8961680000    -3.4833290000    -5.2126680000
   29      H       2.5835310000    -1.9649720000    -4.4827190000
   30      H       0.9036740000    -1.9629320000    -5.0939880000
   31      H       0.0225860000    -7.8223180000    -0.0673090000
   32      C       0.0000000000     0.0000000000     0.0000000000
   33      S       0.3350260000     0.7189420000     1.5805300000
   34      C       1.0271300000     2.2032260000     0.9049110000
   35      C       0.4216170000     0.9045570000    -0.9854000000
   36      C       0.9794850000     2.1011440000    -0.4935280000
   37      H       0.3220490000     0.6909780000    -2.0599340000
   38      H       1.3517180000     2.8995710000    -1.1525930000
   39      H       1.3992460000     3.0014300000     1.5560250000
 ----------------------------------------------------------------

   10   -1570.6721775235      9.09e-07  Convergence criterion met
 Total energy in the final basis set =    -1570.6721775235
        RIMP2         total energy =     -1575.3019303127 a.u.

                    Orbital Energies (a.u.)
 --------------------------------------------------------------

 Alpha MOs
 -- Occupied --
-91.9932 -20.5582 -20.5560 -20.5534 -20.5531 -15.6308 -15.6301 -11.3994
-11.3965 -11.3908 -11.3903 -11.3192 -11.3014 -11.2992 -11.2961 -11.2942
-11.2939 -11.2928 -11.2866 -11.2848 -11.2823 -11.2782 -11.2775 -11.2648
-11.2642 -11.2553 -11.2500  -8.9931  -6.6738  -6.6733  -6.6727  -1.4251
 -1.4244  -1.4038  -1.4036  -1.2671  -1.2650  -1.2161  -1.1781  -1.1433
 -1.1153  -1.0627  -1.0484  -0.9921  -0.9900  -0.9877  -0.9584  -0.9471
 -0.8965  -0.8786  -0.8770  -0.8611  -0.7956  -0.7783  -0.7727  -0.7627
 -0.7354  -0.7248  -0.7033  -0.6931  -0.6814  -0.6732  -0.6661  -0.6619
 -0.6555  -0.6409  -0.6370  -0.6338  -0.6273  -0.6124  -0.5897  -0.5833
 -0.5775  -0.5733  -0.5655  -0.5631  -0.5602  -0.5557  -0.5534  -0.5467
 -0.5335  -0.5245  -0.5224  -0.5177  -0.4812  -0.4676  -0.4646  -0.4638
 -0.4576  -0.4491  -0.4287  -0.4188  -0.4091  -0.3761  -0.3528  -0.3361
 -0.2992

          Ground-State Mulliken Net Atomic Charges

     Atom                 Charge (a.u.)
  ----------------------------------------
      1 C                    -0.147932
      2 C                    -0.110706
      3 C                    -0.031907
      4 C                    -0.004193
      5 H                     0.187602
      6 C                    -0.006855
      7 C                     0.077988
      8 C                     0.031937
      9 C                    -0.069429
     10 C                    -0.164788
     11 C                     0.079542
     12 H                     0.165873
     13 C                     0.359708
     14 C                     0.365438
     15 N                    -0.101512
     16 C                     0.358799
     17 C                     0.386069
     18 N                    -0.092080
     19 O                    -0.464366
     20 O                    -0.476561
     21 O                    -0.483666
     22 O                    -0.477685
     23 C                    -0.201204
     24 H                     0.140996
     25 H                     0.112346
     26 H                     0.112473
     27 C                    -0.198489
     28 H                     0.134556
     29 H                     0.112410
     30 H                     0.112347
     31 H                     0.212238
     32 C                    -0.020262
     33 S                     0.029763
     34 C                    -0.191151
     35 C                    -0.156632
     36 C                    -0.206297
     37 H                     0.214980
     38 H                     0.193229
     39 H                     0.217424
  ----------------------------------------
  Sum of atomic charges =     0.000000

                    Cartesian Multipole Moments
 -----------------------------------------------------------------
    Charge (ESU x 10^10)
                -0.0000
    Dipole Moment (Debye)
         X       1.1259      Y       2.4212      Z      -0.9133
       Tot       2.8220
    Quadrupole Moments (Debye-Ang)
        XX    -164.2177     XY       4.8466     YY    -171.2971
        XZ       7.0734     YZ       0.3703     ZZ    -175.8417

 Total job time:  272.25s(wall), 8541.59s(cpu)
        *  Thank you very much for using Q-Chem.  Have a nice day.  *
