 Q-Chem 5.4, Q-Chem, Inc., Pleasanton, CA (2021)
 Q-Chem 5.4.0 for Intel X86 EM64T Linux

User input:
--------------------------------------------------------------
$molecule
0 1
C	0.241938	-6.741404	0.086486
C	1.468983	-6.155638	0.532960
C	-0.776651	-5.791452	-0.284733
C	1.730681	-4.803786	0.628455
H	2.294130	-6.821518	0.833086
C	-0.502775	-4.378638	-0.184300
C	0.747353	-3.838032	0.271086
C	-1.484986	-3.413062	-0.541191
C	1.019042	-2.426473	0.370703
C	-1.226525	-2.059348	-0.446468
C	0.000000	-1.478216	0.000000
H	-2.052666	-1.394783	-0.746717
C	-2.131549	-6.187987	-0.779832
C	-2.829295	-3.798164	-1.030596
N	-3.057496	-5.170003	-1.115461
C	3.078712	-4.424987	1.119034
C	2.375300	-2.036627	0.865151
N	3.301374	-3.049156	1.201176
O	-2.498300	-7.353131	-0.916355
O	-3.697195	-2.986854	-1.345486
O	3.936224	-5.248946	1.430379
O	2.762805	-0.878829	1.007714
C	-4.384539	-5.563799	-1.599576
H	-4.426636	-6.664085	-1.616121
H	-4.550487	-5.147101	-2.611458
H	-5.162921	-5.148785	-0.931037
C	4.608454	-2.587487	1.677382
H	5.212668	-3.483329	1.896168
H	4.482719	-1.964972	2.583531
H	5.093988	-1.962932	0.903674
H	0.067309	-7.822318	0.022586
C	0.000000	0.000000	0.000000
S	0.068929	0.790170	1.580530
C	0.211639	2.421655	0.904911
C	0.086813	0.994207	-0.985400
C	0.201782	2.309433	-0.493528
H	0.066299	0.759454	-2.059934
H	0.278488	3.187020	-1.152593
H	0.288312	3.298992	1.556025
$end

$rem
JOBTYPE		SP
EXCHANGE	HF
CORRELATION	pRIMP2
BASIS		cc-pvtz
METHOD		rimp2
AUX_BASIS	rimp2-cc-pvtz
SOLVENT_METHOD	PCM
PURECART	11111
SYMMETRY	false
MEM_TOTAL	110000
SCF_CONVERGENCE = 6
THRESH=10
GUI = 2
$end

$solvent
dielectric 4.90
$end
--------------------------------------------------------------

             Standard Nuclear Orientation (Angstroms)
    I     Atom           X                Y                Z
 ----------------------------------------------------------------
    1      C       0.2419380000    -6.7414040000     0.0864860000
    2      C       1.4689830000    -6.1556380000     0.5329600000
    3      C      -0.7766510000    -5.7914520000    -0.2847330000
    4      C       1.7306810000    -4.8037860000     0.6284550000
    5      H       2.2941300000    -6.8215180000     0.8330860000
    6      C      -0.5027750000    -4.3786380000    -0.1843000000
    7      C       0.7473530000    -3.8380320000     0.2710860000
    8      C      -1.4849860000    -3.4130620000    -0.5411910000
    9      C       1.0190420000    -2.4264730000     0.3707030000
   10      C      -1.2265250000    -2.0593480000    -0.4464680000
   11      C       0.0000000000    -1.4782160000     0.0000000000
   12      H      -2.0526660000    -1.3947830000    -0.7467170000
   13      C      -2.1315490000    -6.1879870000    -0.7798320000
   14      C      -2.8292950000    -3.7981640000    -1.0305960000
   15      N      -3.0574960000    -5.1700030000    -1.1154610000
   16      C       3.0787120000    -4.4249870000     1.1190340000
   17      C       2.3753000000    -2.0366270000     0.8651510000
   18      N       3.3013740000    -3.0491560000     1.2011760000
   19      O      -2.4983000000    -7.3531310000    -0.9163550000
   20      O      -3.6971950000    -2.9868540000    -1.3454860000
   21      O       3.9362240000    -5.2489460000     1.4303790000
   22      O       2.7628050000    -0.8788290000     1.0077140000
   23      C      -4.3845390000    -5.5637990000    -1.5995760000
   24      H      -4.4266360000    -6.6640850000    -1.6161210000
   25      H      -4.5504870000    -5.1471010000    -2.6114580000
   26      H      -5.1629210000    -5.1487850000    -0.9310370000
   27      C       4.6084540000    -2.5874870000     1.6773820000
   28      H       5.2126680000    -3.4833290000     1.8961680000
   29      H       4.4827190000    -1.9649720000     2.5835310000
   30      H       5.0939880000    -1.9629320000     0.9036740000
   31      H       0.0673090000    -7.8223180000     0.0225860000
   32      C       0.0000000000     0.0000000000     0.0000000000
   33      S       0.0689290000     0.7901700000     1.5805300000
   34      C       0.2116390000     2.4216550000     0.9049110000
   35      C       0.0868130000     0.9942070000    -0.9854000000
   36      C       0.2017820000     2.3094330000    -0.4935280000
   37      H       0.0662990000     0.7594540000    -2.0599340000
   38      H       0.2784880000     3.1870200000    -1.1525930000
   39      H       0.2883120000     3.2989920000     1.5560250000
 ----------------------------------------------------------------

   10   -1570.6886505612      7.05e-07  Convergence criterion met
 Total energy in the final basis set =    -1570.6886505612
        RIMP2         total energy =     -1575.3132929785 a.u.

                    Orbital Energies (a.u.)
 --------------------------------------------------------------

 Alpha MOs
 -- Occupied --
-91.9886 -20.5589 -20.5565 -20.5563 -20.5554 -15.6315 -15.6310 -11.4005
-11.3967 -11.3930 -11.3908 -11.3161 -11.3080 -11.3033 -11.3017 -11.2998
-11.2992 -11.2924 -11.2873 -11.2864 -11.2811 -11.2809 -11.2786 -11.2648
-11.2646 -11.2565 -11.2489  -8.9879  -6.6687  -6.6682  -6.6676  -1.4252
 -1.4242  -1.4045  -1.4033  -1.2679  -1.2655  -1.2183  -1.1738  -1.1445
 -1.1184  -1.0634  -1.0507  -0.9934  -0.9890  -0.9820  -0.9595  -0.9488
 -0.8975  -0.8801  -0.8781  -0.8618  -0.7954  -0.7776  -0.7736  -0.7598
 -0.7358  -0.7193  -0.7053  -0.6953  -0.6812  -0.6735  -0.6666  -0.6625
 -0.6574  -0.6425  -0.6380  -0.6342  -0.6305  -0.6130  -0.5853  -0.5846
 -0.5782  -0.5723  -0.5663  -0.5644  -0.5634  -0.5555  -0.5533  -0.5487
 -0.5346  -0.5264  -0.5202  -0.5154  -0.4834  -0.4710  -0.4662  -0.4605
 -0.4585  -0.4534  -0.4285  -0.4184  -0.4093  -0.3561  -0.3505  -0.3354
 -0.3190

          Ground-State Mulliken Net Atomic Charges

     Atom                 Charge (a.u.)
  ----------------------------------------
      1 C                    -0.130219
      2 C                    -0.107992
      3 C                    -0.043411
      4 C                    -0.001166
      5 H                     0.189073
      6 C                    -0.002482
      7 C                     0.073137
      8 C                     0.005085
      9 C                    -0.017649
     10 C                    -0.127446
     11 C                     0.066469
     12 H                     0.181752
     13 C                     0.361072
     14 C                     0.369462
     15 N                    -0.101949
     16 C                     0.359549
     17 C                     0.363443
     18 N                    -0.096243
     19 O                    -0.464715
     20 O                    -0.476429
     21 O                    -0.479936
     22 O                    -0.455696
     23 C                    -0.200933
     24 H                     0.141069
     25 H                     0.112327
     26 H                     0.112677
     27 C                    -0.196038
     28 H                     0.133644
     29 H                     0.113302
     30 H                     0.113278
     31 H                     0.214694
     32 C                    -0.048841
     33 S                     0.040093
     34 C                    -0.207823
     35 C                    -0.179972
     36 C                    -0.203541
     37 H                     0.190721
     38 H                     0.191029
     39 H                     0.210608
  ----------------------------------------
  Sum of atomic charges =     0.000000

                    Cartesian Multipole Moments
 -----------------------------------------------------------------
    Charge (ESU x 10^10)
                 0.0000
    Dipole Moment (Debye)
         X       0.3231      Y       0.7278      Z      -0.8452
       Tot       1.1612
    Quadrupole Moments (Debye-Ang)
        XX    -181.9180     XY       0.0702     YY    -163.9726
        XZ      -6.2324     YZ       0.2778     ZZ    -159.8595

 Total job time:  268.07s(wall), 7766.08s(cpu)
        *  Thank you very much for using Q-Chem.  Have a nice day.  *
