 Q-Chem 5.4, Q-Chem, Inc., Pleasanton, CA (2021)
 Q-Chem 5.4.0 for Intel X86 EM64T Linux

User input:
--------------------------------------------------------------
$molecule
0 1
C	-0.046070	-6.741404	-0.252767
C	-0.272935	-6.155638	-1.538656
C	0.141739	-5.791452	0.814966
C	-0.321083	-4.803786	-1.813042
H	-0.425592	-6.821518	-2.403318
C	0.091779	-4.378638	0.527566
C	-0.138909	-3.838032	-0.782769
C	0.273808	-3.413062	1.556632
C	-0.188483	-2.426473	-1.067868
C	0.226610	-2.059348	1.285436
C	0.000000	-1.478216	0.000000
H	0.379657	-1.394783	2.151019
C	0.390420	-6.187987	2.235891
C	0.522125	-3.798164	2.965540
N	0.562731	-5.170003	3.205600
C	-0.570244	-4.424987	-3.225760
C	-0.438407	-2.036627	-2.489646
N	-0.610438	-3.049156	-3.459662
O	0.455563	-7.353131	2.621768
O	0.683373	-2.986854	3.874608
O	-0.729367	-5.248946	-4.124059
O	-0.508697	-0.878829	-2.896516
C	0.806996	-5.563799	4.596910
H	0.813717	-6.664085	4.641640
H	0.013655	-5.147101	5.246567
H	1.775159	-5.148785	4.936739
C	-0.851572	-2.587487	-4.829729
H	-0.964204	-3.483329	-5.462387
H	-0.003956	-1.964972	-5.173914
H	-1.764390	-1.962932	-4.863360
H	-0.014094	-7.822318	-0.069584
C	0.000000	0.000000	0.000000
S	0.205093	0.766196	1.580530
C	0.628939	2.348114	0.904911
C	0.258137	0.964028	-0.985400
C	0.599745	2.239309	-0.493528
H	0.197169	0.736404	-2.059934
H	0.827678	3.090243	-1.152593
H	0.856796	3.198808	1.556025
$end

$rem
JOBTYPE		SP
EXCHANGE	HF
CORRELATION	pRIMP2
BASIS		cc-pvtz
METHOD		rimp2
AUX_BASIS	rimp2-cc-pvtz
SOLVENT_METHOD	PCM
PURECART	11111
SYMMETRY	false
MEM_TOTAL	110000
SCF_CONVERGENCE = 6
THRESH=10
GUI = 2
$end

$solvent
dielectric 4.90
$end
--------------------------------------------------------------

             Standard Nuclear Orientation (Angstroms)
    I     Atom           X                Y                Z
 ----------------------------------------------------------------
    1      C      -0.0460700000    -6.7414040000    -0.2527670000
    2      C      -0.2729350000    -6.1556380000    -1.5386560000
    3      C       0.1417390000    -5.7914520000     0.8149660000
    4      C      -0.3210830000    -4.8037860000    -1.8130420000
    5      H      -0.4255920000    -6.8215180000    -2.4033180000
    6      C       0.0917790000    -4.3786380000     0.5275660000
    7      C      -0.1389090000    -3.8380320000    -0.7827690000
    8      C       0.2738080000    -3.4130620000     1.5566320000
    9      C      -0.1884830000    -2.4264730000    -1.0678680000
   10      C       0.2266100000    -2.0593480000     1.2854360000
   11      C       0.0000000000    -1.4782160000     0.0000000000
   12      H       0.3796570000    -1.3947830000     2.1510190000
   13      C       0.3904200000    -6.1879870000     2.2358910000
   14      C       0.5221250000    -3.7981640000     2.9655400000
   15      N       0.5627310000    -5.1700030000     3.2056000000
   16      C      -0.5702440000    -4.4249870000    -3.2257600000
   17      C      -0.4384070000    -2.0366270000    -2.4896460000
   18      N      -0.6104380000    -3.0491560000    -3.4596620000
   19      O       0.4555630000    -7.3531310000     2.6217680000
   20      O       0.6833730000    -2.9868540000     3.8746080000
   21      O      -0.7293670000    -5.2489460000    -4.1240590000
   22      O      -0.5086970000    -0.8788290000    -2.8965160000
   23      C       0.8069960000    -5.5637990000     4.5969100000
   24      H       0.8137170000    -6.6640850000     4.6416400000
   25      H       0.0136550000    -5.1471010000     5.2465670000
   26      H       1.7751590000    -5.1487850000     4.9367390000
   27      C      -0.8515720000    -2.5874870000    -4.8297290000
   28      H      -0.9642040000    -3.4833290000    -5.4623870000
   29      H      -0.0039560000    -1.9649720000    -5.1739140000
   30      H      -1.7643900000    -1.9629320000    -4.8633600000
   31      H      -0.0140940000    -7.8223180000    -0.0695840000
   32      C       0.0000000000     0.0000000000     0.0000000000
   33      S       0.2050930000     0.7661960000     1.5805300000
   34      C       0.6289390000     2.3481140000     0.9049110000
   35      C       0.2581370000     0.9640280000    -0.9854000000
   36      C       0.5997450000     2.2393090000    -0.4935280000
   37      H       0.1971690000     0.7364040000    -2.0599340000
   38      H       0.8276780000     3.0902430000    -1.1525930000
   39      H       0.8567960000     3.1988080000     1.5560250000
 ----------------------------------------------------------------

   10   -1570.6825152525      8.03e-07  Convergence criterion met
 Total energy in the final basis set =    -1570.6825152525
        RIMP2         total energy =     -1575.3110362026 a.u.

                    Orbital Energies (a.u.)
 --------------------------------------------------------------

 Alpha MOs
 -- Occupied --
-91.9932 -20.5584 -20.5564 -20.5556 -20.5535 -15.6311 -15.6304 -11.3997
-11.3967 -11.3912 -11.3907 -11.3198 -11.3020 -11.3000 -11.2980 -11.2951
-11.2940 -11.2914 -11.2912 -11.2872 -11.2831 -11.2789 -11.2776 -11.2648
-11.2644 -11.2558 -11.2505  -8.9932  -6.6740  -6.6735  -6.6728  -1.4251
 -1.4247  -1.4041  -1.4037  -1.2674  -1.2652  -1.2169  -1.1784  -1.1439
 -1.1161  -1.0637  -1.0493  -0.9924  -0.9905  -0.9879  -0.9587  -0.9472
 -0.8972  -0.8790  -0.8786  -0.8612  -0.7967  -0.7801  -0.7729  -0.7625
 -0.7357  -0.7221  -0.7035  -0.6943  -0.6821  -0.6740  -0.6664  -0.6622
 -0.6560  -0.6416  -0.6372  -0.6337  -0.6280  -0.6129  -0.5910  -0.5837
 -0.5796  -0.5716  -0.5666  -0.5636  -0.5619  -0.5561  -0.5537  -0.5472
 -0.5367  -0.5256  -0.5245  -0.5146  -0.4821  -0.4690  -0.4657  -0.4615
 -0.4586  -0.4515  -0.4290  -0.4190  -0.4097  -0.3770  -0.3556  -0.3364
 -0.2998

          Ground-State Mulliken Net Atomic Charges

     Atom                 Charge (a.u.)
  ----------------------------------------
      1 C                    -0.144493
      2 C                    -0.111331
      3 C                    -0.028704
      4 C                    -0.004109
      5 H                     0.187965
      6 C                     0.003068
      7 C                     0.072918
      8 C                     0.053883
      9 C                    -0.075496
     10 C                    -0.173332
     11 C                     0.041163
     12 H                     0.170856
     13 C                     0.358063
     14 C                     0.362821
     15 N                    -0.101458
     16 C                     0.359159
     17 C                     0.381208
     18 N                    -0.092961
     19 O                    -0.464208
     20 O                    -0.476732
     21 O                    -0.483304
     22 O                    -0.481008
     23 C                    -0.201222
     24 H                     0.141130
     25 H                     0.112535
     26 H                     0.112436
     27 C                    -0.197972
     28 H                     0.134401
     29 H                     0.112214
     30 H                     0.112928
     31 H                     0.212639
     32 C                     0.002225
     33 S                     0.005597
     34 C                    -0.176092
     35 C                    -0.117797
     36 C                    -0.245281
     37 H                     0.227032
     38 H                     0.192165
     39 H                     0.219095
  ----------------------------------------
  Sum of atomic charges =     0.000000

                    Cartesian Multipole Moments
 -----------------------------------------------------------------
    Charge (ESU x 10^10)
                -0.0000
    Dipole Moment (Debye)
         X       0.7237      Y       2.1997      Z      -0.7673
       Tot       2.4395
    Quadrupole Moments (Debye-Ang)
        XX    -163.8063     XY       2.8515     YY    -168.7024
        XZ      -3.3569     YZ       0.5326     ZZ    -177.5393

 Total job time:  295.19s(wall), 9389.63s(cpu)
        *  Thank you very much for using Q-Chem.  Have a nice day.  *
