 Q-Chem 5.4, Q-Chem, Inc., Pleasanton, CA (2021)
 Q-Chem 5.4.0 for Intel X86 EM64T Linux

User input:
--------------------------------------------------------------
$molecule
0 1
C	0.089263	-6.741404	0.240927
C	0.535973	-6.155638	1.467886
C	-0.281103	-5.791452	-0.777972
C	0.631036	-4.803786	1.729742
H	0.836458	-6.821518	2.292903
C	-0.181995	-4.378638	-0.503614
C	0.272725	-3.838032	0.746756
C	-0.539954	-3.413062	-1.485437
C	0.371053	-2.426473	1.018915
C	-0.446381	-2.059348	-1.226557
C	0.000000	-1.478216	0.000000
H	-0.747410	-1.394783	-2.052413
C	-0.772747	-6.187987	-2.134128
C	-1.029154	-3.798164	-2.829820
N	-1.110828	-5.170003	-3.059182
C	1.121728	-4.424987	3.077731
C	0.864069	-2.036627	2.375694
N	1.201928	-3.049156	3.301101
O	-0.903908	-7.353131	-2.502830
O	-1.345809	-2.986854	-3.697078
O	1.434422	-5.248946	3.934752
O	1.003943	-0.878829	2.764177
C	-1.592981	-5.563799	-4.386939
H	-1.607367	-6.664085	-4.429822
H	-0.924504	-5.147101	-5.164489
H	-2.605446	-5.148785	-4.553486
C	1.677308	-2.587487	4.608481
H	1.898089	-3.483329	5.211969
H	0.902337	-1.964972	5.094624
H	2.582098	-1.962932	4.483092
H	0.025963	-7.822318	0.066080
C	0.000000	0.000000	0.000000
S	0.137535	0.781156	1.580530
C	0.421895	2.393994	0.904911
C	0.173134	0.982857	-0.985400
C	0.402294	2.283058	-0.493528
H	0.132237	0.750786	-2.059934
H	0.555196	3.150621	-1.152593
H	0.574741	3.261310	1.556025
$end

$rem
JOBTYPE		SP
EXCHANGE	HF
CORRELATION	pRIMP2
BASIS		cc-pvtz
METHOD		rimp2
AUX_BASIS	rimp2-cc-pvtz
SOLVENT_METHOD	PCM
PURECART	11111
SYMMETRY	false
MEM_TOTAL	110000
SCF_CONVERGENCE = 6
THRESH=10
GUI = 2
$end

$solvent
dielectric 4.90
$end
--------------------------------------------------------------

             Standard Nuclear Orientation (Angstroms)
    I     Atom           X                Y                Z
 ----------------------------------------------------------------
    1      C       0.0892630000    -6.7414040000     0.2409270000
    2      C       0.5359730000    -6.1556380000     1.4678860000
    3      C      -0.2811030000    -5.7914520000    -0.7779720000
    4      C       0.6310360000    -4.8037860000     1.7297420000
    5      H       0.8364580000    -6.8215180000     2.2929030000
    6      C      -0.1819950000    -4.3786380000    -0.5036140000
    7      C       0.2727250000    -3.8380320000     0.7467560000
    8      C      -0.5399540000    -3.4130620000    -1.4854370000
    9      C       0.3710530000    -2.4264730000     1.0189150000
   10      C      -0.4463810000    -2.0593480000    -1.2265570000
   11      C       0.0000000000    -1.4782160000     0.0000000000
   12      H      -0.7474100000    -1.3947830000    -2.0524130000
   13      C      -0.7727470000    -6.1879870000    -2.1341280000
   14      C      -1.0291540000    -3.7981640000    -2.8298200000
   15      N      -1.1108280000    -5.1700030000    -3.0591820000
   16      C       1.1217280000    -4.4249870000     3.0777310000
   17      C       0.8640690000    -2.0366270000     2.3756940000
   18      N       1.2019280000    -3.0491560000     3.3011010000
   19      O      -0.9039080000    -7.3531310000    -2.5028300000
   20      O      -1.3458090000    -2.9868540000    -3.6970780000
   21      O       1.4344220000    -5.2489460000     3.9347520000
   22      O       1.0039430000    -0.8788290000     2.7641770000
   23      C      -1.5929810000    -5.5637990000    -4.3869390000
   24      H      -1.6073670000    -6.6640850000    -4.4298220000
   25      H      -0.9245040000    -5.1471010000    -5.1644890000
   26      H      -2.6054460000    -5.1487850000    -4.5534860000
   27      C       1.6773080000    -2.5874870000     4.6084810000
   28      H       1.8980890000    -3.4833290000     5.2119690000
   29      H       0.9023370000    -1.9649720000     5.0946240000
   30      H       2.5820980000    -1.9629320000     4.4830920000
   31      H       0.0259630000    -7.8223180000     0.0660800000
   32      C       0.0000000000     0.0000000000     0.0000000000
   33      S       0.1375350000     0.7811560000     1.5805300000
   34      C       0.4218950000     2.3939940000     0.9049110000
   35      C       0.1731340000     0.9828570000    -0.9854000000
   36      C       0.4022940000     2.2830580000    -0.4935280000
   37      H       0.1322370000     0.7507860000    -2.0599340000
   38      H       0.5551960000     3.1506210000    -1.1525930000
   39      H       0.5747410000     3.2613100000     1.5560250000
 ----------------------------------------------------------------

   10   -1570.6475948337      8.61e-07  Convergence criterion met
 Total energy in the final basis set =    -1570.6475948337
        RIMP2         total energy =     -1575.2866955518 a.u.

                    Orbital Energies (a.u.)
 --------------------------------------------------------------

 Alpha MOs
 -- Occupied --
-91.9789 -20.5590 -20.5570 -20.5563 -20.5544 -15.6322 -15.6316 -11.4003
-11.4002 -11.3921 -11.3912 -11.3208 -11.3026 -11.3015 -11.3000 -11.2958
-11.2943 -11.2876 -11.2876 -11.2838 -11.2795 -11.2783 -11.2736 -11.2656
-11.2648 -11.2589 -11.2409  -8.9787  -6.6591  -6.6580  -6.6572  -1.4319
 -1.4253  -1.4074  -1.4047  -1.2696  -1.2667  -1.2172  -1.1715  -1.1424
 -1.1170  -1.0617  -1.0498  -0.9934  -0.9889  -0.9802  -0.9595  -0.9469
 -0.8975  -0.8805  -0.8780  -0.8633  -0.7934  -0.7782  -0.7766  -0.7590
 -0.7322  -0.7255  -0.7028  -0.6929  -0.6888  -0.6742  -0.6679  -0.6634
 -0.6575  -0.6406  -0.6393  -0.6367  -0.6278  -0.6144  -0.5844  -0.5819
 -0.5810  -0.5741  -0.5700  -0.5651  -0.5626  -0.5563  -0.5560  -0.5493
 -0.5333  -0.5232  -0.5227  -0.5191  -0.4874  -0.4719  -0.4683  -0.4638
 -0.4571  -0.4332  -0.4216  -0.4108  -0.4057  -0.3738  -0.3376  -0.3280
 -0.2966

          Ground-State Mulliken Net Atomic Charges

     Atom                 Charge (a.u.)
  ----------------------------------------
      1 C                    -0.145652
      2 C                    -0.110122
      3 C                    -0.032150
      4 C                    -0.004513
      5 H                     0.188219
      6 C                    -0.001258
      7 C                     0.084521
      8 C                     0.000146
      9 C                    -0.091631
     10 C                    -0.145190
     11 C                     0.097856
     12 H                     0.183500
     13 C                     0.360066
     14 C                     0.366392
     15 N                    -0.101814
     16 C                     0.359907
     17 C                     0.394069
     18 N                    -0.094024
     19 O                    -0.463798
     20 O                    -0.476427
     21 O                    -0.481910
     22 O                    -0.448022
     23 C                    -0.201027
     24 H                     0.141197
     25 H                     0.112411
     26 H                     0.112479
     27 C                    -0.198515
     28 H                     0.134946
     29 H                     0.113567
     30 H                     0.113520
     31 H                     0.212745
     32 C                    -0.053863
     33 S                     0.091553
     34 C                    -0.208040
     35 C                    -0.139065
     36 C                    -0.249147
     37 H                     0.187184
     38 H                     0.184213
     39 H                     0.207679
  ----------------------------------------
  Sum of atomic charges =     0.000000

                    Cartesian Multipole Moments
 -----------------------------------------------------------------
    Charge (ESU x 10^10)
                 0.0000
    Dipole Moment (Debye)
         X       0.6115      Y       1.0269      Z      -0.0430
       Tot       1.1960
    Quadrupole Moments (Debye-Ang)
        XX    -165.9863     XY       1.7505     YY    -170.0194
        XZ      -5.4336     YZ       0.4932     ZZ    -173.5189

 Total job time:  281.70s(wall), 8905.16s(cpu)
        *  Thank you very much for using Q-Chem.  Have a nice day.  *
