 Q-Chem 5.4, Q-Chem, Inc., Pleasanton, CA (2021)
 Q-Chem 5.4.0 for Intel X86 EM64T Linux

User input:
--------------------------------------------------------------
$molecule
0 1
C	-0.253280	-6.741404	-0.043160
C	-1.539213	-6.155638	-0.269777
C	0.814295	-5.791452	0.145543
C	-1.813519	-4.803786	-0.318377
H	-2.403941	-6.821518	-0.422058
C	0.527140	-4.378638	0.094194
C	-0.783072	-3.838032	-0.137191
C	1.556403	-3.413062	0.275104
C	-1.067932	-2.426473	-0.188116
C	1.285420	-2.059348	0.226701
C	-0.000000	-1.478216	-0.000000
H	2.151147	-1.394783	0.378931
C	2.234582	-6.187987	0.397845
C	2.965273	-3.798164	0.523637
N	3.204744	-5.170003	0.567586
C	-3.226257	-4.424987	-0.567421
C	-2.489446	-2.036627	-0.439541
N	-3.459801	-3.049156	-0.609650
O	2.619468	-7.353131	0.468608
O	3.874668	-2.986854	0.683034
O	-4.124806	-5.248946	-0.725131
O	-2.895819	-0.878829	-0.512648
C	4.595691	-5.563799	0.813908
H	4.640022	-6.664085	0.822891
H	4.934830	-5.147101	1.781600
H	5.246157	-5.148785	0.020360
C	-4.829716	-2.587487	-0.851649
H	-5.462742	-3.483329	-0.962191
H	-4.863242	-1.964972	-1.765865
H	-5.173521	-1.962932	-0.005383
H	-0.070208	-7.822318	-0.010555
C	0.000000	0.000000	0.000000
S	0.607475	0.509994	1.580530
C	1.862020	1.562717	0.904911
C	0.764397	0.641624	-0.985400
C	1.775697	1.490335	-0.493528
H	0.583895	0.490135	-2.059934
H	2.450484	2.056643	-1.152593
H	2.536607	2.128872	1.556025
$end

$rem
JOBTYPE		SP
EXCHANGE	HF
CORRELATION	pRIMP2
BASIS		cc-pvtz
METHOD		rimp2
AUX_BASIS	rimp2-cc-pvtz
SOLVENT_METHOD	PCM
PURECART	11111
SYMMETRY	false
MEM_TOTAL	110000
SCF_CONVERGENCE = 6
THRESH=10
GUI = 2
$end

$solvent
dielectric 4.90
$end
--------------------------------------------------------------

             Standard Nuclear Orientation (Angstroms)
    I     Atom           X                Y                Z
 ----------------------------------------------------------------
    1      C      -0.2532800000    -6.7414040000    -0.0431600000
    2      C      -1.5392130000    -6.1556380000    -0.2697770000
    3      C       0.8142950000    -5.7914520000     0.1455430000
    4      C      -1.8135190000    -4.8037860000    -0.3183770000
    5      H      -2.4039410000    -6.8215180000    -0.4220580000
    6      C       0.5271400000    -4.3786380000     0.0941940000
    7      C      -0.7830720000    -3.8380320000    -0.1371910000
    8      C       1.5564030000    -3.4130620000     0.2751040000
    9      C      -1.0679320000    -2.4264730000    -0.1881160000
   10      C       1.2854200000    -2.0593480000     0.2267010000
   11      C       0.0000000000    -1.4782160000     0.0000000000
   12      H       2.1511470000    -1.3947830000     0.3789310000
   13      C       2.2345820000    -6.1879870000     0.3978450000
   14      C       2.9652730000    -3.7981640000     0.5236370000
   15      N       3.2047440000    -5.1700030000     0.5675860000
   16      C      -3.2262570000    -4.4249870000    -0.5674210000
   17      C      -2.4894460000    -2.0366270000    -0.4395410000
   18      N      -3.4598010000    -3.0491560000    -0.6096500000
   19      O       2.6194680000    -7.3531310000     0.4686080000
   20      O       3.8746680000    -2.9868540000     0.6830340000
   21      O      -4.1248060000    -5.2489460000    -0.7251310000
   22      O      -2.8958190000    -0.8788290000    -0.5126480000
   23      C       4.5956910000    -5.5637990000     0.8139080000
   24      H       4.6400220000    -6.6640850000     0.8228910000
   25      H       4.9348300000    -5.1471010000     1.7816000000
   26      H       5.2461570000    -5.1487850000     0.0203600000
   27      C      -4.8297160000    -2.5874870000    -0.8516490000
   28      H      -5.4627420000    -3.4833290000    -0.9621910000
   29      H      -4.8632420000    -1.9649720000    -1.7658650000
   30      H      -5.1735210000    -1.9629320000    -0.0053830000
   31      H      -0.0702080000    -7.8223180000    -0.0105550000
   32      C       0.0000000000     0.0000000000     0.0000000000
   33      S       0.6074750000     0.5099940000     1.5805300000
   34      C       1.8620200000     1.5627170000     0.9049110000
   35      C       0.7643970000     0.6416240000    -0.9854000000
   36      C       1.7756970000     1.4903350000    -0.4935280000
   37      H       0.5838950000     0.4901350000    -2.0599340000
   38      H       2.4504840000     2.0566430000    -1.1525930000
   39      H       2.5366070000     2.1288720000     1.5560250000
 ----------------------------------------------------------------

   10   -1570.6500702070      9.48e-07  Convergence criterion met
 Total energy in the final basis set =    -1570.6500702070
        RIMP2         total energy =     -1575.2842263363 a.u.

                    Orbital Energies (a.u.)
 --------------------------------------------------------------

 Alpha MOs
 -- Occupied --
-91.9938 -20.5575 -20.5548 -20.5546 -20.5540 -15.6303 -15.6295 -11.3990
-11.3947 -11.3914 -11.3892 -11.3157 -11.3007 -11.2989 -11.2978 -11.2972
-11.2955 -11.2954 -11.2840 -11.2826 -11.2799 -11.2777 -11.2763 -11.2696
-11.2642 -11.2637 -11.2557  -8.9937  -6.6744  -6.6738  -6.6734  -1.4238
 -1.4225  -1.4031  -1.4016  -1.2663  -1.2639  -1.2171  -1.1862  -1.1416
 -1.1152  -1.0623  -1.0477  -0.9929  -0.9916  -0.9914  -0.9581  -0.9461
 -0.8958  -0.8776  -0.8748  -0.8575  -0.7948  -0.7767  -0.7729  -0.7636
 -0.7370  -0.7177  -0.7065  -0.6934  -0.6814  -0.6737  -0.6653  -0.6612
 -0.6556  -0.6422  -0.6367  -0.6327  -0.6281  -0.6119  -0.5853  -0.5843
 -0.5781  -0.5773  -0.5676  -0.5632  -0.5612  -0.5545  -0.5524  -0.5473
 -0.5409  -0.5264  -0.5175  -0.4979  -0.4821  -0.4743  -0.4659  -0.4608
 -0.4592  -0.4522  -0.4267  -0.4173  -0.4070  -0.3732  -0.3354  -0.3323
 -0.3254

          Ground-State Mulliken Net Atomic Charges

     Atom                 Charge (a.u.)
  ----------------------------------------
      1 C                    -0.138469
      2 C                    -0.113854
      3 C                    -0.037011
      4 C                     0.001868
      5 H                     0.187632
      6 C                    -0.002523
      7 C                     0.081072
      8 C                    -0.020943
      9 C                    -0.031242
     10 C                    -0.106204
     11 C                     0.007260
     12 H                     0.185740
     13 C                     0.359547
     14 C                     0.361209
     15 N                    -0.101028
     16 C                     0.358537
     17 C                     0.367965
     18 N                    -0.097058
     19 O                    -0.466114
     20 O                    -0.479938
     21 O                    -0.481228
     22 O                    -0.459009
     23 C                    -0.201763
     24 H                     0.141036
     25 H                     0.112091
     26 H                     0.111947
     27 C                    -0.196920
     28 H                     0.133276
     29 H                     0.112528
     30 H                     0.113067
     31 H                     0.213136
     32 C                    -0.043745
     33 S                     0.040947
     34 C                    -0.166645
     35 C                    -0.132557
     36 C                    -0.211549
     37 H                     0.190512
     38 H                     0.194146
     39 H                     0.214284
  ----------------------------------------
  Sum of atomic charges =     0.000000

                    Cartesian Multipole Moments
 -----------------------------------------------------------------
    Charge (ESU x 10^10)
                 0.0000
    Dipole Moment (Debye)
         X       2.3146      Y       1.5308      Z      -0.8767
       Tot       2.9102
    Quadrupole Moments (Debye-Ang)
        XX    -177.6396     XY       7.2049     YY    -175.0612
        XZ      -2.8733     YZ       0.7885     ZZ    -157.3686

 Total job time:  259.99s(wall), 8215.14s(cpu)
        *  Thank you very much for using Q-Chem.  Have a nice day.  *
