 Q-Chem 5.4, Q-Chem, Inc., Pleasanton, CA (2021)
 Q-Chem 5.4.0 for Intel X86 EM64T Linux

User input:
--------------------------------------------------------------
$molecule
0 1
C	0.043160	-6.741404	-0.253280
C	0.269777	-6.155638	-1.539213
C	-0.145543	-5.791452	0.814295
C	0.318377	-4.803786	-1.813519
H	0.422058	-6.821518	-2.403941
C	-0.094194	-4.378638	0.527140
C	0.137191	-3.838032	-0.783072
C	-0.275104	-3.413062	1.556403
C	0.188116	-2.426473	-1.067932
C	-0.226701	-2.059348	1.285420
C	-0.000000	-1.478216	-0.000000
H	-0.378931	-1.394783	2.151147
C	-0.397845	-6.187987	2.234582
C	-0.523637	-3.798164	2.965273
N	-0.567586	-5.170003	3.204744
C	0.567421	-4.424987	-3.226257
C	0.439541	-2.036627	-2.489446
N	0.609650	-3.049156	-3.459801
O	-0.468608	-7.353131	2.619468
O	-0.683034	-2.986854	3.874668
O	0.725131	-5.248946	-4.124806
O	0.512648	-0.878829	-2.895819
C	-0.813908	-5.563799	4.595691
H	-0.822891	-6.664085	4.640022
H	-1.781600	-5.147101	4.934830
H	-0.020360	-5.148785	5.246157
C	0.851649	-2.587487	-4.829716
H	0.962191	-3.483329	-5.462742
H	1.765865	-1.964972	-4.863242
H	0.005383	-1.962932	-5.173521
H	0.010555	-7.822318	-0.070208
C	0.000000	0.000000	0.000000
S	0.396411	0.687007	1.580530
C	1.215245	2.105322	0.904911
C	0.498850	0.864369	-0.985400
C	1.158885	2.007781	-0.493528
H	0.381046	0.660280	-2.059934
H	1.599289	2.770727	-1.152593
H	1.655514	2.868056	1.556025
$end

$rem
JOBTYPE		SP
EXCHANGE	HF
CORRELATION	pRIMP2
BASIS		cc-pvtz
METHOD		rimp2
AUX_BASIS	rimp2-cc-pvtz
SOLVENT_METHOD	PCM
PURECART	11111
SYMMETRY	false
MEM_TOTAL	110000
SCF_CONVERGENCE = 6
THRESH=10
GUI = 2
$end

$solvent
dielectric 4.90
$end
--------------------------------------------------------------

             Standard Nuclear Orientation (Angstroms)
    I     Atom           X                Y                Z
 ----------------------------------------------------------------
    1      C       0.0431600000    -6.7414040000    -0.2532800000
    2      C       0.2697770000    -6.1556380000    -1.5392130000
    3      C      -0.1455430000    -5.7914520000     0.8142950000
    4      C       0.3183770000    -4.8037860000    -1.8135190000
    5      H       0.4220580000    -6.8215180000    -2.4039410000
    6      C      -0.0941940000    -4.3786380000     0.5271400000
    7      C       0.1371910000    -3.8380320000    -0.7830720000
    8      C      -0.2751040000    -3.4130620000     1.5564030000
    9      C       0.1881160000    -2.4264730000    -1.0679320000
   10      C      -0.2267010000    -2.0593480000     1.2854200000
   11      C       0.0000000000    -1.4782160000     0.0000000000
   12      H      -0.3789310000    -1.3947830000     2.1511470000
   13      C      -0.3978450000    -6.1879870000     2.2345820000
   14      C      -0.5236370000    -3.7981640000     2.9652730000
   15      N      -0.5675860000    -5.1700030000     3.2047440000
   16      C       0.5674210000    -4.4249870000    -3.2262570000
   17      C       0.4395410000    -2.0366270000    -2.4894460000
   18      N       0.6096500000    -3.0491560000    -3.4598010000
   19      O      -0.4686080000    -7.3531310000     2.6194680000
   20      O      -0.6830340000    -2.9868540000     3.8746680000
   21      O       0.7251310000    -5.2489460000    -4.1248060000
   22      O       0.5126480000    -0.8788290000    -2.8958190000
   23      C      -0.8139080000    -5.5637990000     4.5956910000
   24      H      -0.8228910000    -6.6640850000     4.6400220000
   25      H      -1.7816000000    -5.1471010000     4.9348300000
   26      H      -0.0203600000    -5.1487850000     5.2461570000
   27      C       0.8516490000    -2.5874870000    -4.8297160000
   28      H       0.9621910000    -3.4833290000    -5.4627420000
   29      H       1.7658650000    -1.9649720000    -4.8632420000
   30      H       0.0053830000    -1.9629320000    -5.1735210000
   31      H       0.0105550000    -7.8223180000    -0.0702080000
   32      C       0.0000000000     0.0000000000     0.0000000000
   33      S       0.3964110000     0.6870070000     1.5805300000
   34      C       1.2152450000     2.1053220000     0.9049110000
   35      C       0.4988500000     0.8643690000    -0.9854000000
   36      C       1.1588850000     2.0077810000    -0.4935280000
   37      H       0.3810460000     0.6602800000    -2.0599340000
   38      H       1.5992890000     2.7707270000    -1.1525930000
   39      H       1.6555140000     2.8680560000     1.5560250000
 ----------------------------------------------------------------

   10   -1570.6643678167      9.78e-07  Convergence criterion met
 Total energy in the final basis set =    -1570.6643678167
        RIMP2         total energy =     -1575.2956645494 a.u.

                    Orbital Energies (a.u.)
 --------------------------------------------------------------

 Alpha MOs
 -- Occupied --
-91.9927 -20.5580 -20.5559 -20.5543 -20.5527 -15.6307 -15.6302 -11.3992
-11.3970 -11.3905 -11.3902 -11.3199 -11.3011 -11.2988 -11.2964 -11.2942
-11.2929 -11.2918 -11.2864 -11.2844 -11.2815 -11.2777 -11.2769 -11.2648
-11.2641 -11.2547 -11.2498  -8.9928  -6.6736  -6.6730  -6.6724  -1.4260
 -1.4243  -1.4040  -1.4037  -1.2671  -1.2651  -1.2160  -1.1795  -1.1429
 -1.1148  -1.0627  -1.0482  -0.9920  -0.9904  -0.9890  -0.9583  -0.9466
 -0.8966  -0.8783  -0.8771  -0.8610  -0.7957  -0.7791  -0.7729  -0.7633
 -0.7350  -0.7276  -0.7025  -0.6932  -0.6817  -0.6734  -0.6661  -0.6620
 -0.6554  -0.6407  -0.6378  -0.6339  -0.6269  -0.6125  -0.5906  -0.5831
 -0.5781  -0.5716  -0.5675  -0.5637  -0.5603  -0.5558  -0.5540  -0.5465
 -0.5334  -0.5244  -0.5230  -0.5157  -0.4804  -0.4666  -0.4640  -0.4628
 -0.4571  -0.4475  -0.4289  -0.4190  -0.4092  -0.3773  -0.3544  -0.3356
 -0.2983

          Ground-State Mulliken Net Atomic Charges

     Atom                 Charge (a.u.)
  ----------------------------------------
      1 C                    -0.150842
      2 C                    -0.111835
      3 C                    -0.028417
      4 C                    -0.002187
      5 H                     0.187260
      6 C                    -0.006891
      7 C                     0.076448
      8 C                     0.037999
      9 C                    -0.080305
     10 C                    -0.154665
     11 C                     0.055262
     12 H                     0.166725
     13 C                     0.359180
     14 C                     0.363817
     15 N                    -0.101378
     16 C                     0.358377
     17 C                     0.384721
     18 N                    -0.091456
     19 O                    -0.464307
     20 O                    -0.476915
     21 O                    -0.484202
     22 O                    -0.476961
     23 C                    -0.201323
     24 H                     0.141062
     25 H                     0.112315
     26 H                     0.112362
     27 C                    -0.198821
     28 H                     0.134641
     29 H                     0.112217
     30 H                     0.112549
     31 H                     0.211822
     32 C                    -0.000904
     33 S                     0.022816
     34 C                    -0.182508
     35 C                    -0.159597
     36 C                    -0.220412
     37 H                     0.232321
     38 H                     0.193553
     39 H                     0.218480
  ----------------------------------------
  Sum of atomic charges =     0.000000

                    Cartesian Multipole Moments
 -----------------------------------------------------------------
    Charge (ESU x 10^10)
                -0.0000
    Dipole Moment (Debye)
         X       1.4194      Y       2.5971      Z      -0.8426
       Tot       3.0773
    Quadrupole Moments (Debye-Ang)
        XX    -161.4420     XY       5.4138     YY    -173.1871
        XZ       4.0090     YZ       0.1785     ZZ    -177.6315

 Total job time:  266.83s(wall), 8414.03s(cpu)
        *  Thank you very much for using Q-Chem.  Have a nice day.  *
