 Q-Chem 5.4, Q-Chem, Inc., Pleasanton, CA (2021)
 Q-Chem 5.4.0 for Intel X86 EM64T Linux

User input:
--------------------------------------------------------------
$molecule
0 1
C	0.197767	-6.741404	0.164018
C	1.198109	-6.155638	1.003240
C	-0.632428	-5.791452	-0.533192
C	1.411364	-4.803786	1.182482
H	1.870845	-6.821518	1.567483
C	-0.409419	-4.378638	-0.345145
C	0.609565	-3.838032	0.510347
C	-1.210332	-3.413062	-1.016449
C	0.830799	-2.426473	0.696879
C	-0.999856	-2.059348	-0.839039
C	0.000000	-1.478216	0.000000
H	-1.673483	-1.394783	-1.403737
C	-1.736282	-6.187987	-1.461835
C	-2.306183	-3.798164	-1.936119
N	-2.491597	-5.170003	-2.093916
C	2.510310	-4.424987	2.104529
C	1.936153	-2.036627	1.625377
N	2.691451	-3.049156	2.257873
O	-2.034222	-7.353131	-1.715561
O	-3.014044	-2.986854	-2.528858
O	3.209622	-5.248946	2.690385
O	2.251529	-0.878829	1.891876
C	-3.573032	-5.563799	-3.002711
H	-3.606932	-6.664085	-3.032655
H	-3.382888	-5.147101	-4.010326
H	-4.533125	-5.148785	-2.640711
C	3.756832	-2.587487	3.152408
H	4.249778	-3.483329	3.564653
H	3.328759	-1.964972	3.960905
H	4.477709	-1.962932	2.591422
H	0.055524	-7.822318	0.044245
C	0.000000	0.000000	0.000000
S	0.068929	0.790170	1.580530
C	0.211639	2.421655	0.904911
C	0.086813	0.994207	-0.985400
C	0.201782	2.309433	-0.493528
H	0.066299	0.759454	-2.059934
H	0.278488	3.187020	-1.152593
H	0.288312	3.298992	1.556025
$end

$rem
JOBTYPE		SP
EXCHANGE	HF
CORRELATION	pRIMP2
BASIS		cc-pvtz
METHOD		rimp2
AUX_BASIS	rimp2-cc-pvtz
SOLVENT_METHOD	PCM
PURECART	11111
SYMMETRY	false
MEM_TOTAL	110000
SCF_CONVERGENCE = 6
THRESH=10
GUI = 2
$end

$solvent
dielectric 4.90
$end
--------------------------------------------------------------

             Standard Nuclear Orientation (Angstroms)
    I     Atom           X                Y                Z
 ----------------------------------------------------------------
    1      C       0.1977670000    -6.7414040000     0.1640180000
    2      C       1.1981090000    -6.1556380000     1.0032400000
    3      C      -0.6324280000    -5.7914520000    -0.5331920000
    4      C       1.4113640000    -4.8037860000     1.1824820000
    5      H       1.8708450000    -6.8215180000     1.5674830000
    6      C      -0.4094190000    -4.3786380000    -0.3451450000
    7      C       0.6095650000    -3.8380320000     0.5103470000
    8      C      -1.2103320000    -3.4130620000    -1.0164490000
    9      C       0.8307990000    -2.4264730000     0.6968790000
   10      C      -0.9998560000    -2.0593480000    -0.8390390000
   11      C       0.0000000000    -1.4782160000     0.0000000000
   12      H      -1.6734830000    -1.3947830000    -1.4037370000
   13      C      -1.7362820000    -6.1879870000    -1.4618350000
   14      C      -2.3061830000    -3.7981640000    -1.9361190000
   15      N      -2.4915970000    -5.1700030000    -2.0939160000
   16      C       2.5103100000    -4.4249870000     2.1045290000
   17      C       1.9361530000    -2.0366270000     1.6253770000
   18      N       2.6914510000    -3.0491560000     2.2578730000
   19      O      -2.0342220000    -7.3531310000    -1.7155610000
   20      O      -3.0140440000    -2.9868540000    -2.5288580000
   21      O       3.2096220000    -5.2489460000     2.6903850000
   22      O       2.2515290000    -0.8788290000     1.8918760000
   23      C      -3.5730320000    -5.5637990000    -3.0027110000
   24      H      -3.6069320000    -6.6640850000    -3.0326550000
   25      H      -3.3828880000    -5.1471010000    -4.0103260000
   26      H      -4.5331250000    -5.1487850000    -2.6407110000
   27      C       3.7568320000    -2.5874870000     3.1524080000
   28      H       4.2497780000    -3.4833290000     3.5646530000
   29      H       3.3287590000    -1.9649720000     3.9609050000
   30      H       4.4777090000    -1.9629320000     2.5914220000
   31      H       0.0555240000    -7.8223180000     0.0442450000
   32      C       0.0000000000     0.0000000000     0.0000000000
   33      S       0.0689290000     0.7901700000     1.5805300000
   34      C       0.2116390000     2.4216550000     0.9049110000
   35      C       0.0868130000     0.9942070000    -0.9854000000
   36      C       0.2017820000     2.3094330000    -0.4935280000
   37      H       0.0662990000     0.7594540000    -2.0599340000
   38      H       0.2784880000     3.1870200000    -1.1525930000
   39      H       0.2883120000     3.2989920000     1.5560250000
 ----------------------------------------------------------------

   10   -1570.6822746979      7.34e-07  Convergence criterion met
 Total energy in the final basis set =    -1570.6822746979
        RIMP2         total energy =     -1575.3106055090 a.u.

                    Orbital Energies (a.u.)
 --------------------------------------------------------------

 Alpha MOs
 -- Occupied --
-91.9846 -20.5588 -20.5566 -20.5546 -20.5533 -15.6315 -15.6302 -11.4003
-11.3956 -11.3922 -11.3909 -11.3171 -11.3050 -11.3029 -11.3012 -11.2983
-11.2976 -11.2904 -11.2865 -11.2859 -11.2822 -11.2804 -11.2782 -11.2648
-11.2643 -11.2588 -11.2467  -8.9842  -6.6648  -6.6643  -6.6639  -1.4251
 -1.4238  -1.4045  -1.4030  -1.2676  -1.2651  -1.2176  -1.1732  -1.1438
 -1.1176  -1.0628  -1.0500  -0.9930  -0.9884  -0.9816  -0.9591  -0.9481
 -0.8968  -0.8798  -0.8776  -0.8616  -0.7945  -0.7771  -0.7738  -0.7602
 -0.7339  -0.7189  -0.7046  -0.6944  -0.6820  -0.6737  -0.6664  -0.6621
 -0.6569  -0.6416  -0.6375  -0.6339  -0.6294  -0.6131  -0.5846  -0.5837
 -0.5783  -0.5711  -0.5661  -0.5655  -0.5641  -0.5554  -0.5536  -0.5484
 -0.5343  -0.5251  -0.5209  -0.5155  -0.4833  -0.4714  -0.4647  -0.4594
 -0.4581  -0.4502  -0.4279  -0.4181  -0.4091  -0.3650  -0.3428  -0.3364
 -0.3088

          Ground-State Mulliken Net Atomic Charges

     Atom                 Charge (a.u.)
  ----------------------------------------
      1 C                    -0.135280
      2 C                    -0.108437
      3 C                    -0.040636
      4 C                    -0.003700
      5 H                     0.188830
      6 C                    -0.002519
      7 C                     0.076440
      8 C                     0.003663
      9 C                    -0.046609
     10 C                    -0.144880
     11 C                     0.098938
     12 H                     0.184140
     13 C                     0.361016
     14 C                     0.368549
     15 N                    -0.101558
     16 C                     0.359582
     17 C                     0.372043
     18 N                    -0.095033
     19 O                    -0.464535
     20 O                    -0.476544
     21 O                    -0.481215
     22 O                    -0.458134
     23 C                    -0.200932
     24 H                     0.141129
     25 H                     0.112243
     26 H                     0.112499
     27 C                    -0.196142
     28 H                     0.133706
     29 H                     0.112846
     30 H                     0.113036
     31 H                     0.214000
     32 C                    -0.060327
     33 S                     0.059759
     34 C                    -0.201613
     35 C                    -0.172305
     36 C                    -0.216319
     37 H                     0.193543
     38 H                     0.189826
     39 H                     0.210931
  ----------------------------------------
  Sum of atomic charges =     0.000000

                    Cartesian Multipole Moments
 -----------------------------------------------------------------
    Charge (ESU x 10^10)
                 0.0000
    Dipole Moment (Debye)
         X       0.3960      Y       1.0642      Z      -0.6529
       Tot       1.3098
    Quadrupole Moments (Debye-Ang)
        XX    -176.0308     XY       0.7379     YY    -165.9293
        XZ      -9.5307     YZ       0.4112     ZZ    -165.5702

 Total job time:  255.87s(wall), 7442.34s(cpu)
        *  Thank you very much for using Q-Chem.  Have a nice day.  *
