 Q-Chem 5.4, Q-Chem, Inc., Pleasanton, CA (2021)
 Q-Chem 5.4.0 for Intel X86 EM64T Linux

User input:
--------------------------------------------------------------
$molecule
0 1
C	0.336297	-3.852073	0.775127
C	0.322520	-3.689895	-0.612565
C	0.205498	-2.348081	-1.066639
H	0.397057	-4.543777	-1.302900
C	0.125562	-1.435182	0.000000
S	0.199331	-2.278254	1.544483
C	0.172753	-1.971188	-2.521872
H	0.251114	-2.867704	-3.166949
H	1.009380	-1.292962	-2.790821
H	-0.768708	-1.448236	-2.791023
H	0.415963	-4.765317	1.375251
C	0.000000	0.000000	0.000000
C	0.365003	0.782674	1.099446
C	0.949885	2.036912	0.776721
H	0.209135	0.448431	2.136088
C	1.043159	2.236886	-0.612546
S	0.398297	0.854094	-1.486809
C	1.409609	3.022738	1.814609
H	1.229726	2.636980	2.836676
H	0.877346	3.992870	1.726239
H	2.494910	3.238558	1.726228
H	1.444334	3.097160	-1.161575
$end

$rem
JOBTYPE		SP
EXCHANGE	HF
CORRELATION	pRIMP2
BASIS		cc-pvtz
METHOD		rimp2
AUX_BASIS	rimp2-cc-pvtz
SOLVENT_METHOD	PCM
PURECART	11111
SYMMETRY	false
MEM_TOTAL	110000
SCF_CONVERGENCE = 6
THRESH=10
GUI = 2
$end

$solvent
dielectric 4.90
$end
--------------------------------------------------------------

             Standard Nuclear Orientation (Angstroms)
    I     Atom           X                Y                Z
 ----------------------------------------------------------------
    1      C       0.3362970000    -3.8520730000     0.7751270000
    2      C       0.3225200000    -3.6898950000    -0.6125650000
    3      C       0.2054980000    -2.3480810000    -1.0666390000
    4      H       0.3970570000    -4.5437770000    -1.3029000000
    5      C       0.1255620000    -1.4351820000     0.0000000000
    6      S       0.1993310000    -2.2782540000     1.5444830000
    7      C       0.1727530000    -1.9711880000    -2.5218720000
    8      H       0.2511140000    -2.8677040000    -3.1669490000
    9      H       1.0093800000    -1.2929620000    -2.7908210000
   10      H      -0.7687080000    -1.4482360000    -2.7910230000
   11      H       0.4159630000    -4.7653170000     1.3752510000
   12      C       0.0000000000     0.0000000000     0.0000000000
   13      C       0.3650030000     0.7826740000     1.0994460000
   14      C       0.9498850000     2.0369120000     0.7767210000
   15      H       0.2091350000     0.4484310000     2.1360880000
   16      C       1.0431590000     2.2368860000    -0.6125460000
   17      S       0.3982970000     0.8540940000    -1.4868090000
   18      C       1.4096090000     3.0227380000     1.8146090000
   19      H       1.2297260000     2.6369800000     2.8366760000
   20      H       0.8773460000     3.9928700000     1.7262390000
   21      H       2.4949100000     3.2385580000     1.7262280000
   22      H       1.4443340000     3.0971600000    -1.1615750000
 ----------------------------------------------------------------

   10   -1179.6662039326      5.63e-07  Convergence criterion met
 Total energy in the final basis set =    -1179.6662039326
        RIMP2         total energy =     -1181.6522264272 a.u.

                    Orbital Energies (a.u.)
 --------------------------------------------------------------

 Alpha MOs
 -- Occupied --
-91.9844 -91.9816 -11.2791 -11.2782 -11.2685 -11.2680 -11.2530 -11.2488
-11.2453 -11.2419 -11.2294 -11.2280  -8.9845  -8.9817  -6.6653  -6.6647
 -6.6641  -6.6627  -6.6621  -6.6615  -1.1834  -1.1491  -1.0434  -1.0246
 -0.9991  -0.9516  -0.9139  -0.8953  -0.7985  -0.7657  -0.7206  -0.6952
 -0.6611  -0.6163  -0.5847  -0.5828  -0.5780  -0.5698  -0.5524  -0.5340
 -0.5229  -0.5215  -0.5123  -0.4958  -0.4839  -0.4658  -0.4482  -0.3710
 -0.3424  -0.3398  -0.2657

          Ground-State Mulliken Net Atomic Charges

     Atom                 Charge (a.u.)
  ----------------------------------------
      1 C                    -0.218441
      2 C                    -0.250636
      3 C                     0.048060
      4 H                     0.184123
      5 C                    -0.028051
      6 S                    -0.002401
      7 C                    -0.317891
      8 H                     0.114949
      9 H                     0.115345
     10 H                     0.115480
     11 H                     0.205546
     12 C                     0.034702
     13 C                    -0.254673
     14 C                     0.038524
     15 H                     0.178445
     16 C                    -0.247519
     17 S                     0.033113
     18 C                    -0.267995
     19 H                     0.103025
     20 H                     0.108594
     21 H                     0.108260
     22 H                     0.199441
  ----------------------------------------
  Sum of atomic charges =     0.000000

                    Cartesian Multipole Moments
 -----------------------------------------------------------------
    Charge (ESU x 10^10)
                -0.0000
    Dipole Moment (Debye)
         X       1.0743      Y       0.5571      Z      -0.1632
       Tot       1.2211
    Quadrupole Moments (Debye-Ang)
        XX     -90.5604     XY       3.2378     YY     -71.7222
        XZ       0.1002     YZ       3.2529     ZZ     -79.8523

 Total job time:  48.68s(wall), 1695.06s(cpu)
        *  Thank you very much for using Q-Chem.  Have a nice day.  *
