 Q-Chem 5.4, Q-Chem, Inc., Pleasanton, CA (2021)
 Q-Chem 5.4.0 for Intel X86 EM64T Linux

User input:
--------------------------------------------------------------
$molecule
0 1
C	0.336297	-3.852073	0.775127
C	0.322520	-3.689895	-0.612565
C	0.205498	-2.348081	-1.066639
H	0.397057	-4.543777	-1.302900
C	0.125562	-1.435182	0.000000
S	0.199331	-2.278254	1.544483
C	0.172753	-1.971188	-2.521872
H	0.251114	-2.867704	-3.166949
H	1.009380	-1.292962	-2.790821
H	-0.768708	-1.448236	-2.791023
H	0.415963	-4.765317	1.375251
C	0.000000	0.000000	0.000000
C	0.075300	0.860311	1.099446
C	0.195935	2.238951	0.776721
H	0.043151	0.492916	2.136088
C	0.215188	2.458766	-0.612546
S	0.082160	0.938811	-1.486809
C	0.290762	3.322559	1.814609
H	0.253664	2.898542	2.836676
H	-0.541206	4.052140	1.726239
H	1.236797	3.896558	1.726228
H	0.297938	3.404370	-1.161575
$end

$rem
JOBTYPE		SP
EXCHANGE	HF
CORRELATION	pRIMP2
BASIS		cc-pvtz
METHOD		rimp2
AUX_BASIS	rimp2-cc-pvtz
SOLVENT_METHOD	PCM
PURECART	11111
SYMMETRY	false
MEM_TOTAL	110000
SCF_CONVERGENCE = 6
THRESH=10
GUI = 2
$end

$solvent
dielectric 4.90
$end
--------------------------------------------------------------

             Standard Nuclear Orientation (Angstroms)
    I     Atom           X                Y                Z
 ----------------------------------------------------------------
    1      C       0.3362970000    -3.8520730000     0.7751270000
    2      C       0.3225200000    -3.6898950000    -0.6125650000
    3      C       0.2054980000    -2.3480810000    -1.0666390000
    4      H       0.3970570000    -4.5437770000    -1.3029000000
    5      C       0.1255620000    -1.4351820000     0.0000000000
    6      S       0.1993310000    -2.2782540000     1.5444830000
    7      C       0.1727530000    -1.9711880000    -2.5218720000
    8      H       0.2511140000    -2.8677040000    -3.1669490000
    9      H       1.0093800000    -1.2929620000    -2.7908210000
   10      H      -0.7687080000    -1.4482360000    -2.7910230000
   11      H       0.4159630000    -4.7653170000     1.3752510000
   12      C       0.0000000000     0.0000000000     0.0000000000
   13      C       0.0753000000     0.8603110000     1.0994460000
   14      C       0.1959350000     2.2389510000     0.7767210000
   15      H       0.0431510000     0.4929160000     2.1360880000
   16      C       0.2151880000     2.4587660000    -0.6125460000
   17      S       0.0821600000     0.9388110000    -1.4868090000
   18      C       0.2907620000     3.3225590000     1.8146090000
   19      H       0.2536640000     2.8985420000     2.8366760000
   20      H      -0.5412060000     4.0521400000     1.7262390000
   21      H       1.2367970000     3.8965580000     1.7262280000
   22      H       0.2979380000     3.4043700000    -1.1615750000
 ----------------------------------------------------------------

   10   -1179.6844552194      5.33e-07  Convergence criterion met
 Total energy in the final basis set =    -1179.6844552194
        RIMP2         total energy =     -1181.6654898205 a.u.

                    Orbital Energies (a.u.)
 --------------------------------------------------------------

 Alpha MOs
 -- Occupied --
-91.9851 -91.9846 -11.2840 -11.2786 -11.2730 -11.2619 -11.2542 -11.2523
-11.2437 -11.2398 -11.2304 -11.2288  -8.9849  -8.9846  -6.6658  -6.6655
 -6.6652  -6.6650  -6.6646  -6.6643  -1.1817  -1.1500  -1.0424  -1.0261
 -0.9989  -0.9524  -0.9153  -0.8953  -0.8004  -0.7657  -0.7194  -0.6961
 -0.6635  -0.6157  -0.5846  -0.5828  -0.5773  -0.5696  -0.5532  -0.5343
 -0.5231  -0.5213  -0.5117  -0.4964  -0.4903  -0.4675  -0.4503  -0.3716
 -0.3436  -0.3404  -0.2679

          Ground-State Mulliken Net Atomic Charges

     Atom                 Charge (a.u.)
  ----------------------------------------
      1 C                    -0.211546
      2 C                    -0.254689
      3 C                     0.051014
      4 H                     0.185071
      5 C                    -0.022220
      6 S                     0.005075
      7 C                    -0.322803
      8 H                     0.118789
      9 H                     0.115779
     10 H                     0.116210
     11 H                     0.207711
     12 C                     0.064602
     13 C                    -0.279584
     14 C                     0.039735
     15 H                     0.176149
     16 C                    -0.260987
     17 S                     0.023082
     18 C                    -0.270386
     19 H                     0.102740
     20 H                     0.108356
     21 H                     0.108835
     22 H                     0.199068
  ----------------------------------------
  Sum of atomic charges =     0.000000

                    Cartesian Multipole Moments
 -----------------------------------------------------------------
    Charge (ESU x 10^10)
                -0.0000
    Dipole Moment (Debye)
         X       0.3223      Y       0.0570      Z      -0.1922
       Tot       0.3796
    Quadrupole Moments (Debye-Ang)
        XX     -92.5840     XY      -0.2337     YY     -68.7422
        XZ      -0.1281     YZ       3.3635     ZZ     -79.7922

 Total job time:  52.31s(wall), 1778.97s(cpu)
        *  Thank you very much for using Q-Chem.  Have a nice day.  *
