 Q-Chem 5.4, Q-Chem, Inc., Pleasanton, CA (2021)
 Q-Chem 5.4.0 for Intel X86 EM64T Linux

User input:
--------------------------------------------------------------
$molecule
0 1
C	0.336297	-3.852073	0.775127
C	0.322520	-3.689895	-0.612565
C	0.205498	-2.348081	-1.066639
H	0.397057	-4.543777	-1.302900
C	0.125562	-1.435182	0.000000
S	0.199331	-2.278254	1.544483
C	0.172753	-1.971188	-2.521872
H	0.251114	-2.867704	-3.166949
H	1.009380	-1.292962	-2.790821
H	-0.768708	-1.448236	-2.791023
H	0.415963	-4.765317	1.375251
C	0.000000	0.000000	0.000000
C	0.223548	0.834165	1.099446
C	0.581748	2.170912	0.776721
H	0.128089	0.477934	2.136088
C	0.638880	2.384045	-0.612546
S	0.243934	0.910282	-1.486809
C	0.863301	3.221592	1.814609
H	0.753137	2.810458	2.836676
H	0.170663	4.084559	1.726239
H	1.894637	3.622593	1.726228
H	0.884575	3.300913	-1.161575
$end

$rem
JOBTYPE		SP
EXCHANGE	HF
CORRELATION	pRIMP2
BASIS		cc-pvtz
METHOD		rimp2
AUX_BASIS	rimp2-cc-pvtz
SOLVENT_METHOD	PCM
PURECART	11111
SYMMETRY	false
MEM_TOTAL	110000
SCF_CONVERGENCE = 6
THRESH=10
GUI = 2
$end

$solvent
dielectric 4.90
$end
--------------------------------------------------------------

             Standard Nuclear Orientation (Angstroms)
    I     Atom           X                Y                Z
 ----------------------------------------------------------------
    1      C       0.3362970000    -3.8520730000     0.7751270000
    2      C       0.3225200000    -3.6898950000    -0.6125650000
    3      C       0.2054980000    -2.3480810000    -1.0666390000
    4      H       0.3970570000    -4.5437770000    -1.3029000000
    5      C       0.1255620000    -1.4351820000     0.0000000000
    6      S       0.1993310000    -2.2782540000     1.5444830000
    7      C       0.1727530000    -1.9711880000    -2.5218720000
    8      H       0.2511140000    -2.8677040000    -3.1669490000
    9      H       1.0093800000    -1.2929620000    -2.7908210000
   10      H      -0.7687080000    -1.4482360000    -2.7910230000
   11      H       0.4159630000    -4.7653170000     1.3752510000
   12      C       0.0000000000     0.0000000000     0.0000000000
   13      C       0.2235480000     0.8341650000     1.0994460000
   14      C       0.5817480000     2.1709120000     0.7767210000
   15      H       0.1280890000     0.4779340000     2.1360880000
   16      C       0.6388800000     2.3840450000    -0.6125460000
   17      S       0.2439340000     0.9102820000    -1.4868090000
   18      C       0.8633010000     3.2215920000     1.8146090000
   19      H       0.7531370000     2.8104580000     2.8366760000
   20      H       0.1706630000     4.0845590000     1.7262390000
   21      H       1.8946370000     3.6225930000     1.7262280000
   22      H       0.8845750000     3.3009130000    -1.1615750000
 ----------------------------------------------------------------

   10   -1179.6776907509      5.11e-07  Convergence criterion met
 Total energy in the final basis set =    -1179.6776907509
        RIMP2         total energy =     -1181.6606296755 a.u.

                    Orbital Energies (a.u.)
 --------------------------------------------------------------

 Alpha MOs
 -- Occupied --
-91.9848 -91.9835 -11.2821 -11.2785 -11.2713 -11.2641 -11.2526 -11.2521
-11.2430 -11.2418 -11.2295 -11.2291  -8.9847  -8.9835  -6.6656  -6.6650
 -6.6644  -6.6644  -6.6639  -6.6632  -1.1822  -1.1497  -1.0427  -1.0255
 -0.9990  -0.9521  -0.9147  -0.8953  -0.7997  -0.7657  -0.7199  -0.6958
 -0.6626  -0.6159  -0.5845  -0.5828  -0.5777  -0.5697  -0.5529  -0.5342
 -0.5229  -0.5214  -0.5121  -0.4963  -0.4877  -0.4668  -0.4495  -0.3714
 -0.3430  -0.3403  -0.2671

          Ground-State Mulliken Net Atomic Charges

     Atom                 Charge (a.u.)
  ----------------------------------------
      1 C                    -0.213966
      2 C                    -0.251775
      3 C                     0.049393
      4 H                     0.184708
      5 C                    -0.026300
      6 S                     0.002576
      7 C                    -0.321108
      8 H                     0.117278
      9 H                     0.115542
     10 H                     0.116085
     11 H                     0.206795
     12 C                     0.056718
     13 C                    -0.275482
     14 C                     0.042997
     15 H                     0.176767
     16 C                    -0.257607
     17 S                     0.027456
     18 C                    -0.269084
     19 H                     0.102804
     20 H                     0.108495
     21 H                     0.108682
     22 H                     0.199025
  ----------------------------------------
  Sum of atomic charges =     0.000000

                    Cartesian Multipole Moments
 -----------------------------------------------------------------
    Charge (ESU x 10^10)
                -0.0000
    Dipole Moment (Debye)
         X       0.6683      Y       0.2559      Z      -0.1807
       Tot       0.7380
    Quadrupole Moments (Debye-Ang)
        XX     -91.8916     XY       1.6068     YY     -69.8003
        XZ       0.0118     YZ       3.3226     ZZ     -79.8190

 Total job time:  54.47s(wall), 1793.98s(cpu)
        *  Thank you very much for using Q-Chem.  Have a nice day.  *
