 Q-Chem 5.4, Q-Chem, Inc., Pleasanton, CA (2021)
 Q-Chem 5.4.0 for Intel X86 EM64T Linux

User input:
--------------------------------------------------------------
$molecule
0 1
C	-0.208886	-8.519741	0.174379
C	0.472151	-7.635967	-0.650052
S	-1.193717	-7.651740	1.377058
C	0.225125	-6.261894	-0.353105
H	1.141594	-7.954738	-1.458961
C	-0.692811	-6.079985	0.740583
C	-1.039773	-4.798382	1.195546
C	0.817634	-5.153542	-1.023267
C	0.473754	-3.869626	-0.565262
C	-0.447350	-3.688927	0.527745
O	1.644483	-5.481075	-2.054917
O	-1.869424	-4.479871	2.232592
C	-2.939466	-5.356026	2.565470
H	-3.601405	-4.790496	3.248608
H	-2.587892	-6.268513	3.094885
H	-3.516052	-5.658187	1.664539
C	2.608813	-4.546999	-2.524564
H	3.270661	-5.107564	-3.211568
H	3.216646	-4.131473	-1.692342
H	2.141184	-3.712085	-3.090211
C	-0.690319	-2.314326	0.823402
S	0.985511	-2.295487	-1.194935
C	-0.000000	-1.435180	-0.000000
H	-1.361286	-1.993211	1.630024
C	0.000000	0.000000	0.000000
S	0.382139	0.814215	1.510732
C	1.046923	2.242395	0.727629
C	0.383804	0.823142	-1.064665
C	0.969360	2.082453	-0.678287
C	0.357247	0.762277	-2.486150
C	0.891671	1.908660	-3.106916
S	1.415865	3.040689	-1.965735
C	1.003453	2.137318	-4.559972
O	0.611644	1.290019	-5.350277
O	1.548687	3.298916	-5.004375
F	-0.110054	-0.249117	-3.246290
C	1.709479	3.619721	-6.334976
H	2.177001	4.620902	-6.370268
H	0.737443	3.643380	-6.875609
H	2.359363	2.886384	-6.861878
H	1.435800	3.076190	1.321510
H	0.486655	-9.146471	0.744739
H	-0.898184	-9.150570	-0.399033
H	0.832713	-1.444158	0.687683
$end

$rem
JOBTYPE		SP
EXCHANGE	HF
CORRELATION	pRIMP2
BASIS		cc-pvtz
METHOD		rimp2
AUX_BASIS	rimp2-cc-pvtz
SOLVENT_METHOD	PCM
PURECART	11111
SYMMETRY	false
MEM_TOTAL	110000
SCF_CONVERGENCE = 6
THRESH=10
GUI = 2
$end

$solvent
dielectric 4.90
$end
--------------------------------------------------------------

             Standard Nuclear Orientation (Angstroms)
    I     Atom           X                Y                Z
 ----------------------------------------------------------------
    1      C      -0.2088860000    -8.5197410000     0.1743790000
    2      C       0.4721510000    -7.6359670000    -0.6500520000
    3      S      -1.1937170000    -7.6517400000     1.3770580000
    4      C       0.2251250000    -6.2618940000    -0.3531050000
    5      H       1.1415940000    -7.9547380000    -1.4589610000
    6      C      -0.6928110000    -6.0799850000     0.7405830000
    7      C      -1.0397730000    -4.7983820000     1.1955460000
    8      C       0.8176340000    -5.1535420000    -1.0232670000
    9      C       0.4737540000    -3.8696260000    -0.5652620000
   10      C      -0.4473500000    -3.6889270000     0.5277450000
   11      O       1.6444830000    -5.4810750000    -2.0549170000
   12      O      -1.8694240000    -4.4798710000     2.2325920000
   13      C      -2.9394660000    -5.3560260000     2.5654700000
   14      H      -3.6014050000    -4.7904960000     3.2486080000
   15      H      -2.5878920000    -6.2685130000     3.0948850000
   16      H      -3.5160520000    -5.6581870000     1.6645390000
   17      C       2.6088130000    -4.5469990000    -2.5245640000
   18      H       3.2706610000    -5.1075640000    -3.2115680000
   19      H       3.2166460000    -4.1314730000    -1.6923420000
   20      H       2.1411840000    -3.7120850000    -3.0902110000
   21      C      -0.6903190000    -2.3143260000     0.8234020000
   22      S       0.9855110000    -2.2954870000    -1.1949350000
   23      C       0.0000000000    -1.4351800000     0.0000000000
   24      H      -1.3612860000    -1.9932110000     1.6300240000
   25      C       0.0000000000     0.0000000000     0.0000000000
   26      S       0.3821390000     0.8142150000     1.5107320000
   27      C       1.0469230000     2.2423950000     0.7276290000
   28      C       0.3838040000     0.8231420000    -1.0646650000
   29      C       0.9693600000     2.0824530000    -0.6782870000
   30      C       0.3572470000     0.7622770000    -2.4861500000
   31      C       0.8916710000     1.9086600000    -3.1069160000
   32      S       1.4158650000     3.0406890000    -1.9657350000
   33      C       1.0034530000     2.1373180000    -4.5599720000
   34      O       0.6116440000     1.2900190000    -5.3502770000
   35      O       1.5486870000     3.2989160000    -5.0043750000
   36      F      -0.1100540000    -0.2491170000    -3.2462900000
   37      C       1.7094790000     3.6197210000    -6.3349760000
   38      H       2.1770010000     4.6209020000    -6.3702680000
   39      H       0.7374430000     3.6433800000    -6.8756090000
   40      H       2.3593630000     2.8863840000    -6.8618780000
   41      H       1.4358000000     3.0761900000     1.3215100000
   42      H       0.4866550000    -9.1464710000     0.7447390000
   43      H      -0.8981840000    -9.1505700000    -0.3990330000
   44      H       0.8327130000    -1.4441580000     0.6876830000
 ----------------------------------------------------------------

   11   -2755.3135415655      7.91e-07  Convergence criterion met
 Total energy in the final basis set =    -2755.3135415655
        RIMP2         total energy =     -2760.4073054603 a.u.

                    Orbital Energies (a.u.)
 --------------------------------------------------------------

 Alpha MOs
 -- Occupied --
-92.0121 -91.9938 -91.9776 -91.9592 -26.3340 -20.6121 -20.5876 -20.5872
-20.5497 -11.4101 -11.3787 -11.3177 -11.3093 -11.3084 -11.2969 -11.2968
-11.2925 -11.2885 -11.2841 -11.2834 -11.2832 -11.2828 -11.2811 -11.2744
-11.2713 -11.2600 -11.2588 -11.2506 -11.2390  -9.0114  -8.9979  -8.9799
 -8.9618  -6.6922  -6.6915  -6.6910  -6.6792  -6.6785  -6.6772  -6.6610
 -6.6601  -6.6588  -6.6430  -6.6421  -6.6411  -1.6476  -1.4717  -1.4107
 -1.4094  -1.3670  -1.2401  -1.2094  -1.1767  -1.1444  -1.0994  -1.0512
 -1.0461  -1.0313  -1.0081  -0.9986  -0.9721  -0.9599  -0.9491  -0.9407
 -0.8941  -0.8710  -0.8636  -0.8110  -0.7932  -0.7857  -0.7760  -0.7692
 -0.7657  -0.7331  -0.7209  -0.7156  -0.6971  -0.6933  -0.6831  -0.6785
 -0.6717  -0.6684  -0.6565  -0.6489  -0.6381  -0.6284  -0.6209  -0.6153
 -0.6111  -0.6062  -0.5961  -0.5932  -0.5799  -0.5659  -0.5636  -0.5582
 -0.5483  -0.5343  -0.5282  -0.5213  -0.5132  -0.5081  -0.5034  -0.5014
 -0.4858  -0.4838  -0.4781  -0.4681  -0.4620  -0.4611  -0.4607  -0.4474
 -0.4272  -0.4013  -0.3850  -0.3718  -0.3515  -0.2938  -0.2852  -0.2181

          Ground-State Mulliken Net Atomic Charges

     Atom                 Charge (a.u.)
  ----------------------------------------
      1 C                    -0.070395
      2 C                    -0.253908
      3 S                    -0.133665
      4 C                    -0.048574
      5 H                     0.194463
      6 C                    -0.045682
      7 C                     0.214290
      8 C                     0.226100
      9 C                    -0.074348
     10 C                    -0.014883
     11 O                    -0.334597
     12 O                    -0.343672
     13 C                    -0.082647
     14 H                     0.119927
     15 H                     0.091949
     16 H                     0.093248
     17 C                    -0.088990
     18 H                     0.124044
     19 H                     0.092032
     20 H                     0.092041
     21 C                    -0.319429
     22 S                    -0.086671
     23 C                     0.110511
     24 H                     0.202154
     25 C                    -0.001553
     26 S                     0.089738
     27 C                    -0.243399
     28 C                    -0.163056
     29 C                    -0.002864
     30 C                     0.381181
     31 C                    -0.147910
     32 S                     0.036410
     33 C                     0.459955
     34 O                    -0.450327
     35 O                    -0.298167
     36 F                    -0.207782
     37 C                    -0.054909
     38 H                     0.116603
     39 H                     0.084644
     40 H                     0.084375
     41 H                     0.214502
     42 H                     0.118217
     43 H                     0.116152
     44 H                     0.204891
  ----------------------------------------
  Sum of atomic charges =     0.000000

                    Cartesian Multipole Moments
 -----------------------------------------------------------------
    Charge (ESU x 10^10)
                -0.0000
    Dipole Moment (Debye)
         X       2.0132      Y       2.4240      Z       3.3254
       Tot       4.5811
    Quadrupole Moments (Debye-Ang)
        XX    -185.1772     XY       3.3354     YY    -174.0607
        XZ     -12.9070     YZ      -6.2699     ZZ    -201.3935

 Total job time:  342.64s(wall), 10398.61s(cpu)
        *  Thank you very much for using Q-Chem.  Have a nice day.  *
