 Q-Chem 5.4, Q-Chem, Inc., Pleasanton, CA (2021)
 Q-Chem 5.4.0 for Intel X86 EM64T Linux

User input:
--------------------------------------------------------------
$molecule
0 1
C	-0.093711	-8.519741	0.255459
C	0.083869	-7.635967	-0.799036
S	-0.345260	-7.651740	1.789425
C	0.018411	-6.261894	-0.418360
H	0.259169	-7.954738	-1.834294
C	-0.229701	-6.079985	0.987769
C	-0.302697	-4.798382	1.555260
C	0.196459	-5.153542	-1.294992
C	0.127651	-3.869626	-0.726408
C	-0.123544	-3.688927	0.680716
O	0.396706	-5.481075	-2.601852
O	-0.502673	-4.479871	2.868193
C	-1.262918	-5.356026	3.691495
H	-1.494604	-4.790496	4.614080
H	-0.693738	-6.268513	3.974195
H	-2.212720	-5.658187	3.199559
C	0.997016	-4.546999	-3.490743
H	1.226691	-5.107564	-4.416630
H	1.939526	-4.131473	-3.073934
H	0.309214	-3.712085	-3.746794
C	-0.186133	-2.314326	1.058247
S	0.256010	-2.295487	-1.527599
C	-0.000000	-1.435180	-0.000000
H	-0.363896	-1.993211	2.092285
C	0.000000	0.000000	0.000000
S	0.309721	0.844422	1.510732
C	0.847502	2.325108	0.727629
C	0.310602	0.853460	-1.064665
C	0.784173	2.159014	-0.678287
C	0.289451	0.790512	-2.486150
C	0.721927	1.979112	-3.106916
S	1.145464	3.152519	-1.965735
C	0.813355	2.216642	-4.559972
O	0.496884	1.338418	-5.350277
O	1.255274	3.421340	-5.004375
F	-0.087923	-0.257761	-3.246290
C	1.387494	3.754937	-6.334976
H	1.765978	4.793056	-6.370268
H	0.417095	3.693789	-6.875609
H	2.098820	3.081033	-6.861878
H	1.162229	3.189623	1.321510
H	0.793825	-9.146471	0.401636
H	-0.977367	-9.150570	0.103519
H	1.064992	-1.444158	0.179195
$end

$rem
JOBTYPE		SP
EXCHANGE	HF
CORRELATION	pRIMP2
BASIS		cc-pvtz
METHOD		rimp2
AUX_BASIS	rimp2-cc-pvtz
SOLVENT_METHOD	PCM
PURECART	11111
SYMMETRY	false
MEM_TOTAL	110000
SCF_CONVERGENCE = 6
THRESH=10
GUI = 2
$end

$solvent
dielectric 4.90
$end
--------------------------------------------------------------

             Standard Nuclear Orientation (Angstroms)
    I     Atom           X                Y                Z
 ----------------------------------------------------------------
    1      C      -0.0937110000    -8.5197410000     0.2554590000
    2      C       0.0838690000    -7.6359670000    -0.7990360000
    3      S      -0.3452600000    -7.6517400000     1.7894250000
    4      C       0.0184110000    -6.2618940000    -0.4183600000
    5      H       0.2591690000    -7.9547380000    -1.8342940000
    6      C      -0.2297010000    -6.0799850000     0.9877690000
    7      C      -0.3026970000    -4.7983820000     1.5552600000
    8      C       0.1964590000    -5.1535420000    -1.2949920000
    9      C       0.1276510000    -3.8696260000    -0.7264080000
   10      C      -0.1235440000    -3.6889270000     0.6807160000
   11      O       0.3967060000    -5.4810750000    -2.6018520000
   12      O      -0.5026730000    -4.4798710000     2.8681930000
   13      C      -1.2629180000    -5.3560260000     3.6914950000
   14      H      -1.4946040000    -4.7904960000     4.6140800000
   15      H      -0.6937380000    -6.2685130000     3.9741950000
   16      H      -2.2127200000    -5.6581870000     3.1995590000
   17      C       0.9970160000    -4.5469990000    -3.4907430000
   18      H       1.2266910000    -5.1075640000    -4.4166300000
   19      H       1.9395260000    -4.1314730000    -3.0739340000
   20      H       0.3092140000    -3.7120850000    -3.7467940000
   21      C      -0.1861330000    -2.3143260000     1.0582470000
   22      S       0.2560100000    -2.2954870000    -1.5275990000
   23      C       0.0000000000    -1.4351800000     0.0000000000
   24      H      -0.3638960000    -1.9932110000     2.0922850000
   25      C       0.0000000000     0.0000000000     0.0000000000
   26      S       0.3097210000     0.8444220000     1.5107320000
   27      C       0.8475020000     2.3251080000     0.7276290000
   28      C       0.3106020000     0.8534600000    -1.0646650000
   29      C       0.7841730000     2.1590140000    -0.6782870000
   30      C       0.2894510000     0.7905120000    -2.4861500000
   31      C       0.7219270000     1.9791120000    -3.1069160000
   32      S       1.1454640000     3.1525190000    -1.9657350000
   33      C       0.8133550000     2.2166420000    -4.5599720000
   34      O       0.4968840000     1.3384180000    -5.3502770000
   35      O       1.2552740000     3.4213400000    -5.0043750000
   36      F      -0.0879230000    -0.2577610000    -3.2462900000
   37      C       1.3874940000     3.7549370000    -6.3349760000
   38      H       1.7659780000     4.7930560000    -6.3702680000
   39      H       0.4170950000     3.6937890000    -6.8756090000
   40      H       2.0988200000     3.0810330000    -6.8618780000
   41      H       1.1622290000     3.1896230000     1.3215100000
   42      H       0.7938250000    -9.1464710000     0.4016360000
   43      H      -0.9773670000    -9.1505700000     0.1035190000
   44      H       1.0649920000    -1.4441580000     0.1791950000
 ----------------------------------------------------------------

   11   -2755.3168754067      6.66e-07  Convergence criterion met
 Total energy in the final basis set =    -2755.3168754067
        RIMP2         total energy =     -2760.4100612966 a.u.

                    Orbital Energies (a.u.)
 --------------------------------------------------------------

 Alpha MOs
 -- Occupied --
-92.0116 -91.9913 -91.9760 -91.9613 -26.3351 -20.6105 -20.5888 -20.5883
-20.5469 -11.4078 -11.3792 -11.3253 -11.3116 -11.3099 -11.2962 -11.2914
-11.2878 -11.2872 -11.2843 -11.2838 -11.2835 -11.2823 -11.2773 -11.2761
-11.2702 -11.2637 -11.2605 -11.2528 -11.2444  -9.0106  -8.9955  -8.9787
 -8.9639  -6.6915  -6.6908  -6.6902  -6.6768  -6.6761  -6.6748  -6.6596
 -6.6588  -6.6574  -6.6451  -6.6442  -6.6431  -1.6507  -1.4700  -1.4121
 -1.4102  -1.3649  -1.2389  -1.2098  -1.1788  -1.1435  -1.1006  -1.0509
 -1.0472  -1.0296  -1.0082  -1.0005  -0.9712  -0.9602  -0.9501  -0.9404
 -0.8954  -0.8714  -0.8634  -0.8129  -0.7957  -0.7862  -0.7763  -0.7663
 -0.7634  -0.7339  -0.7215  -0.7173  -0.6980  -0.6957  -0.6843  -0.6773
 -0.6727  -0.6716  -0.6569  -0.6496  -0.6382  -0.6297  -0.6230  -0.6161
 -0.6110  -0.6043  -0.5972  -0.5916  -0.5771  -0.5682  -0.5646  -0.5597
 -0.5488  -0.5336  -0.5288  -0.5211  -0.5139  -0.5090  -0.5046  -0.4999
 -0.4841  -0.4824  -0.4799  -0.4659  -0.4611  -0.4602  -0.4585  -0.4488
 -0.4309  -0.4008  -0.3847  -0.3733  -0.3510  -0.2939  -0.2831  -0.2192

          Ground-State Mulliken Net Atomic Charges

     Atom                 Charge (a.u.)
  ----------------------------------------
      1 C                    -0.071401
      2 C                    -0.237796
      3 S                    -0.128771
      4 C                    -0.053814
      5 H                     0.196584
      6 C                    -0.045598
      7 C                     0.216101
      8 C                     0.235859
      9 C                    -0.079620
     10 C                    -0.012377
     11 O                    -0.333983
     12 O                    -0.343831
     13 C                    -0.082718
     14 H                     0.120235
     15 H                     0.091931
     16 H                     0.093143
     17 C                    -0.089993
     18 H                     0.124853
     19 H                     0.092729
     20 H                     0.093653
     21 C                    -0.346573
     22 S                    -0.093048
     23 C                     0.132413
     24 H                     0.197600
     25 C                     0.042642
     26 S                     0.077909
     27 C                    -0.269907
     28 C                    -0.165977
     29 C                    -0.014308
     30 C                     0.371533
     31 C                    -0.144490
     32 S                     0.032115
     33 C                     0.458920
     34 O                    -0.455979
     35 O                    -0.298854
     36 F                    -0.207467
     37 C                    -0.054989
     38 H                     0.116312
     39 H                     0.084136
     40 H                     0.083719
     41 H                     0.213815
     42 H                     0.120456
     43 H                     0.118298
     44 H                     0.216540
  ----------------------------------------
  Sum of atomic charges =     0.000000

                    Cartesian Multipole Moments
 -----------------------------------------------------------------
    Charge (ESU x 10^10)
                 0.0000
    Dipole Moment (Debye)
         X       1.5996      Y       0.8364      Z       3.0356
       Tot       3.5318
    Quadrupole Moments (Debye-Ang)
        XX    -195.6306     XY       3.7949     YY    -166.1155
        XZ     -11.3505     YZ      -4.5336     ZZ    -193.2242

 Total job time:  335.58s(wall), 10749.60s(cpu)
        *  Thank you very much for using Q-Chem.  Have a nice day.  *
