 Q-Chem 5.4, Q-Chem, Inc., Pleasanton, CA (2021)
 Q-Chem 5.4.0 for Intel X86 EM64T Linux

User input:
--------------------------------------------------------------
$molecule
0 1
C	0.093711	-8.519741	-0.255459
C	-0.083869	-7.635967	0.799036
S	0.345260	-7.651740	-1.789425
C	-0.018411	-6.261894	0.418360
H	-0.259169	-7.954738	1.834294
C	0.229701	-6.079985	-0.987769
C	0.302697	-4.798382	-1.555260
C	-0.196459	-5.153542	1.294992
C	-0.127651	-3.869626	0.726408
C	0.123544	-3.688927	-0.680716
O	-0.396706	-5.481075	2.601852
O	0.502673	-4.479871	-2.868193
C	1.262918	-5.356026	-3.691495
H	1.494604	-4.790496	-4.614080
H	0.693738	-6.268513	-3.974195
H	2.212720	-5.658187	-3.199559
C	-0.997016	-4.546999	3.490743
H	-1.226691	-5.107564	4.416630
H	-1.939526	-4.131473	3.073934
H	-0.309214	-3.712085	3.746794
C	0.186133	-2.314326	-1.058247
S	-0.256010	-2.295487	1.527599
C	0.000000	-1.435180	0.000000
H	0.363896	-1.993211	-2.092285
C	0.000000	0.000000	0.000000
S	0.234946	0.868203	1.510732
C	0.641630	2.390125	0.727629
C	0.235036	0.877284	-1.064665
C	0.593019	2.219143	-0.678287
C	0.219452	0.812732	-2.486150
C	0.546689	2.034501	-3.106916
S	0.866345	3.240357	-1.965735
C	0.617067	2.279095	-4.559972
O	0.378342	1.376631	-5.350277
O	0.952308	3.517725	-5.004375
F	-0.065123	-0.264443	-3.246290
C	1.054950	3.861577	-6.334976
H	1.341516	4.928732	-6.370268
H	0.093573	3.716085	-6.875609
H	1.822303	3.252232	-6.861878
H	0.879812	3.278780	1.321510
H	-0.793825	-9.146471	-0.401636
H	0.977367	-9.150570	-0.103519
H	-1.064992	-1.444158	-0.179195
$end

$rem
JOBTYPE		SP
EXCHANGE	HF
CORRELATION	pRIMP2
BASIS		cc-pvtz
METHOD		rimp2
AUX_BASIS	rimp2-cc-pvtz
SOLVENT_METHOD	PCM
PURECART	11111
SYMMETRY	false
MEM_TOTAL	110000
SCF_CONVERGENCE = 6
THRESH=10
GUI = 2
$end

$solvent
dielectric 4.90
$end
--------------------------------------------------------------

             Standard Nuclear Orientation (Angstroms)
    I     Atom           X                Y                Z
 ----------------------------------------------------------------
    1      C       0.0937110000    -8.5197410000    -0.2554590000
    2      C      -0.0838690000    -7.6359670000     0.7990360000
    3      S       0.3452600000    -7.6517400000    -1.7894250000
    4      C      -0.0184110000    -6.2618940000     0.4183600000
    5      H      -0.2591690000    -7.9547380000     1.8342940000
    6      C       0.2297010000    -6.0799850000    -0.9877690000
    7      C       0.3026970000    -4.7983820000    -1.5552600000
    8      C      -0.1964590000    -5.1535420000     1.2949920000
    9      C      -0.1276510000    -3.8696260000     0.7264080000
   10      C       0.1235440000    -3.6889270000    -0.6807160000
   11      O      -0.3967060000    -5.4810750000     2.6018520000
   12      O       0.5026730000    -4.4798710000    -2.8681930000
   13      C       1.2629180000    -5.3560260000    -3.6914950000
   14      H       1.4946040000    -4.7904960000    -4.6140800000
   15      H       0.6937380000    -6.2685130000    -3.9741950000
   16      H       2.2127200000    -5.6581870000    -3.1995590000
   17      C      -0.9970160000    -4.5469990000     3.4907430000
   18      H      -1.2266910000    -5.1075640000     4.4166300000
   19      H      -1.9395260000    -4.1314730000     3.0739340000
   20      H      -0.3092140000    -3.7120850000     3.7467940000
   21      C       0.1861330000    -2.3143260000    -1.0582470000
   22      S      -0.2560100000    -2.2954870000     1.5275990000
   23      C       0.0000000000    -1.4351800000     0.0000000000
   24      H       0.3638960000    -1.9932110000    -2.0922850000
   25      C       0.0000000000     0.0000000000     0.0000000000
   26      S       0.2349460000     0.8682030000     1.5107320000
   27      C       0.6416300000     2.3901250000     0.7276290000
   28      C       0.2350360000     0.8772840000    -1.0646650000
   29      C       0.5930190000     2.2191430000    -0.6782870000
   30      C       0.2194520000     0.8127320000    -2.4861500000
   31      C       0.5466890000     2.0345010000    -3.1069160000
   32      S       0.8663450000     3.2403570000    -1.9657350000
   33      C       0.6170670000     2.2790950000    -4.5599720000
   34      O       0.3783420000     1.3766310000    -5.3502770000
   35      O       0.9523080000     3.5177250000    -5.0043750000
   36      F      -0.0651230000    -0.2644430000    -3.2462900000
   37      C       1.0549500000     3.8615770000    -6.3349760000
   38      H       1.3415160000     4.9287320000    -6.3702680000
   39      H       0.0935730000     3.7160850000    -6.8756090000
   40      H       1.8223030000     3.2522320000    -6.8618780000
   41      H       0.8798120000     3.2787800000     1.3215100000
   42      H      -0.7938250000    -9.1464710000    -0.4016360000
   43      H       0.9773670000    -9.1505700000    -0.1035190000
   44      H      -1.0649920000    -1.4441580000    -0.1791950000
 ----------------------------------------------------------------

   11   -2755.3199507752      6.85e-07  Convergence criterion met
 Total energy in the final basis set =    -2755.3199507752
        RIMP2         total energy =     -2760.4130733425 a.u.

                    Orbital Energies (a.u.)
 --------------------------------------------------------------

 Alpha MOs
 -- Occupied --
-92.0149 -91.9929 -91.9837 -91.9599 -26.3400 -20.6110 -20.5902 -20.5872
-20.5477 -11.4085 -11.3798 -11.3244 -11.3127 -11.3101 -11.2971 -11.2927
-11.2880 -11.2868 -11.2866 -11.2860 -11.2837 -11.2824 -11.2769 -11.2753
-11.2708 -11.2614 -11.2604 -11.2517 -11.2422  -9.0135  -8.9970  -8.9859
 -8.9625  -6.6943  -6.6937  -6.6932  -6.6783  -6.6776  -6.6763  -6.6670
 -6.6661  -6.6649  -6.6437  -6.6428  -6.6418  -1.6544  -1.4705  -1.4134
 -1.4092  -1.3656  -1.2383  -1.2111  -1.1779  -1.1436  -1.1013  -1.0506
 -1.0486  -1.0285  -1.0108  -1.0005  -0.9716  -0.9602  -0.9506  -0.9410
 -0.8963  -0.8734  -0.8633  -0.8109  -0.7975  -0.7880  -0.7758  -0.7713
 -0.7632  -0.7349  -0.7228  -0.7207  -0.6992  -0.6952  -0.6849  -0.6778
 -0.6725  -0.6720  -0.6580  -0.6496  -0.6402  -0.6303  -0.6220  -0.6159
 -0.6087  -0.6051  -0.5956  -0.5918  -0.5780  -0.5714  -0.5603  -0.5525
 -0.5470  -0.5366  -0.5324  -0.5229  -0.5148  -0.5097  -0.5070  -0.5021
 -0.4846  -0.4839  -0.4798  -0.4693  -0.4630  -0.4606  -0.4583  -0.4484
 -0.4337  -0.3978  -0.3888  -0.3723  -0.3506  -0.2942  -0.2845  -0.2186

          Ground-State Mulliken Net Atomic Charges

     Atom                 Charge (a.u.)
  ----------------------------------------
      1 C                    -0.071066
      2 C                    -0.246179
      3 S                    -0.131023
      4 C                    -0.051893
      5 H                     0.195220
      6 C                    -0.049077
      7 C                     0.225711
      8 C                     0.237704
      9 C                    -0.076698
     10 C                    -0.031841
     11 O                    -0.333229
     12 O                    -0.342956
     13 C                    -0.083337
     14 H                     0.121832
     15 H                     0.092301
     16 H                     0.092597
     17 C                    -0.088863
     18 H                     0.125454
     19 H                     0.093692
     20 H                     0.090380
     21 C                    -0.339149
     22 S                    -0.096228
     23 C                     0.137959
     24 H                     0.214709
     25 C                    -0.056556
     26 S                     0.090118
     27 C                    -0.273313
     28 C                    -0.088829
     29 C                    -0.005156
     30 C                     0.381174
     31 C                    -0.147076
     32 S                     0.034139
     33 C                     0.461479
     34 O                    -0.455597
     35 O                    -0.298651
     36 F                    -0.217205
     37 C                    -0.055045
     38 H                     0.116454
     39 H                     0.084142
     40 H                     0.084018
     41 H                     0.214300
     42 H                     0.119394
     43 H                     0.117101
     44 H                     0.209088
  ----------------------------------------
  Sum of atomic charges =     0.000000

                    Cartesian Multipole Moments
 -----------------------------------------------------------------
    Charge (ESU x 10^10)
                 0.0000
    Dipole Moment (Debye)
         X      -0.0089      Y       1.4510      Z       3.6388
       Tot       3.9174
    Quadrupole Moments (Debye-Ang)
        XX    -196.2497     XY       4.4424     YY    -168.3313
        XZ     -10.6827     YZ     -14.1537     ZZ    -193.1944

 Total job time:  337.66s(wall), 11167.87s(cpu)
        *  Thank you very much for using Q-Chem.  Have a nice day.  *
