 Q-Chem 5.4, Q-Chem, Inc., Pleasanton, CA (2021)
 Q-Chem 5.4.0 for Intel X86 EM64T Linux

User input:
--------------------------------------------------------------
$molecule
0 1
C	-0.093711	-8.519741	0.255459
C	0.083869	-7.635967	-0.799036
S	-0.345260	-7.651740	1.789425
C	0.018411	-6.261894	-0.418360
H	0.259169	-7.954738	-1.834294
C	-0.229701	-6.079985	0.987769
C	-0.302697	-4.798382	1.555260
C	0.196459	-5.153542	-1.294992
C	0.127651	-3.869626	-0.726408
C	-0.123544	-3.688927	0.680716
O	0.396706	-5.481075	-2.601852
O	-0.502673	-4.479871	2.868193
C	-1.262918	-5.356026	3.691495
H	-1.494604	-4.790496	4.614080
H	-0.693738	-6.268513	3.974195
H	-2.212720	-5.658187	3.199559
C	0.997016	-4.546999	-3.490743
H	1.226691	-5.107564	-4.416630
H	1.939526	-4.131473	-3.073934
H	0.309214	-3.712085	-3.746794
C	-0.186133	-2.314326	1.058247
S	0.256010	-2.295487	-1.527599
C	0.000000	-1.435180	0.000000
H	-0.363896	-1.993211	2.092285
C	0.000000	0.000000	0.000000
S	0.451648	0.777811	1.510732
C	1.238377	2.142617	0.727629
C	0.454085	0.786559	-1.064665
C	1.147169	1.990043	-0.678287
C	0.422325	0.728240	-2.486150
C	1.054629	1.823683	-3.106916
S	1.675491	2.905718	-1.965735
C	1.185914	2.041729	-4.559972
O	0.721749	1.231802	-5.350277
O	1.830313	3.151386	-5.004375
F	-0.131347	-0.238577	-3.246290
C	2.018453	3.456956	-6.334976
H	2.571455	4.413580	-6.370268
H	1.052178	3.565244	-6.875609
H	2.601950	2.669768	-6.861878
H	1.698444	2.939346	1.321510
H	0.793825	-9.146471	0.401636
H	-0.977367	-9.150570	0.103519
H	1.064992	-1.444158	0.179195
$end

$rem
JOBTYPE		SP
EXCHANGE	HF
CORRELATION	pRIMP2
BASIS		cc-pvtz
METHOD		rimp2
AUX_BASIS	rimp2-cc-pvtz
SOLVENT_METHOD	PCM
PURECART	11111
SYMMETRY	false
MEM_TOTAL	110000
SCF_CONVERGENCE = 6
THRESH=10
GUI = 2
$end

$solvent
dielectric 4.90
$end
--------------------------------------------------------------

             Standard Nuclear Orientation (Angstroms)
    I     Atom           X                Y                Z
 ----------------------------------------------------------------
    1      C      -0.0937110000    -8.5197410000     0.2554590000
    2      C       0.0838690000    -7.6359670000    -0.7990360000
    3      S      -0.3452600000    -7.6517400000     1.7894250000
    4      C       0.0184110000    -6.2618940000    -0.4183600000
    5      H       0.2591690000    -7.9547380000    -1.8342940000
    6      C      -0.2297010000    -6.0799850000     0.9877690000
    7      C      -0.3026970000    -4.7983820000     1.5552600000
    8      C       0.1964590000    -5.1535420000    -1.2949920000
    9      C       0.1276510000    -3.8696260000    -0.7264080000
   10      C      -0.1235440000    -3.6889270000     0.6807160000
   11      O       0.3967060000    -5.4810750000    -2.6018520000
   12      O      -0.5026730000    -4.4798710000     2.8681930000
   13      C      -1.2629180000    -5.3560260000     3.6914950000
   14      H      -1.4946040000    -4.7904960000     4.6140800000
   15      H      -0.6937380000    -6.2685130000     3.9741950000
   16      H      -2.2127200000    -5.6581870000     3.1995590000
   17      C       0.9970160000    -4.5469990000    -3.4907430000
   18      H       1.2266910000    -5.1075640000    -4.4166300000
   19      H       1.9395260000    -4.1314730000    -3.0739340000
   20      H       0.3092140000    -3.7120850000    -3.7467940000
   21      C      -0.1861330000    -2.3143260000     1.0582470000
   22      S       0.2560100000    -2.2954870000    -1.5275990000
   23      C       0.0000000000    -1.4351800000     0.0000000000
   24      H      -0.3638960000    -1.9932110000     2.0922850000
   25      C       0.0000000000     0.0000000000     0.0000000000
   26      S       0.4516480000     0.7778110000     1.5107320000
   27      C       1.2383770000     2.1426170000     0.7276290000
   28      C       0.4540850000     0.7865590000    -1.0646650000
   29      C       1.1471690000     1.9900430000    -0.6782870000
   30      C       0.4223250000     0.7282400000    -2.4861500000
   31      C       1.0546290000     1.8236830000    -3.1069160000
   32      S       1.6754910000     2.9057180000    -1.9657350000
   33      C       1.1859140000     2.0417290000    -4.5599720000
   34      O       0.7217490000     1.2318020000    -5.3502770000
   35      O       1.8303130000     3.1513860000    -5.0043750000
   36      F      -0.1313470000    -0.2385770000    -3.2462900000
   37      C       2.0184530000     3.4569560000    -6.3349760000
   38      H       2.5714550000     4.4135800000    -6.3702680000
   39      H       1.0521780000     3.5652440000    -6.8756090000
   40      H       2.6019500000     2.6697680000    -6.8618780000
   41      H       1.6984440000     2.9393460000     1.3215100000
   42      H       0.7938250000    -9.1464710000     0.4016360000
   43      H      -0.9773670000    -9.1505700000     0.1035190000
   44      H       1.0649920000    -1.4441580000     0.1791950000
 ----------------------------------------------------------------

   11   -2755.3080079474      6.21e-07  Convergence criterion met
 Total energy in the final basis set =    -2755.3080079474
        RIMP2         total energy =     -2760.4050557007 a.u.

                    Orbital Energies (a.u.)
 --------------------------------------------------------------

 Alpha MOs
 -- Occupied --
-92.0107 -91.9923 -91.9755 -91.9611 -26.3350 -20.6109 -20.5887 -20.5881
-20.5477 -11.4084 -11.3790 -11.3213 -11.3115 -11.3097 -11.2968 -11.2928
-11.2880 -11.2871 -11.2861 -11.2842 -11.2837 -11.2821 -11.2773 -11.2770
-11.2691 -11.2631 -11.2604 -11.2527 -11.2443  -9.0098  -8.9965  -8.9782
 -8.9637  -6.6907  -6.6900  -6.6895  -6.6778  -6.6771  -6.6757  -6.6591
 -6.6583  -6.6569  -6.6449  -6.6440  -6.6430  -1.6504  -1.4705  -1.4120
 -1.4100  -1.3655  -1.2405  -1.2093  -1.1788  -1.1441  -1.1000  -1.0515
 -1.0471  -1.0302  -1.0077  -1.0001  -0.9716  -0.9599  -0.9501  -0.9406
 -0.8951  -0.8714  -0.8626  -0.8128  -0.7957  -0.7861  -0.7763  -0.7660
 -0.7634  -0.7337  -0.7218  -0.7170  -0.6978  -0.6958  -0.6844  -0.6777
 -0.6731  -0.6720  -0.6567  -0.6495  -0.6376  -0.6293  -0.6229  -0.6160
 -0.6111  -0.6049  -0.5974  -0.5926  -0.5768  -0.5677  -0.5642  -0.5597
 -0.5484  -0.5336  -0.5290  -0.5210  -0.5138  -0.5089  -0.5045  -0.5002
 -0.4839  -0.4833  -0.4794  -0.4647  -0.4610  -0.4604  -0.4590  -0.4487
 -0.4302  -0.4012  -0.3836  -0.3733  -0.3512  -0.2944  -0.2832  -0.2185

          Ground-State Mulliken Net Atomic Charges

     Atom                 Charge (a.u.)
  ----------------------------------------
      1 C                    -0.071472
      2 C                    -0.238108
      3 S                    -0.129095
      4 C                    -0.053537
      5 H                     0.196551
      6 C                    -0.045603
      7 C                     0.215644
      8 C                     0.234869
      9 C                    -0.079573
     10 C                    -0.014715
     11 O                    -0.333977
     12 O                    -0.343709
     13 C                    -0.082716
     14 H                     0.120198
     15 H                     0.091857
     16 H                     0.093121
     17 C                    -0.089787
     18 H                     0.124662
     19 H                     0.092602
     20 H                     0.093767
     21 C                    -0.340900
     22 S                    -0.092700
     23 C                     0.117649
     24 H                     0.198850
     25 C                     0.045703
     26 S                     0.076585
     27 C                    -0.259219
     28 C                    -0.159208
     29 C                    -0.014685
     30 C                     0.358267
     31 C                    -0.141924
     32 S                     0.036837
     33 C                     0.457973
     34 O                    -0.454752
     35 O                    -0.298800
     36 F                    -0.206984
     37 C                    -0.054979
     38 H                     0.116413
     39 H                     0.084212
     40 H                     0.083905
     41 H                     0.214451
     42 H                     0.120405
     43 H                     0.118249
     44 H                     0.213673
  ----------------------------------------
  Sum of atomic charges =     0.000000

                    Cartesian Multipole Moments
 -----------------------------------------------------------------
    Charge (ESU x 10^10)
                -0.0000
    Dipole Moment (Debye)
         X       2.1120      Y       0.8746      Z       2.9894
       Tot       3.7632
    Quadrupole Moments (Debye-Ang)
        XX    -193.6297     XY       5.5834     YY    -167.8811
        XZ     -13.0195     YZ      -3.9323     ZZ    -192.9487

 Total job time:  332.01s(wall), 10606.80s(cpu)
        *  Thank you very much for using Q-Chem.  Have a nice day.  *
