 Q-Chem 5.4, Q-Chem, Inc., Pleasanton, CA (2021)
 Q-Chem 5.4.0 for Intel X86 EM64T Linux

User input:
--------------------------------------------------------------
$molecule
0 1
C	-0.175432	-8.519741	0.208002
C	0.352097	-7.635967	-0.722164
S	-0.936458	-7.651740	1.563424
C	0.160388	-6.261894	-0.386833
H	0.870905	-7.954738	-1.635031
C	-0.553685	-6.079985	0.849637
C	-0.816372	-4.798382	1.357938
C	0.627524	-5.153542	-1.149702
C	0.368399	-3.869626	-0.638941
C	-0.348912	-3.688927	0.597409
O	1.262667	-5.481075	-2.309260
O	-1.453338	-4.479871	2.523296
C	-2.449320	-5.356026	3.036927
H	-2.982577	-4.790496	3.824632
H	-2.011155	-6.268513	3.497250
H	-3.173591	-5.658187	2.249807
C	2.130793	-4.546999	-2.939226
H	2.663289	-5.107564	-3.730721
H	2.873906	-4.131473	-2.225196
H	1.572045	-3.712085	-3.415077
C	-0.536849	-2.314326	0.930765
S	0.763041	-2.295487	-1.347913
C	-0.000000	-1.435180	-0.000000
H	-1.057554	-1.993211	1.841645
C	0.000000	0.000000	0.000000
S	0.382139	0.814215	1.510732
C	1.046923	2.242395	0.727629
C	0.383804	0.823142	-1.064665
C	0.969360	2.082453	-0.678287
C	0.357247	0.762277	-2.486150
C	0.891671	1.908660	-3.106916
S	1.415865	3.040689	-1.965735
C	1.003453	2.137318	-4.559972
O	0.611644	1.290019	-5.350277
O	1.548687	3.298916	-5.004375
F	-0.110054	-0.249117	-3.246290
C	1.709479	3.619721	-6.334976
H	2.177001	4.620902	-6.370268
H	0.737443	3.643380	-6.875609
H	2.359363	2.886384	-6.861878
H	1.435800	3.076190	1.321510
H	0.608584	-9.146471	0.648918
H	-0.953830	-9.150570	-0.237003
H	0.939477	-1.444158	0.532637
$end

$rem
JOBTYPE		SP
EXCHANGE	HF
CORRELATION	pRIMP2
BASIS		cc-pvtz
METHOD		rimp2
AUX_BASIS	rimp2-cc-pvtz
SOLVENT_METHOD	PCM
PURECART	11111
SYMMETRY	false
MEM_TOTAL	110000
SCF_CONVERGENCE = 6
THRESH=10
GUI = 2
$end

$solvent
dielectric 4.90
$end
--------------------------------------------------------------

             Standard Nuclear Orientation (Angstroms)
    I     Atom           X                Y                Z
 ----------------------------------------------------------------
    1      C      -0.1754320000    -8.5197410000     0.2080020000
    2      C       0.3520970000    -7.6359670000    -0.7221640000
    3      S      -0.9364580000    -7.6517400000     1.5634240000
    4      C       0.1603880000    -6.2618940000    -0.3868330000
    5      H       0.8709050000    -7.9547380000    -1.6350310000
    6      C      -0.5536850000    -6.0799850000     0.8496370000
    7      C      -0.8163720000    -4.7983820000     1.3579380000
    8      C       0.6275240000    -5.1535420000    -1.1497020000
    9      C       0.3683990000    -3.8696260000    -0.6389410000
   10      C      -0.3489120000    -3.6889270000     0.5974090000
   11      O       1.2626670000    -5.4810750000    -2.3092600000
   12      O      -1.4533380000    -4.4798710000     2.5232960000
   13      C      -2.4493200000    -5.3560260000     3.0369270000
   14      H      -2.9825770000    -4.7904960000     3.8246320000
   15      H      -2.0111550000    -6.2685130000     3.4972500000
   16      H      -3.1735910000    -5.6581870000     2.2498070000
   17      C       2.1307930000    -4.5469990000    -2.9392260000
   18      H       2.6632890000    -5.1075640000    -3.7307210000
   19      H       2.8739060000    -4.1314730000    -2.2251960000
   20      H       1.5720450000    -3.7120850000    -3.4150770000
   21      C      -0.5368490000    -2.3143260000     0.9307650000
   22      S       0.7630410000    -2.2954870000    -1.3479130000
   23      C       0.0000000000    -1.4351800000     0.0000000000
   24      H      -1.0575540000    -1.9932110000     1.8416450000
   25      C       0.0000000000     0.0000000000     0.0000000000
   26      S       0.3821390000     0.8142150000     1.5107320000
   27      C       1.0469230000     2.2423950000     0.7276290000
   28      C       0.3838040000     0.8231420000    -1.0646650000
   29      C       0.9693600000     2.0824530000    -0.6782870000
   30      C       0.3572470000     0.7622770000    -2.4861500000
   31      C       0.8916710000     1.9086600000    -3.1069160000
   32      S       1.4158650000     3.0406890000    -1.9657350000
   33      C       1.0034530000     2.1373180000    -4.5599720000
   34      O       0.6116440000     1.2900190000    -5.3502770000
   35      O       1.5486870000     3.2989160000    -5.0043750000
   36      F      -0.1100540000    -0.2491170000    -3.2462900000
   37      C       1.7094790000     3.6197210000    -6.3349760000
   38      H       2.1770010000     4.6209020000    -6.3702680000
   39      H       0.7374430000     3.6433800000    -6.8756090000
   40      H       2.3593630000     2.8863840000    -6.8618780000
   41      H       1.4358000000     3.0761900000     1.3215100000
   42      H       0.6085840000    -9.1464710000     0.6489180000
   43      H      -0.9538300000    -9.1505700000    -0.2370030000
   44      H       0.9394770000    -1.4441580000     0.5326370000
 ----------------------------------------------------------------

   11   -2755.3135124240      7.44e-07  Convergence criterion met
 Total energy in the final basis set =    -2755.3135124240
        RIMP2         total energy =     -2760.4076075487 a.u.

                    Orbital Energies (a.u.)
 --------------------------------------------------------------

 Alpha MOs
 -- Occupied --
-92.0110 -91.9927 -91.9769 -91.9601 -26.3340 -20.6115 -20.5879 -20.5878
-20.5487 -11.4092 -11.3789 -11.3204 -11.3096 -11.3096 -11.2966 -11.2948
-11.2895 -11.2882 -11.2844 -11.2842 -11.2834 -11.2834 -11.2795 -11.2757
-11.2706 -11.2617 -11.2596 -11.2515 -11.2413  -9.0103  -8.9969  -8.9794
 -8.9627  -6.6911  -6.6905  -6.6899  -6.6782  -6.6775  -6.6761  -6.6604
 -6.6596  -6.6582  -6.6439  -6.6430  -6.6419  -1.6482  -1.4711  -1.4112
 -1.4097  -1.3662  -1.2399  -1.2096  -1.1776  -1.1441  -1.0998  -1.0512
 -1.0466  -1.0307  -1.0080  -0.9993  -0.9717  -0.9600  -0.9495  -0.9406
 -0.8946  -0.8708  -0.8635  -0.8116  -0.7939  -0.7858  -0.7761  -0.7671
 -0.7660  -0.7333  -0.7210  -0.7159  -0.6973  -0.6939  -0.6837  -0.6780
 -0.6714  -0.6700  -0.6566  -0.6492  -0.6384  -0.6287  -0.6218  -0.6156
 -0.6111  -0.6055  -0.5963  -0.5928  -0.5789  -0.5668  -0.5640  -0.5589
 -0.5483  -0.5341  -0.5283  -0.5212  -0.5135  -0.5085  -0.5039  -0.5010
 -0.4850  -0.4834  -0.4789  -0.4670  -0.4623  -0.4608  -0.4598  -0.4480
 -0.4284  -0.4013  -0.3844  -0.3726  -0.3514  -0.2940  -0.2841  -0.2183

          Ground-State Mulliken Net Atomic Charges

     Atom                 Charge (a.u.)
  ----------------------------------------
      1 C                    -0.070874
      2 C                    -0.247330
      3 S                    -0.131334
      4 C                    -0.051010
      5 H                     0.195313
      6 C                    -0.045303
      7 C                     0.213981
      8 C                     0.228945
      9 C                    -0.077090
     10 C                    -0.009148
     11 O                    -0.334319
     12 O                    -0.343649
     13 C                    -0.082639
     14 H                     0.120013
     15 H                     0.091927
     16 H                     0.093225
     17 C                    -0.089856
     18 H                     0.124351
     19 H                     0.092208
     20 H                     0.092845
     21 C                    -0.336378
     22 S                    -0.088427
     23 C                     0.127214
     24 H                     0.200581
     25 C                     0.017625
     26 S                     0.084308
     27 C                    -0.253148
     28 C                    -0.169742
     29 C                    -0.005240
     30 C                     0.372556
     31 C                    -0.146756
     32 S                     0.034772
     33 C                     0.459395
     34 O                    -0.452324
     35 O                    -0.298460
     36 F                    -0.206564
     37 C                    -0.054919
     38 H                     0.116503
     39 H                     0.084455
     40 H                     0.084122
     41 H                     0.214051
     42 H                     0.119179
     43 H                     0.117036
     44 H                     0.209904
  ----------------------------------------
  Sum of atomic charges =     0.000000

                    Cartesian Multipole Moments
 -----------------------------------------------------------------
    Charge (ESU x 10^10)
                 0.0000
    Dipole Moment (Debye)
         X       1.9681      Y       1.7216      Z       3.2236
       Tot       4.1508
    Quadrupole Moments (Debye-Ang)
        XX    -188.3451     XY       3.6567     YY    -170.9643
        XZ     -13.7758     YZ      -5.4291     ZZ    -198.7746

 Total job time:  336.17s(wall), 10449.90s(cpu)
        *  Thank you very much for using Q-Chem.  Have a nice day.  *
