 Q-Chem 5.4, Q-Chem, Inc., Pleasanton, CA (2021)
 Q-Chem 5.4.0 for Intel X86 EM64T Linux

User input:
--------------------------------------------------------------
$molecule
0 1
C	0.000687	-8.519741	-0.272104
C	0.194476	-7.635967	0.779533
S	-0.287581	-7.651740	-1.799596
C	0.125787	-6.261894	0.399427
H	0.383826	-7.954738	1.812314
C	-0.121989	-6.079985	-1.006762
C	-0.247488	-4.798382	-1.564994
C	0.258303	-5.153542	1.284087
C	0.128493	-3.869626	0.726260
C	-0.116725	-3.688927	-0.681918
O	0.517104	-5.481075	2.580622
O	-0.508622	-4.479871	-2.867144
C	-0.075811	-5.356026	-3.900814
H	-0.173640	-4.790496	-4.847002
H	-0.707354	-6.268513	-3.971794
H	0.984963	-5.658187	-3.763397
C	0.257016	-4.546999	3.621225
H	0.357864	-5.107564	4.569828
H	-0.771211	-4.131473	3.551910
H	0.990913	-3.712085	3.626592
C	-0.187034	-2.314326	-1.058088
S	0.281899	-2.295487	1.523035
C	0.000000	-1.435180	0.000000
H	-0.373653	-1.993211	-2.090565
C	0.000000	0.000000	0.000000
S	0.309721	0.844422	1.510732
C	0.847502	2.325108	0.727629
C	0.310602	0.853460	-1.064665
C	0.784173	2.159014	-0.678287
C	0.289451	0.790512	-2.486150
C	0.721927	1.979112	-3.106916
S	1.145464	3.152519	-1.965735
C	0.813355	2.216642	-4.559972
O	0.496884	1.338418	-5.350277
O	1.255274	3.421340	-5.004375
F	-0.087923	-0.257761	-3.246290
C	1.387494	3.754937	-6.334976
H	1.765978	4.793056	-6.370268
H	0.417095	3.693789	-6.875609
H	2.098820	3.081033	-6.861878
H	1.162229	3.189623	1.321510
H	-0.883319	-9.146471	-0.105910
H	0.883019	-9.150570	-0.431555
H	-1.062054	-1.444158	0.195861
$end

$rem
JOBTYPE		SP
EXCHANGE	HF
CORRELATION	pRIMP2
BASIS		cc-pvtz
METHOD		rimp2
AUX_BASIS	rimp2-cc-pvtz
SOLVENT_METHOD	PCM
PURECART	11111
SYMMETRY	false
MEM_TOTAL	110000
SCF_CONVERGENCE = 6
THRESH=10
GUI = 2
$end

$solvent
dielectric 4.90
$end
--------------------------------------------------------------

             Standard Nuclear Orientation (Angstroms)
    I     Atom           X                Y                Z
 ----------------------------------------------------------------
    1      C       0.0006870000    -8.5197410000    -0.2721040000
    2      C       0.1944760000    -7.6359670000     0.7795330000
    3      S      -0.2875810000    -7.6517400000    -1.7995960000
    4      C       0.1257870000    -6.2618940000     0.3994270000
    5      H       0.3838260000    -7.9547380000     1.8123140000
    6      C      -0.1219890000    -6.0799850000    -1.0067620000
    7      C      -0.2474880000    -4.7983820000    -1.5649940000
    8      C       0.2583030000    -5.1535420000     1.2840870000
    9      C       0.1284930000    -3.8696260000     0.7262600000
   10      C      -0.1167250000    -3.6889270000    -0.6819180000
   11      O       0.5171040000    -5.4810750000     2.5806220000
   12      O      -0.5086220000    -4.4798710000    -2.8671440000
   13      C      -0.0758110000    -5.3560260000    -3.9008140000
   14      H      -0.1736400000    -4.7904960000    -4.8470020000
   15      H      -0.7073540000    -6.2685130000    -3.9717940000
   16      H       0.9849630000    -5.6581870000    -3.7633970000
   17      C       0.2570160000    -4.5469990000     3.6212250000
   18      H       0.3578640000    -5.1075640000     4.5698280000
   19      H      -0.7712110000    -4.1314730000     3.5519100000
   20      H       0.9909130000    -3.7120850000     3.6265920000
   21      C      -0.1870340000    -2.3143260000    -1.0580880000
   22      S       0.2818990000    -2.2954870000     1.5230350000
   23      C       0.0000000000    -1.4351800000     0.0000000000
   24      H      -0.3736530000    -1.9932110000    -2.0905650000
   25      C       0.0000000000     0.0000000000     0.0000000000
   26      S       0.3097210000     0.8444220000     1.5107320000
   27      C       0.8475020000     2.3251080000     0.7276290000
   28      C       0.3106020000     0.8534600000    -1.0646650000
   29      C       0.7841730000     2.1590140000    -0.6782870000
   30      C       0.2894510000     0.7905120000    -2.4861500000
   31      C       0.7219270000     1.9791120000    -3.1069160000
   32      S       1.1454640000     3.1525190000    -1.9657350000
   33      C       0.8133550000     2.2166420000    -4.5599720000
   34      O       0.4968840000     1.3384180000    -5.3502770000
   35      O       1.2552740000     3.4213400000    -5.0043750000
   36      F      -0.0879230000    -0.2577610000    -3.2462900000
   37      C       1.3874940000     3.7549370000    -6.3349760000
   38      H       1.7659780000     4.7930560000    -6.3702680000
   39      H       0.4170950000     3.6937890000    -6.8756090000
   40      H       2.0988200000     3.0810330000    -6.8618780000
   41      H       1.1622290000     3.1896230000     1.3215100000
   42      H      -0.8833190000    -9.1464710000    -0.1059100000
   43      H       0.8830190000    -9.1505700000    -0.4315550000
   44      H      -1.0620540000    -1.4441580000     0.1958610000
 ----------------------------------------------------------------

   11   -2755.3148711420      6.96e-07  Convergence criterion met
 Total energy in the final basis set =    -2755.3148711420
        RIMP2         total energy =     -2760.4094318781 a.u.

                    Orbital Energies (a.u.)
 --------------------------------------------------------------

 Alpha MOs
 -- Occupied --
-92.0150 -91.9932 -91.9835 -91.9593 -26.3397 -20.6113 -20.5896 -20.5870
-20.5483 -11.4090 -11.3797 -11.3216 -11.3117 -11.3097 -11.2971 -11.2938
-11.2882 -11.2864 -11.2863 -11.2852 -11.2851 -11.2821 -11.2775 -11.2744
-11.2703 -11.2602 -11.2598 -11.2511 -11.2408  -9.0137  -8.9973  -8.9857
 -8.9619  -6.6945  -6.6939  -6.6933  -6.6786  -6.6779  -6.6766  -6.6668
 -6.6659  -6.6646  -6.6431  -6.6422  -6.6412  -1.6542  -1.4709  -1.4128
 -1.4089  -1.3660  -1.2385  -1.2107  -1.1773  -1.1437  -1.1006  -1.0505
 -1.0481  -1.0291  -1.0104  -0.9999  -0.9719  -0.9599  -0.9501  -0.9407
 -0.8959  -0.8727  -0.8638  -0.8108  -0.7980  -0.7877  -0.7758  -0.7706
 -0.7639  -0.7332  -0.7235  -0.7212  -0.6986  -0.6948  -0.6847  -0.6781
 -0.6723  -0.6694  -0.6578  -0.6492  -0.6400  -0.6303  -0.6214  -0.6155
 -0.6084  -0.6055  -0.5955  -0.5923  -0.5766  -0.5713  -0.5598  -0.5524
 -0.5470  -0.5366  -0.5331  -0.5227  -0.5150  -0.5097  -0.5068  -0.5012
 -0.4845  -0.4836  -0.4796  -0.4700  -0.4621  -0.4607  -0.4579  -0.4475
 -0.4335  -0.3976  -0.3883  -0.3717  -0.3506  -0.2941  -0.2844  -0.2178

          Ground-State Mulliken Net Atomic Charges

     Atom                 Charge (a.u.)
  ----------------------------------------
      1 C                    -0.070811
      2 C                    -0.250091
      3 S                    -0.132384
      4 C                    -0.049097
      5 H                     0.194708
      6 C                    -0.051158
      7 C                     0.229035
      8 C                     0.232124
      9 C                    -0.077121
     10 C                    -0.038920
     11 O                    -0.333326
     12 O                    -0.343581
     13 C                    -0.083194
     14 H                     0.121950
     15 H                     0.092119
     16 H                     0.092663
     17 C                    -0.089050
     18 H                     0.125158
     19 H                     0.093418
     20 H                     0.090127
     21 C                    -0.306554
     22 S                    -0.091906
     23 C                     0.100225
     24 H                     0.219129
     25 C                    -0.056753
     26 S                     0.080754
     27 C                    -0.253755
     28 C                    -0.075561
     29 C                    -0.016735
     30 C                     0.383230
     31 C                    -0.146019
     32 S                     0.035568
     33 C                     0.458153
     34 O                    -0.454466
     35 O                    -0.298459
     36 F                    -0.216122
     37 C                    -0.054962
     38 H                     0.116492
     39 H                     0.084178
     40 H                     0.084134
     41 H                     0.215551
     42 H                     0.118796
     43 H                     0.116567
     44 H                     0.205946
  ----------------------------------------
  Sum of atomic charges =     0.000000

                    Cartesian Multipole Moments
 -----------------------------------------------------------------
    Charge (ESU x 10^10)
                -0.0000
    Dipole Moment (Debye)
         X       0.3901      Y       1.8161      Z       3.7960
       Tot       4.2262
    Quadrupole Moments (Debye-Ang)
        XX    -199.3917     XY       3.9543     YY    -171.0363
        XZ      -6.3323     YZ     -13.8710     ZZ    -188.9773

 Total job time:  329.42s(wall), 10767.90s(cpu)
        *  Thank you very much for using Q-Chem.  Have a nice day.  *
