 Q-Chem 5.4, Q-Chem, Inc., Pleasanton, CA (2021)
 Q-Chem 5.4.0 for Intel X86 EM64T Linux

User input:
--------------------------------------------------------------
$molecule
0 1
C	0.135457	-8.519741	0.235993
C	-0.558188	-7.635967	-0.577858
S	1.148850	-7.651740	1.414705
C	-0.308648	-6.261894	-0.283020
H	-1.238560	-7.954738	-1.377597
C	0.609026	-6.079985	0.810887
C	0.996828	-4.798382	1.231581
C	-0.865740	-5.153542	-0.982901
C	-0.474408	-3.869626	-0.564713
C	0.442046	-3.688927	0.532196
O	-1.738137	-5.481075	-1.976332
O	1.874052	-4.479871	2.228709
C	2.016062	-5.356026	3.340298
H	2.573877	-4.790496	4.110807
H	2.598484	-6.268513	3.085998
H	1.028695	-5.658187	3.751679
C	-2.033195	-4.546999	-3.007565
H	-2.594833	-5.107564	-3.778655
H	-1.108067	-4.131473	-3.461650
H	-2.671451	-3.712085	-2.645264
C	0.691020	-2.314326	0.822814
S	-1.005649	-2.295487	-1.178037
C	0.000000	-1.435180	0.000000
H	1.368875	-1.993211	1.623656
C	0.000000	0.000000	0.000000
S	0.002233	0.899428	1.510732
C	0.001157	2.474749	0.727629
C	-0.000030	0.908223	-1.064665
C	-0.001545	2.297013	-0.678287
C	0.001624	0.841837	-2.486150
C	0.001494	2.106670	-3.106916
S	-0.001841	3.354171	-1.965735
C	0.006168	2.361146	-4.559972
O	0.009152	1.427646	-5.350277
O	0.009405	3.644337	-5.004375
F	0.005539	-0.272288	-3.246290
C	0.019554	4.003038	-6.334976
H	0.020155	5.108000	-6.370268
H	-0.871409	3.613681	-6.875609
H	0.918470	3.613062	-6.861878
H	0.001222	3.394771	1.321510
H	0.817932	-9.146471	-0.349939
H	-0.548939	-9.150570	0.815247
H	0.821835	-1.444158	-0.700647
$end

$rem
JOBTYPE		SP
EXCHANGE	HF
CORRELATION	pRIMP2
BASIS		cc-pvtz
METHOD		rimp2
AUX_BASIS	rimp2-cc-pvtz
SOLVENT_METHOD	PCM
PURECART	11111
SYMMETRY	false
MEM_TOTAL	110000
SCF_CONVERGENCE = 6
THRESH=10
GUI = 2
$end

$solvent
dielectric 4.90
$end
--------------------------------------------------------------

             Standard Nuclear Orientation (Angstroms)
    I     Atom           X                Y                Z
 ----------------------------------------------------------------
    1      C       0.1354570000    -8.5197410000     0.2359930000
    2      C      -0.5581880000    -7.6359670000    -0.5778580000
    3      S       1.1488500000    -7.6517400000     1.4147050000
    4      C      -0.3086480000    -6.2618940000    -0.2830200000
    5      H      -1.2385600000    -7.9547380000    -1.3775970000
    6      C       0.6090260000    -6.0799850000     0.8108870000
    7      C       0.9968280000    -4.7983820000     1.2315810000
    8      C      -0.8657400000    -5.1535420000    -0.9829010000
    9      C      -0.4744080000    -3.8696260000    -0.5647130000
   10      C       0.4420460000    -3.6889270000     0.5321960000
   11      O      -1.7381370000    -5.4810750000    -1.9763320000
   12      O       1.8740520000    -4.4798710000     2.2287090000
   13      C       2.0160620000    -5.3560260000     3.3402980000
   14      H       2.5738770000    -4.7904960000     4.1108070000
   15      H       2.5984840000    -6.2685130000     3.0859980000
   16      H       1.0286950000    -5.6581870000     3.7516790000
   17      C      -2.0331950000    -4.5469990000    -3.0075650000
   18      H      -2.5948330000    -5.1075640000    -3.7786550000
   19      H      -1.1080670000    -4.1314730000    -3.4616500000
   20      H      -2.6714510000    -3.7120850000    -2.6452640000
   21      C       0.6910200000    -2.3143260000     0.8228140000
   22      S      -1.0056490000    -2.2954870000    -1.1780370000
   23      C       0.0000000000    -1.4351800000     0.0000000000
   24      H       1.3688750000    -1.9932110000     1.6236560000
   25      C       0.0000000000     0.0000000000     0.0000000000
   26      S       0.0022330000     0.8994280000     1.5107320000
   27      C       0.0011570000     2.4747490000     0.7276290000
   28      C      -0.0000300000     0.9082230000    -1.0646650000
   29      C      -0.0015450000     2.2970130000    -0.6782870000
   30      C       0.0016240000     0.8418370000    -2.4861500000
   31      C       0.0014940000     2.1066700000    -3.1069160000
   32      S      -0.0018410000     3.3541710000    -1.9657350000
   33      C       0.0061680000     2.3611460000    -4.5599720000
   34      O       0.0091520000     1.4276460000    -5.3502770000
   35      O       0.0094050000     3.6443370000    -5.0043750000
   36      F       0.0055390000    -0.2722880000    -3.2462900000
   37      C       0.0195540000     4.0030380000    -6.3349760000
   38      H       0.0201550000     5.1080000000    -6.3702680000
   39      H      -0.8714090000     3.6136810000    -6.8756090000
   40      H       0.9184700000     3.6130620000    -6.8618780000
   41      H       0.0012220000     3.3947710000     1.3215100000
   42      H       0.8179320000    -9.1464710000    -0.3499390000
   43      H      -0.5489390000    -9.1505700000     0.8152470000
   44      H       0.8218350000    -1.4441580000    -0.7006470000
 ----------------------------------------------------------------

   11   -2755.3267674373      7.30e-07  Convergence criterion met
 Total energy in the final basis set =    -2755.3267674373
        RIMP2         total energy =     -2760.4183956604 a.u.

                    Orbital Energies (a.u.)
 --------------------------------------------------------------

 Alpha MOs
 -- Occupied --
-92.0147 -91.9939 -91.9775 -91.9596 -26.3355 -20.6117 -20.5879 -20.5874
-20.5488 -11.4094 -11.3789 -11.3220 -11.3096 -11.3088 -11.2973 -11.2946
-11.2884 -11.2868 -11.2844 -11.2840 -11.2837 -11.2835 -11.2797 -11.2751
-11.2727 -11.2611 -11.2592 -11.2509 -11.2398  -9.0131  -8.9980  -8.9800
 -8.9622  -6.6939  -6.6933  -6.6929  -6.6792  -6.6786  -6.6772  -6.6610
 -6.6601  -6.6588  -6.6434  -6.6425  -6.6415  -1.6493  -1.4713  -1.4109
 -1.4096  -1.3664  -1.2381  -1.2096  -1.1766  -1.1431  -1.1007  -1.0509
 -1.0467  -1.0289  -1.0090  -0.9992  -0.9716  -0.9600  -0.9491  -0.9407
 -0.8942  -0.8734  -0.8629  -0.8116  -0.7922  -0.7861  -0.7787  -0.7672
 -0.7626  -0.7338  -0.7189  -0.7172  -0.6979  -0.6934  -0.6860  -0.6783
 -0.6757  -0.6716  -0.6560  -0.6490  -0.6344  -0.6301  -0.6212  -0.6154
 -0.6108  -0.6056  -0.5958  -0.5923  -0.5809  -0.5658  -0.5607  -0.5586
 -0.5498  -0.5324  -0.5281  -0.5210  -0.5138  -0.5084  -0.5042  -0.5001
 -0.4871  -0.4834  -0.4803  -0.4692  -0.4616  -0.4611  -0.4601  -0.4469
 -0.4294  -0.4001  -0.3851  -0.3713  -0.3507  -0.2930  -0.2854  -0.2193

          Ground-State Mulliken Net Atomic Charges

     Atom                 Charge (a.u.)
  ----------------------------------------
      1 C                    -0.070555
      2 C                    -0.250809
      3 S                    -0.132363
      4 C                    -0.046942
      5 H                     0.194793
      6 C                    -0.049648
      7 C                     0.224058
      8 C                     0.230186
      9 C                    -0.082206
     10 C                    -0.048114
     11 O                    -0.334886
     12 O                    -0.343991
     13 C                    -0.082671
     14 H                     0.120054
     15 H                     0.092223
     16 H                     0.092820
     17 C                    -0.087768
     18 H                     0.123497
     19 H                     0.094382
     20 H                     0.089835
     21 C                    -0.278227
     22 S                    -0.068579
     23 C                     0.110903
     24 H                     0.205272
     25 C                    -0.071314
     26 S                     0.095462
     27 C                    -0.257150
     28 C                    -0.113299
     29 C                    -0.005190
     30 C                     0.387357
     31 C                    -0.146406
     32 S                     0.033269
     33 C                     0.460757
     34 O                    -0.453639
     35 O                    -0.298285
     36 F                    -0.211009
     37 C                    -0.055143
     38 H                     0.116548
     39 H                     0.084311
     40 H                     0.084207
     41 H                     0.213522
     42 H                     0.118712
     43 H                     0.116224
     44 H                     0.199801
  ----------------------------------------
  Sum of atomic charges =     0.000000

                    Cartesian Multipole Moments
 -----------------------------------------------------------------
    Charge (ESU x 10^10)
                -0.0000
    Dipole Moment (Debye)
         X       0.3451      Y       2.3015      Z       2.6642
       Tot       3.5375
    Quadrupole Moments (Debye-Ang)
        XX    -199.1303     XY       2.6338     YY    -170.5100
        XZ       6.4311     YZ      -7.0997     ZZ    -190.8612

 Total job time:  339.76s(wall), 11201.04s(cpu)
        *  Thank you very much for using Q-Chem.  Have a nice day.  *
