 Q-Chem 5.4, Q-Chem, Inc., Pleasanton, CA (2021)
 Q-Chem 5.4.0 for Intel X86 EM64T Linux

User input:
--------------------------------------------------------------
$molecule
0 1
C	-0.092419	-8.519741	-0.255929
C	0.449364	-7.635967	0.666007
S	-0.885736	-7.651740	-1.592708
C	0.254813	-6.261894	0.332317
H	0.980526	-7.954738	1.571741
C	-0.458965	-6.079985	-0.904324
C	-0.767823	-4.798382	-1.385968
C	0.681909	-5.153542	1.118303
C	0.369139	-3.869626	0.638514
C	-0.342916	-3.688927	-0.600871
O	1.368544	-5.481075	2.248132
O	-1.458570	-4.479871	-2.520275
C	-1.405396	-5.356026	-3.639637
H	-1.820940	-4.790496	-4.495304
H	-2.023129	-6.268513	-3.490336
H	-0.361595	-5.658187	-3.873314
C	1.480048	-4.546999	3.314934
H	1.899255	-5.107564	4.171837
H	0.490123	-4.131473	3.601473
H	2.171521	-3.712085	3.068969
C	-0.537642	-2.314326	-0.930308
S	0.785807	-2.295487	1.334769
C	0.000000	-1.435180	0.000000
H	-1.066134	-1.993211	-1.836691
C	0.000000	0.000000	0.000000
S	0.080615	0.895811	1.510732
C	0.216842	2.465231	0.727629
C	0.079127	0.904769	-1.064665
C	0.198659	2.288406	-0.678287
C	0.074988	0.838492	-2.486150
C	0.185097	2.098524	-3.106916
S	0.290501	3.341568	-1.965735
C	0.211932	2.351623	-4.559972
O	0.133545	1.421416	-5.350277
O	0.326994	3.629649	-5.004375
F	-0.018214	-0.271734	-3.246290
C	0.368367	3.986101	-6.334976
H	0.465270	5.086806	-6.370268
H	-0.553140	3.675878	-6.875609
H	1.229874	3.519263	-6.861878
H	0.297091	3.381746	1.321510
H	-0.866272	-9.146471	0.202590
H	0.682165	-9.150570	-0.707539
H	-0.931016	-1.444158	0.547293
$end

$rem
JOBTYPE		SP
EXCHANGE	HF
CORRELATION	pRIMP2
BASIS		cc-pvtz
METHOD		rimp2
AUX_BASIS	rimp2-cc-pvtz
SOLVENT_METHOD	PCM
PURECART	11111
SYMMETRY	false
MEM_TOTAL	110000
SCF_CONVERGENCE = 6
THRESH=10
GUI = 2
$end

$solvent
dielectric 4.90
$end
--------------------------------------------------------------

             Standard Nuclear Orientation (Angstroms)
    I     Atom           X                Y                Z
 ----------------------------------------------------------------
    1      C      -0.0924190000    -8.5197410000    -0.2559290000
    2      C       0.4493640000    -7.6359670000     0.6660070000
    3      S      -0.8857360000    -7.6517400000    -1.5927080000
    4      C       0.2548130000    -6.2618940000     0.3323170000
    5      H       0.9805260000    -7.9547380000     1.5717410000
    6      C      -0.4589650000    -6.0799850000    -0.9043240000
    7      C      -0.7678230000    -4.7983820000    -1.3859680000
    8      C       0.6819090000    -5.1535420000     1.1183030000
    9      C       0.3691390000    -3.8696260000     0.6385140000
   10      C      -0.3429160000    -3.6889270000    -0.6008710000
   11      O       1.3685440000    -5.4810750000     2.2481320000
   12      O      -1.4585700000    -4.4798710000    -2.5202750000
   13      C      -1.4053960000    -5.3560260000    -3.6396370000
   14      H      -1.8209400000    -4.7904960000    -4.4953040000
   15      H      -2.0231290000    -6.2685130000    -3.4903360000
   16      H      -0.3615950000    -5.6581870000    -3.8733140000
   17      C       1.4800480000    -4.5469990000     3.3149340000
   18      H       1.8992550000    -5.1075640000     4.1718370000
   19      H       0.4901230000    -4.1314730000     3.6014730000
   20      H       2.1715210000    -3.7120850000     3.0689690000
   21      C      -0.5376420000    -2.3143260000    -0.9303080000
   22      S       0.7858070000    -2.2954870000     1.3347690000
   23      C       0.0000000000    -1.4351800000     0.0000000000
   24      H      -1.0661340000    -1.9932110000    -1.8366910000
   25      C       0.0000000000     0.0000000000     0.0000000000
   26      S       0.0806150000     0.8958110000     1.5107320000
   27      C       0.2168420000     2.4652310000     0.7276290000
   28      C       0.0791270000     0.9047690000    -1.0646650000
   29      C       0.1986590000     2.2884060000    -0.6782870000
   30      C       0.0749880000     0.8384920000    -2.4861500000
   31      C       0.1850970000     2.0985240000    -3.1069160000
   32      S       0.2905010000     3.3415680000    -1.9657350000
   33      C       0.2119320000     2.3516230000    -4.5599720000
   34      O       0.1335450000     1.4214160000    -5.3502770000
   35      O       0.3269940000     3.6296490000    -5.0043750000
   36      F      -0.0182140000    -0.2717340000    -3.2462900000
   37      C       0.3683670000     3.9861010000    -6.3349760000
   38      H       0.4652700000     5.0868060000    -6.3702680000
   39      H      -0.5531400000     3.6758780000    -6.8756090000
   40      H       1.2298740000     3.5192630000    -6.8618780000
   41      H       0.2970910000     3.3817460000     1.3215100000
   42      H      -0.8662720000    -9.1464710000     0.2025900000
   43      H       0.6821650000    -9.1505700000    -0.7075390000
   44      H      -0.9310160000    -1.4441580000     0.5472930000
 ----------------------------------------------------------------

   11   -2755.3266593573      7.62e-07  Convergence criterion met
 Total energy in the final basis set =    -2755.3266593573
        RIMP2         total energy =     -2760.4163520253 a.u.

                    Orbital Energies (a.u.)
 --------------------------------------------------------------

 Alpha MOs
 -- Occupied --
-92.0152 -91.9927 -91.9829 -91.9592 -26.3377 -20.6115 -20.5892 -20.5871
-20.5486 -11.4092 -11.3793 -11.3230 -11.3109 -11.3097 -11.2967 -11.2941
-11.2882 -11.2869 -11.2861 -11.2858 -11.2852 -11.2822 -11.2778 -11.2745
-11.2724 -11.2605 -11.2596 -11.2509 -11.2401  -9.0139  -8.9969  -8.9851
 -8.9618  -6.6947  -6.6941  -6.6936  -6.6781  -6.6775  -6.6761  -6.6662
 -6.6653  -6.6640  -6.6431  -6.6421  -6.6411  -1.6510  -1.4711  -1.4124
 -1.4090  -1.3662  -1.2380  -1.2109  -1.1771  -1.1437  -1.1007  -1.0499
 -1.0479  -1.0295  -1.0101  -0.9999  -0.9718  -0.9601  -0.9499  -0.9407
 -0.8955  -0.8719  -0.8643  -0.8088  -0.7969  -0.7872  -0.7769  -0.7704
 -0.7652  -0.7331  -0.7226  -0.7184  -0.6985  -0.6933  -0.6838  -0.6781
 -0.6719  -0.6682  -0.6577  -0.6492  -0.6387  -0.6307  -0.6212  -0.6154
 -0.6099  -0.6056  -0.5951  -0.5921  -0.5790  -0.5700  -0.5599  -0.5506
 -0.5506  -0.5364  -0.5328  -0.5226  -0.5149  -0.5089  -0.5058  -0.5010
 -0.4854  -0.4840  -0.4804  -0.4720  -0.4624  -0.4609  -0.4591  -0.4471
 -0.4312  -0.3996  -0.3876  -0.3719  -0.3515  -0.2940  -0.2849  -0.2191

          Ground-State Mulliken Net Atomic Charges

     Atom                 Charge (a.u.)
  ----------------------------------------
      1 C                    -0.070667
      2 C                    -0.251533
      3 S                    -0.132364
      4 C                    -0.047101
      5 H                     0.194441
      6 C                    -0.051907
      7 C                     0.226312
      8 C                     0.229935
      9 C                    -0.076589
     10 C                    -0.054734
     11 O                    -0.333614
     12 O                    -0.342983
     13 C                    -0.082598
     14 H                     0.121365
     15 H                     0.091572
     16 H                     0.093086
     17 C                    -0.088015
     18 H                     0.124454
     19 H                     0.093009
     20 H                     0.090190
     21 C                    -0.268577
     22 S                    -0.081691
     23 C                     0.120228
     24 H                     0.204359
     25 C                    -0.120043
     26 S                     0.076996
     27 C                    -0.252227
     28 C                    -0.045703
     29 C                    -0.019167
     30 C                     0.397230
     31 C                    -0.149741
     32 S                     0.029238
     33 C                     0.460996
     34 O                    -0.454022
     35 O                    -0.298242
     36 F                    -0.215055
     37 C                    -0.055221
     38 H                     0.116501
     39 H                     0.084219
     40 H                     0.084330
     41 H                     0.215201
     42 H                     0.118475
     43 H                     0.116362
     44 H                     0.203297
  ----------------------------------------
  Sum of atomic charges =     0.000000

                    Cartesian Multipole Moments
 -----------------------------------------------------------------
    Charge (ESU x 10^10)
                -0.0000
    Dipole Moment (Debye)
         X      -0.1980      Y       2.1288      Z       3.9063
       Tot       4.4531
    Quadrupole Moments (Debye-Ang)
        XX    -200.6895     XY      -0.8513     YY    -170.3664
        XZ       2.7487     YZ     -13.8287     ZZ    -189.2885

 Total job time:  327.64s(wall), 10626.77s(cpu)
        *  Thank you very much for using Q-Chem.  Have a nice day.  *
