 Q-Chem 5.4, Q-Chem, Inc., Pleasanton, CA (2021)
 Q-Chem 5.4.0 for Intel X86 EM64T Linux

User input:
--------------------------------------------------------------
$molecule
0 1
C	-0.046574	-8.519741	-0.268090
C	0.326886	-7.635967	0.733920
S	-0.595708	-7.651740	-1.722318
C	0.193236	-6.261894	0.371516
H	0.692700	-7.954738	1.718130
C	-0.294958	-6.079985	-0.970283
C	-0.515487	-4.798382	-1.498243
C	0.477358	-5.153542	1.219725
C	0.252655	-3.869626	0.692914
C	-0.233366	-3.688927	-0.651289
O	0.957369	-5.481075	2.451623
O	-0.998769	-4.479871	-2.735264
C	-0.752029	-5.356026	-3.828387
H	-1.012675	-4.790496	-4.743213
H	-1.386303	-6.268513	-3.788623
H	0.316492	-5.658187	-3.877260
C	0.881930	-4.546999	3.521580
H	1.145969	-5.107564	4.438260
H	-0.142712	-4.131473	3.631868
H	1.605610	-3.712085	3.399425
C	-0.367928	-2.314326	-1.009535
S	0.542088	-2.295487	1.450945
C	-0.000000	-1.435180	-0.000000
H	-0.730999	-1.993211	-1.993920
C	0.000000	0.000000	0.000000
S	0.158383	0.885376	1.510732
C	0.430876	2.436951	0.727629
C	0.157682	0.894430	-1.064665
C	0.397351	2.262384	-0.678287
C	0.147783	0.828765	-2.486150
C	0.367291	2.074406	-3.106916
S	0.580633	3.303533	-1.965735
C	0.416083	2.324204	-4.559972
O	0.256921	1.404367	-5.350277
O	0.642094	3.587338	-5.004375
F	-0.041828	-0.269113	-3.246290
C	0.714377	3.938827	-6.334976
H	0.906844	5.026898	-6.370268
H	-0.230661	3.710099	-6.875609
H	1.531918	3.398681	-6.861878
H	0.590699	3.342984	1.321510
H	-0.888291	-9.146471	0.049086
H	0.794665	-9.150570	-0.578334
H	-1.011908	-1.444158	0.377309
$end

$rem
JOBTYPE		SP
EXCHANGE	HF
CORRELATION	pRIMP2
BASIS		cc-pvtz
METHOD		rimp2
AUX_BASIS	rimp2-cc-pvtz
SOLVENT_METHOD	PCM
PURECART	11111
SYMMETRY	false
MEM_TOTAL	110000
SCF_CONVERGENCE = 6
THRESH=10
GUI = 2
$end

$solvent
dielectric 4.90
$end
--------------------------------------------------------------

             Standard Nuclear Orientation (Angstroms)
    I     Atom           X                Y                Z
 ----------------------------------------------------------------
    1      C      -0.0465740000    -8.5197410000    -0.2680900000
    2      C       0.3268860000    -7.6359670000     0.7339200000
    3      S      -0.5957080000    -7.6517400000    -1.7223180000
    4      C       0.1932360000    -6.2618940000     0.3715160000
    5      H       0.6927000000    -7.9547380000     1.7181300000
    6      C      -0.2949580000    -6.0799850000    -0.9702830000
    7      C      -0.5154870000    -4.7983820000    -1.4982430000
    8      C       0.4773580000    -5.1535420000     1.2197250000
    9      C       0.2526550000    -3.8696260000     0.6929140000
   10      C      -0.2333660000    -3.6889270000    -0.6512890000
   11      O       0.9573690000    -5.4810750000     2.4516230000
   12      O      -0.9987690000    -4.4798710000    -2.7352640000
   13      C      -0.7520290000    -5.3560260000    -3.8283870000
   14      H      -1.0126750000    -4.7904960000    -4.7432130000
   15      H      -1.3863030000    -6.2685130000    -3.7886230000
   16      H       0.3164920000    -5.6581870000    -3.8772600000
   17      C       0.8819300000    -4.5469990000     3.5215800000
   18      H       1.1459690000    -5.1075640000     4.4382600000
   19      H      -0.1427120000    -4.1314730000     3.6318680000
   20      H       1.6056100000    -3.7120850000     3.3994250000
   21      C      -0.3679280000    -2.3143260000    -1.0095350000
   22      S       0.5420880000    -2.2954870000     1.4509450000
   23      C       0.0000000000    -1.4351800000     0.0000000000
   24      H      -0.7309990000    -1.9932110000    -1.9939200000
   25      C       0.0000000000     0.0000000000     0.0000000000
   26      S       0.1583830000     0.8853760000     1.5107320000
   27      C       0.4308760000     2.4369510000     0.7276290000
   28      C       0.1576820000     0.8944300000    -1.0646650000
   29      C       0.3973510000     2.2623840000    -0.6782870000
   30      C       0.1477830000     0.8287650000    -2.4861500000
   31      C       0.3672910000     2.0744060000    -3.1069160000
   32      S       0.5806330000     3.3035330000    -1.9657350000
   33      C       0.4160830000     2.3242040000    -4.5599720000
   34      O       0.2569210000     1.4043670000    -5.3502770000
   35      O       0.6420940000     3.5873380000    -5.0043750000
   36      F      -0.0418280000    -0.2691130000    -3.2462900000
   37      C       0.7143770000     3.9388270000    -6.3349760000
   38      H       0.9068440000     5.0268980000    -6.3702680000
   39      H      -0.2306610000     3.7100990000    -6.8756090000
   40      H       1.5319180000     3.3986810000    -6.8618780000
   41      H       0.5906990000     3.3429840000     1.3215100000
   42      H      -0.8882910000    -9.1464710000     0.0490860000
   43      H       0.7946650000    -9.1505700000    -0.5783340000
   44      H      -1.0119080000    -1.4441580000     0.3773090000
 ----------------------------------------------------------------

   11   -2755.3237217320      7.29e-07  Convergence criterion met
 Total energy in the final basis set =    -2755.3237217320
        RIMP2         total energy =     -2760.4146261471 a.u.

                    Orbital Energies (a.u.)
 --------------------------------------------------------------

 Alpha MOs
 -- Occupied --
-92.0150 -91.9925 -91.9837 -91.9596 -26.3387 -20.6112 -20.5897 -20.5871
-20.5480 -11.4087 -11.3796 -11.3240 -11.3118 -11.3099 -11.2967 -11.2932
-11.2881 -11.2864 -11.2864 -11.2855 -11.2852 -11.2822 -11.2770 -11.2748
-11.2713 -11.2609 -11.2600 -11.2513 -11.2410  -9.0137  -8.9966  -8.9859
 -8.9621  -6.6945  -6.6939  -6.6934  -6.6779  -6.6772  -6.6759  -6.6670
 -6.6661  -6.6648  -6.6434  -6.6424  -6.6414  -1.6526  -1.4707  -1.4129
 -1.4090  -1.3658  -1.2380  -1.2111  -1.1775  -1.1437  -1.1009  -1.0500
 -1.0483  -1.0291  -1.0105  -1.0002  -0.9717  -0.9600  -0.9502  -0.9407
 -0.8959  -0.8723  -0.8641  -0.8100  -0.7974  -0.7876  -0.7763  -0.7703
 -0.7647  -0.7331  -0.7231  -0.7197  -0.6988  -0.6944  -0.6843  -0.6779
 -0.6719  -0.6691  -0.6579  -0.6493  -0.6396  -0.6308  -0.6216  -0.6156
 -0.6090  -0.6053  -0.5953  -0.5918  -0.5778  -0.5710  -0.5601  -0.5513
 -0.5494  -0.5366  -0.5334  -0.5226  -0.5151  -0.5094  -0.5065  -0.5012
 -0.4845  -0.4840  -0.4804  -0.4713  -0.4624  -0.4607  -0.4584  -0.4475
 -0.4328  -0.3987  -0.3882  -0.3721  -0.3512  -0.2942  -0.2843  -0.2189

          Ground-State Mulliken Net Atomic Charges

     Atom                 Charge (a.u.)
  ----------------------------------------
      1 C                    -0.070775
      2 C                    -0.249342
      3 S                    -0.131790
      4 C                    -0.048181
      5 H                     0.194763
      6 C                    -0.051408
      7 C                     0.226788
      8 C                     0.231305
      9 C                    -0.075144
     10 C                    -0.047006
     11 O                    -0.333351
     12 O                    -0.342965
     13 C                    -0.082960
     14 H                     0.121745
     15 H                     0.091884
     16 H                     0.092856
     17 C                    -0.088447
     18 H                     0.124890
     19 H                     0.093320
     20 H                     0.090179
     21 C                    -0.287616
     22 S                    -0.086869
     23 C                     0.115482
     24 H                     0.208926
     25 C                    -0.100218
     26 S                     0.072954
     27 C                    -0.253922
     28 C                    -0.046289
     29 C                    -0.022145
     30 C                     0.396710
     31 C                    -0.150432
     32 S                     0.029929
     33 C                     0.460181
     34 O                    -0.454871
     35 O                    -0.298405
     36 F                    -0.216029
     37 C                    -0.055100
     38 H                     0.116431
     39 H                     0.084092
     40 H                     0.084200
     41 H                     0.215372
     42 H                     0.118800
     43 H                     0.116682
     44 H                     0.205775
  ----------------------------------------
  Sum of atomic charges =     0.000000

                    Cartesian Multipole Moments
 -----------------------------------------------------------------
    Charge (ESU x 10^10)
                -0.0000
    Dipole Moment (Debye)
         X      -0.0491      Y       1.7921      Z       3.9006
       Tot       4.2929
    Quadrupole Moments (Debye-Ang)
        XX    -201.0914     XY       0.9754     YY    -169.5056
        XZ      -1.3168     YZ     -14.0474     ZZ    -188.7236

 Total job time:  350.52s(wall), 10667.44s(cpu)
        *  Thank you very much for using Q-Chem.  Have a nice day.  *
