 Q-Chem 5.4, Q-Chem, Inc., Pleasanton, CA (2021)
 Q-Chem 5.4.0 for Intel X86 EM64T Linux

User input:
--------------------------------------------------------------
$molecule
0 1
C	-0.268090	-8.519741	0.046574
C	0.733920	-7.635967	-0.326886
S	-1.722318	-7.651740	0.595708
C	0.371516	-6.261894	-0.193236
H	1.718130	-7.954738	-0.692700
C	-0.970283	-6.079985	0.294958
C	-1.498243	-4.798382	0.515487
C	1.219725	-5.153542	-0.477358
C	0.692914	-3.869626	-0.252655
C	-0.651289	-3.688927	0.233366
O	2.451623	-5.481075	-0.957369
O	-2.735264	-4.479871	0.998769
C	-3.828387	-5.356026	0.752029
H	-4.743213	-4.790496	1.012675
H	-3.788623	-6.268513	1.386303
H	-3.877260	-5.658187	-0.316492
C	3.521580	-4.546999	-0.881930
H	4.438260	-5.107564	-1.145969
H	3.631868	-4.131473	0.142712
H	3.399425	-3.712085	-1.605610
C	-1.009535	-2.314326	0.367928
S	1.450945	-2.295487	-0.542088
C	0.000000	-1.435180	0.000000
H	-1.993920	-1.993211	0.730999
C	0.000000	0.000000	0.000000
S	0.002233	0.899428	1.510732
C	0.001157	2.474749	0.727629
C	-0.000030	0.908223	-1.064665
C	-0.001545	2.297013	-0.678287
C	0.001624	0.841837	-2.486150
C	0.001494	2.106670	-3.106916
S	-0.001841	3.354171	-1.965735
C	0.006168	2.361146	-4.559972
O	0.009152	1.427646	-5.350277
O	0.009405	3.644337	-5.004375
F	0.005539	-0.272288	-3.246290
C	0.019554	4.003038	-6.334976
H	0.020155	5.108000	-6.370268
H	-0.871409	3.613681	-6.875609
H	0.918470	3.613062	-6.861878
H	0.001222	3.394771	1.321510
H	0.049086	-9.146471	0.888291
H	-0.578334	-9.150570	-0.794665
H	0.377309	-1.444158	1.011908
$end

$rem
JOBTYPE		SP
EXCHANGE	HF
CORRELATION	pRIMP2
BASIS		cc-pvtz
METHOD		rimp2
AUX_BASIS	rimp2-cc-pvtz
SOLVENT_METHOD	PCM
PURECART	11111
SYMMETRY	false
MEM_TOTAL	110000
SCF_CONVERGENCE = 6
THRESH=10
GUI = 2
$end

$solvent
dielectric 4.90
$end
--------------------------------------------------------------

             Standard Nuclear Orientation (Angstroms)
    I     Atom           X                Y                Z
 ----------------------------------------------------------------
    1      C      -0.2680900000    -8.5197410000     0.0465740000
    2      C       0.7339200000    -7.6359670000    -0.3268860000
    3      S      -1.7223180000    -7.6517400000     0.5957080000
    4      C       0.3715160000    -6.2618940000    -0.1932360000
    5      H       1.7181300000    -7.9547380000    -0.6927000000
    6      C      -0.9702830000    -6.0799850000     0.2949580000
    7      C      -1.4982430000    -4.7983820000     0.5154870000
    8      C       1.2197250000    -5.1535420000    -0.4773580000
    9      C       0.6929140000    -3.8696260000    -0.2526550000
   10      C      -0.6512890000    -3.6889270000     0.2333660000
   11      O       2.4516230000    -5.4810750000    -0.9573690000
   12      O      -2.7352640000    -4.4798710000     0.9987690000
   13      C      -3.8283870000    -5.3560260000     0.7520290000
   14      H      -4.7432130000    -4.7904960000     1.0126750000
   15      H      -3.7886230000    -6.2685130000     1.3863030000
   16      H      -3.8772600000    -5.6581870000    -0.3164920000
   17      C       3.5215800000    -4.5469990000    -0.8819300000
   18      H       4.4382600000    -5.1075640000    -1.1459690000
   19      H       3.6318680000    -4.1314730000     0.1427120000
   20      H       3.3994250000    -3.7120850000    -1.6056100000
   21      C      -1.0095350000    -2.3143260000     0.3679280000
   22      S       1.4509450000    -2.2954870000    -0.5420880000
   23      C       0.0000000000    -1.4351800000     0.0000000000
   24      H      -1.9939200000    -1.9932110000     0.7309990000
   25      C       0.0000000000     0.0000000000     0.0000000000
   26      S       0.0022330000     0.8994280000     1.5107320000
   27      C       0.0011570000     2.4747490000     0.7276290000
   28      C      -0.0000300000     0.9082230000    -1.0646650000
   29      C      -0.0015450000     2.2970130000    -0.6782870000
   30      C       0.0016240000     0.8418370000    -2.4861500000
   31      C       0.0014940000     2.1066700000    -3.1069160000
   32      S      -0.0018410000     3.3541710000    -1.9657350000
   33      C       0.0061680000     2.3611460000    -4.5599720000
   34      O       0.0091520000     1.4276460000    -5.3502770000
   35      O       0.0094050000     3.6443370000    -5.0043750000
   36      F       0.0055390000    -0.2722880000    -3.2462900000
   37      C       0.0195540000     4.0030380000    -6.3349760000
   38      H       0.0201550000     5.1080000000    -6.3702680000
   39      H      -0.8714090000     3.6136810000    -6.8756090000
   40      H       0.9184700000     3.6130620000    -6.8618780000
   41      H       0.0012220000     3.3947710000     1.3215100000
   42      H       0.0490860000    -9.1464710000     0.8882910000
   43      H      -0.5783340000    -9.1505700000    -0.7946650000
   44      H       0.3773090000    -1.4441580000     1.0119080000
 ----------------------------------------------------------------

   11   -2755.3265392639      7.80e-07  Convergence criterion met
 Total energy in the final basis set =    -2755.3265392639
        RIMP2         total energy =     -2760.4163127016 a.u.

                    Orbital Energies (a.u.)
 --------------------------------------------------------------

 Alpha MOs
 -- Occupied --
-92.0191 -91.9951 -91.9778 -91.9581 -26.3349 -20.6126 -20.5872 -20.5866
-20.5507 -11.4109 -11.3778 -11.3139 -11.3090 -11.3071 -11.2984 -11.2977
-11.2953 -11.2887 -11.2841 -11.2829 -11.2828 -11.2817 -11.2809 -11.2730
-11.2729 -11.2581 -11.2579 -11.2495 -11.2367  -9.0174  -8.9992  -8.9800
 -8.9607  -6.6981  -6.6976  -6.6971  -6.6805  -6.6798  -6.6785  -6.6611
 -6.6602  -6.6589  -6.6419  -6.6410  -6.6400  -1.6478  -1.4723  -1.4101
 -1.4089  -1.3676  -1.2379  -1.2092  -1.1753  -1.1440  -1.0994  -1.0501
 -1.0457  -1.0313  -1.0084  -0.9977  -0.9725  -0.9596  -0.9485  -0.9406
 -0.8932  -0.8713  -0.8649  -0.8096  -0.7925  -0.7852  -0.7770  -0.7736
 -0.7655  -0.7331  -0.7212  -0.7159  -0.6971  -0.6923  -0.6819  -0.6789
 -0.6722  -0.6646  -0.6562  -0.6485  -0.6348  -0.6289  -0.6199  -0.6148
 -0.6106  -0.6069  -0.5957  -0.5928  -0.5823  -0.5645  -0.5611  -0.5562
 -0.5505  -0.5341  -0.5278  -0.5216  -0.5127  -0.5075  -0.5034  -0.5017
 -0.4871  -0.4860  -0.4775  -0.4695  -0.4618  -0.4617  -0.4611  -0.4465
 -0.4242  -0.4023  -0.3856  -0.3702  -0.3514  -0.2924  -0.2887  -0.2205

          Ground-State Mulliken Net Atomic Charges

     Atom                 Charge (a.u.)
  ----------------------------------------
      1 C                    -0.070133
      2 C                    -0.259485
      3 S                    -0.135698
      4 C                    -0.044705
      5 H                     0.193440
      6 C                    -0.051918
      7 C                     0.226848
      8 C                     0.226840
      9 C                    -0.078440
     10 C                    -0.055100
     11 O                    -0.334930
     12 O                    -0.343631
     13 C                    -0.082574
     14 H                     0.119824
     15 H                     0.091880
     16 H                     0.093305
     17 C                    -0.086336
     18 H                     0.123126
     19 H                     0.091711
     20 H                     0.091168
     21 C                    -0.255652
     22 S                    -0.071328
     23 C                     0.081286
     24 H                     0.204589
     25 C                    -0.095088
     26 S                     0.101703
     27 C                    -0.240514
     28 C                    -0.083642
     29 C                    -0.004907
     30 C                     0.399224
     31 C                    -0.155169
     32 S                     0.037243
     33 C                     0.460565
     34 O                    -0.449125
     35 O                    -0.297725
     36 F                    -0.211682
     37 C                    -0.055089
     38 H                     0.116619
     39 H                     0.084756
     40 H                     0.084659
     41 H                     0.216438
     42 H                     0.117149
     43 H                     0.115178
     44 H                     0.185325
  ----------------------------------------
  Sum of atomic charges =     0.000000

                    Cartesian Multipole Moments
 -----------------------------------------------------------------
    Charge (ESU x 10^10)
                -0.0000
    Dipole Moment (Debye)
         X       0.3335      Y       3.6520      Z       3.6798
       Tot       5.1951
    Quadrupole Moments (Debye-Ang)
        XX    -183.0156     XY      -3.5126     YY    -174.4378
        XZ      -0.4652     YZ      -9.3449     ZZ    -206.0732

 Total job time:  329.99s(wall), 10696.38s(cpu)
        *  Thank you very much for using Q-Chem.  Have a nice day.  *
