 Q-Chem 5.4, Q-Chem, Inc., Pleasanton, CA (2021)
 Q-Chem 5.4.0 for Intel X86 EM64T Linux

User input:
--------------------------------------------------------------
$molecule
0 1
C	0.235306	-8.519741	0.136647
C	-0.772334	-7.635967	-0.221346
S	1.702286	-7.651740	0.650746
C	-0.408807	-6.261894	-0.090779
H	-1.761423	-7.954738	-0.573754
C	0.932876	-6.079985	0.397735
C	1.479069	-4.798382	0.568166
C	-1.241204	-5.153542	-0.418347
C	-0.693206	-3.869626	-0.251852
C	0.648921	-3.688927	0.239872
O	-2.493437	-5.481075	-0.842486
O	2.737331	-4.479871	0.993092
C	3.416110	-5.356026	1.884752
H	4.284447	-4.790496	2.273124
H	3.793352	-6.268513	1.373310
H	2.766716	-5.658187	2.734702
C	-3.264581	-4.546999	-1.588030
H	-4.136519	-5.107564	-1.974995
H	-2.690439	-4.131473	-2.443843
H	-3.636177	-3.712085	-0.955140
C	1.009848	-2.314326	0.367068
S	-1.459936	-2.295487	-0.517386
C	-0.000000	-1.435180	-0.000000
H	1.997308	-1.993211	0.721689
C	0.000000	0.000000	0.000000
S	0.382139	0.814215	1.510732
C	1.046923	2.242395	0.727629
C	0.383804	0.823142	-1.064665
C	0.969360	2.082453	-0.678287
C	0.357247	0.762277	-2.486150
C	0.891671	1.908660	-3.106916
S	1.415865	3.040689	-1.965735
C	1.003453	2.137318	-4.559972
O	0.611644	1.290019	-5.350277
O	1.548687	3.298916	-5.004375
F	-0.110054	-0.249117	-3.246290
C	1.709479	3.619721	-6.334976
H	2.177001	4.620902	-6.370268
H	0.737443	3.643380	-6.875609
H	2.359363	2.886384	-6.861878
H	1.435800	3.076190	1.321510
H	0.533380	-9.146471	-0.712022
H	-0.067771	-9.150570	0.980494
H	0.361406	-1.444158	-1.017696
$end

$rem
JOBTYPE		SP
EXCHANGE	HF
CORRELATION	pRIMP2
BASIS		cc-pvtz
METHOD		rimp2
AUX_BASIS	rimp2-cc-pvtz
SOLVENT_METHOD	PCM
PURECART	11111
SYMMETRY	false
MEM_TOTAL	110000
SCF_CONVERGENCE = 6
THRESH=10
GUI = 2
$end

$solvent
dielectric 4.90
$end
--------------------------------------------------------------

             Standard Nuclear Orientation (Angstroms)
    I     Atom           X                Y                Z
 ----------------------------------------------------------------
    1      C       0.2353060000    -8.5197410000     0.1366470000
    2      C      -0.7723340000    -7.6359670000    -0.2213460000
    3      S       1.7022860000    -7.6517400000     0.6507460000
    4      C      -0.4088070000    -6.2618940000    -0.0907790000
    5      H      -1.7614230000    -7.9547380000    -0.5737540000
    6      C       0.9328760000    -6.0799850000     0.3977350000
    7      C       1.4790690000    -4.7983820000     0.5681660000
    8      C      -1.2412040000    -5.1535420000    -0.4183470000
    9      C      -0.6932060000    -3.8696260000    -0.2518520000
   10      C       0.6489210000    -3.6889270000     0.2398720000
   11      O      -2.4934370000    -5.4810750000    -0.8424860000
   12      O       2.7373310000    -4.4798710000     0.9930920000
   13      C       3.4161100000    -5.3560260000     1.8847520000
   14      H       4.2844470000    -4.7904960000     2.2731240000
   15      H       3.7933520000    -6.2685130000     1.3733100000
   16      H       2.7667160000    -5.6581870000     2.7347020000
   17      C      -3.2645810000    -4.5469990000    -1.5880300000
   18      H      -4.1365190000    -5.1075640000    -1.9749950000
   19      H      -2.6904390000    -4.1314730000    -2.4438430000
   20      H      -3.6361770000    -3.7120850000    -0.9551400000
   21      C       1.0098480000    -2.3143260000     0.3670680000
   22      S      -1.4599360000    -2.2954870000    -0.5173860000
   23      C       0.0000000000    -1.4351800000     0.0000000000
   24      H       1.9973080000    -1.9932110000     0.7216890000
   25      C       0.0000000000     0.0000000000     0.0000000000
   26      S       0.3821390000     0.8142150000     1.5107320000
   27      C       1.0469230000     2.2423950000     0.7276290000
   28      C       0.3838040000     0.8231420000    -1.0646650000
   29      C       0.9693600000     2.0824530000    -0.6782870000
   30      C       0.3572470000     0.7622770000    -2.4861500000
   31      C       0.8916710000     1.9086600000    -3.1069160000
   32      S       1.4158650000     3.0406890000    -1.9657350000
   33      C       1.0034530000     2.1373180000    -4.5599720000
   34      O       0.6116440000     1.2900190000    -5.3502770000
   35      O       1.5486870000     3.2989160000    -5.0043750000
   36      F      -0.1100540000    -0.2491170000    -3.2462900000
   37      C       1.7094790000     3.6197210000    -6.3349760000
   38      H       2.1770010000     4.6209020000    -6.3702680000
   39      H       0.7374430000     3.6433800000    -6.8756090000
   40      H       2.3593630000     2.8863840000    -6.8618780000
   41      H       1.4358000000     3.0761900000     1.3215100000
   42      H       0.5333800000    -9.1464710000    -0.7120220000
   43      H      -0.0677710000    -9.1505700000     0.9804940000
   44      H       0.3614060000    -1.4441580000    -1.0176960000
 ----------------------------------------------------------------

   11   -2755.3163235070      7.05e-07  Convergence criterion met
 Total energy in the final basis set =    -2755.3163235070
        RIMP2         total energy =     -2760.4119140835 a.u.

                    Orbital Energies (a.u.)
 --------------------------------------------------------------

 Alpha MOs
 -- Occupied --
-92.0146 -91.9984 -91.9740 -91.9580 -26.3383 -20.6139 -20.5871 -20.5857
-20.5529 -11.4129 -11.3791 -11.3087 -11.3086 -11.3058 -11.3025 -11.2998
-11.2982 -11.2895 -11.2864 -11.2831 -11.2829 -11.2817 -11.2794 -11.2728
-11.2723 -11.2577 -11.2576 -11.2493 -11.2362  -9.0132  -9.0023  -8.9764
 -8.9606  -6.6939  -6.6933  -6.6929  -6.6836  -6.6829  -6.6816  -6.6575
 -6.6566  -6.6553  -6.6418  -6.6409  -6.6399  -1.6514  -1.4738  -1.4096
 -1.4084  -1.3694  -1.2408  -1.2077  -1.1749  -1.1442  -1.0994  -1.0528
 -1.0451  -1.0305  -1.0079  -0.9969  -0.9735  -0.9591  -0.9483  -0.9410
 -0.8923  -0.8750  -0.8616  -0.8106  -0.7937  -0.7848  -0.7811  -0.7689
 -0.7620  -0.7332  -0.7199  -0.7192  -0.6976  -0.6921  -0.6878  -0.6802
 -0.6762  -0.6741  -0.6548  -0.6480  -0.6304  -0.6288  -0.6197  -0.6147
 -0.6104  -0.6083  -0.5975  -0.5944  -0.5814  -0.5648  -0.5573  -0.5543
 -0.5526  -0.5313  -0.5278  -0.5213  -0.5125  -0.5072  -0.5038  -0.5003
 -0.4885  -0.4860  -0.4764  -0.4677  -0.4636  -0.4627  -0.4594  -0.4453
 -0.4245  -0.4014  -0.3844  -0.3695  -0.3501  -0.2943  -0.2880  -0.2195

          Ground-State Mulliken Net Atomic Charges

     Atom                 Charge (a.u.)
  ----------------------------------------
      1 C                    -0.070174
      2 C                    -0.261027
      3 S                    -0.135661
      4 C                    -0.044935
      5 H                     0.193337
      6 C                    -0.051838
      7 C                     0.222512
      8 C                     0.228673
      9 C                    -0.080819
     10 C                    -0.044719
     11 O                    -0.335839
     12 O                    -0.343772
     13 C                    -0.082416
     14 H                     0.119699
     15 H                     0.092016
     16 H                     0.092664
     17 C                    -0.086373
     18 H                     0.122440
     19 H                     0.093316
     20 H                     0.089665
     21 C                    -0.263389
     22 S                    -0.073766
     23 C                     0.042238
     24 H                     0.209414
     25 C                    -0.064381
     26 S                     0.101495
     27 C                    -0.224717
     28 C                    -0.086862
     29 C                    -0.004304
     30 C                     0.353251
     31 C                    -0.128231
     32 S                     0.049328
     33 C                     0.457802
     34 O                    -0.446738
     35 O                    -0.297413
     36 F                    -0.212340
     37 C                    -0.054885
     38 H                     0.117047
     39 H                     0.085005
     40 H                     0.084952
     41 H                     0.215594
     42 H                     0.117344
     43 H                     0.114727
     44 H                     0.192080
  ----------------------------------------
  Sum of atomic charges =     0.000000

                    Cartesian Multipole Moments
 -----------------------------------------------------------------
    Charge (ESU x 10^10)
                -0.0000
    Dipole Moment (Debye)
         X       1.8192      Y       3.7823      Z       2.4460
       Tot       4.8578
    Quadrupole Moments (Debye-Ang)
        XX    -187.4797     XY       9.8007     YY    -177.3801
        XZ       4.0667     YZ      -9.2069     ZZ    -197.9582

 Total job time:  366.75s(wall), 10361.76s(cpu)
        *  Thank you very much for using Q-Chem.  Have a nice day.  *
