 Q-Chem 5.4, Q-Chem, Inc., Pleasanton, CA (2021)
 Q-Chem 5.4.0 for Intel X86 EM64T Linux

User input:
--------------------------------------------------------------
$molecule
0 1
C	0.267851	-8.519741	0.047927
C	-0.801461	-7.635967	0.056157
S	1.822194	-7.651740	0.029285
C	-0.415201	-6.261894	0.054516
H	-1.851431	-7.954738	0.063290
C	1.012650	-6.079985	0.054687
C	1.584194	-4.798382	0.028030
C	-1.309433	-5.153542	0.031399
C	-0.737539	-3.869626	0.000427
C	0.691828	-3.688927	0.003462
O	-2.631211	-5.481075	0.061128
O	2.911907	-4.479871	-0.003021
C	3.854716	-5.356026	0.602710
H	4.803517	-4.790496	0.670671
H	4.034285	-6.268513	-0.006913
H	3.535185	-5.658187	1.623507
C	-3.610841	-4.546999	-0.375708
H	-4.562544	-5.107564	-0.441115
H	-3.364029	-4.131473	-1.376277
H	-3.743566	-3.712085	0.346107
C	1.074491	-2.314326	-0.000458
S	-1.548848	-2.295487	0.013144
C	-0.000000	-1.435180	-0.000000
H	2.123688	-1.993211	-0.004953
C	0.000000	0.000000	0.000000
S	0.158383	0.885376	1.510732
C	0.430876	2.436951	0.727629
C	0.157682	0.894430	-1.064665
C	0.397351	2.262384	-0.678287
C	0.147783	0.828765	-2.486150
C	0.367291	2.074406	-3.106916
S	0.580633	3.303533	-1.965735
C	0.416083	2.324204	-4.559972
O	0.256921	1.404367	-5.350277
O	0.642094	3.587338	-5.004375
F	-0.041828	-0.269113	-3.246290
C	0.714377	3.938827	-6.334976
H	0.906844	5.026898	-6.370268
H	-0.230661	3.710099	-6.875609
H	1.531918	3.398681	-6.861878
H	0.590699	3.342984	1.321510
H	0.257688	-9.146471	-0.851509
H	0.271664	-9.150570	0.944542
H	-0.008462	-1.444158	-1.079930
$end

$rem
JOBTYPE		SP
EXCHANGE	HF
CORRELATION	pRIMP2
BASIS		cc-pvtz
METHOD		rimp2
AUX_BASIS	rimp2-cc-pvtz
SOLVENT_METHOD	PCM
PURECART	11111
SYMMETRY	false
MEM_TOTAL	110000
SCF_CONVERGENCE = 6
THRESH=10
GUI = 2
$end

$solvent
dielectric 4.90
$end
--------------------------------------------------------------

             Standard Nuclear Orientation (Angstroms)
    I     Atom           X                Y                Z
 ----------------------------------------------------------------
    1      C       0.2678510000    -8.5197410000     0.0479270000
    2      C      -0.8014610000    -7.6359670000     0.0561570000
    3      S       1.8221940000    -7.6517400000     0.0292850000
    4      C      -0.4152010000    -6.2618940000     0.0545160000
    5      H      -1.8514310000    -7.9547380000     0.0632900000
    6      C       1.0126500000    -6.0799850000     0.0546870000
    7      C       1.5841940000    -4.7983820000     0.0280300000
    8      C      -1.3094330000    -5.1535420000     0.0313990000
    9      C      -0.7375390000    -3.8696260000     0.0004270000
   10      C       0.6918280000    -3.6889270000     0.0034620000
   11      O      -2.6312110000    -5.4810750000     0.0611280000
   12      O       2.9119070000    -4.4798710000    -0.0030210000
   13      C       3.8547160000    -5.3560260000     0.6027100000
   14      H       4.8035170000    -4.7904960000     0.6706710000
   15      H       4.0342850000    -6.2685130000    -0.0069130000
   16      H       3.5351850000    -5.6581870000     1.6235070000
   17      C      -3.6108410000    -4.5469990000    -0.3757080000
   18      H      -4.5625440000    -5.1075640000    -0.4411150000
   19      H      -3.3640290000    -4.1314730000    -1.3762770000
   20      H      -3.7435660000    -3.7120850000     0.3461070000
   21      C       1.0744910000    -2.3143260000    -0.0004580000
   22      S      -1.5488480000    -2.2954870000     0.0131440000
   23      C       0.0000000000    -1.4351800000     0.0000000000
   24      H       2.1236880000    -1.9932110000    -0.0049530000
   25      C       0.0000000000     0.0000000000     0.0000000000
   26      S       0.1583830000     0.8853760000     1.5107320000
   27      C       0.4308760000     2.4369510000     0.7276290000
   28      C       0.1576820000     0.8944300000    -1.0646650000
   29      C       0.3973510000     2.2623840000    -0.6782870000
   30      C       0.1477830000     0.8287650000    -2.4861500000
   31      C       0.3672910000     2.0744060000    -3.1069160000
   32      S       0.5806330000     3.3035330000    -1.9657350000
   33      C       0.4160830000     2.3242040000    -4.5599720000
   34      O       0.2569210000     1.4043670000    -5.3502770000
   35      O       0.6420940000     3.5873380000    -5.0043750000
   36      F      -0.0418280000    -0.2691130000    -3.2462900000
   37      C       0.7143770000     3.9388270000    -6.3349760000
   38      H       0.9068440000     5.0268980000    -6.3702680000
   39      H      -0.2306610000     3.7100990000    -6.8756090000
   40      H       1.5319180000     3.3986810000    -6.8618780000
   41      H       0.5906990000     3.3429840000     1.3215100000
   42      H       0.2576880000    -9.1464710000    -0.8515090000
   43      H       0.2716640000    -9.1505700000     0.9445420000
   44      H      -0.0084620000    -1.4441580000    -1.0799300000
 ----------------------------------------------------------------

   11   -2755.3276076216      6.89e-07  Convergence criterion met
 Total energy in the final basis set =    -2755.3276076216
        RIMP2         total energy =     -2760.4191997642 a.u.

                    Orbital Energies (a.u.)
 --------------------------------------------------------------

 Alpha MOs
 -- Occupied --
-92.0129 -91.9971 -91.9765 -91.9580 -26.3391 -20.6137 -20.5870 -20.5864
-20.5525 -11.4126 -11.3797 -11.3118 -11.3088 -11.3067 -11.3015 -11.2982
-11.2971 -11.2894 -11.2871 -11.2839 -11.2827 -11.2824 -11.2800 -11.2728
-11.2724 -11.2579 -11.2578 -11.2494 -11.2367  -9.0115  -9.0011  -8.9787
 -8.9606  -6.6922  -6.6916  -6.6913  -6.6824  -6.6817  -6.6804  -6.6599
 -6.6590  -6.6577  -6.6419  -6.6409  -6.6399  -1.6523  -1.4735  -1.4100
 -1.4087  -1.3691  -1.2394  -1.2081  -1.1748  -1.1435  -1.0999  -1.0523
 -1.0455  -1.0298  -1.0087  -0.9973  -0.9730  -0.9594  -0.9485  -0.9410
 -0.8929  -0.8746  -0.8627  -0.8096  -0.7941  -0.7848  -0.7813  -0.7704
 -0.7625  -0.7337  -0.7202  -0.7196  -0.6977  -0.6922  -0.6876  -0.6800
 -0.6762  -0.6740  -0.6551  -0.6483  -0.6317  -0.6282  -0.6198  -0.6147
 -0.6108  -0.6080  -0.5968  -0.5933  -0.5837  -0.5654  -0.5576  -0.5540
 -0.5495  -0.5328  -0.5286  -0.5222  -0.5127  -0.5073  -0.5031  -0.5011
 -0.4876  -0.4856  -0.4768  -0.4692  -0.4632  -0.4626  -0.4602  -0.4458
 -0.4217  -0.4047  -0.3851  -0.3698  -0.3500  -0.2930  -0.2891  -0.2208

          Ground-State Mulliken Net Atomic Charges

     Atom                 Charge (a.u.)
  ----------------------------------------
      1 C                    -0.070163
      2 C                    -0.259452
      3 S                    -0.135438
      4 C                    -0.044774
      5 H                     0.193507
      6 C                    -0.052356
      7 C                     0.225363
      8 C                     0.229761
      9 C                    -0.085233
     10 C                    -0.058843
     11 O                    -0.335273
     12 O                    -0.343280
     13 C                    -0.082411
     14 H                     0.119897
     15 H                     0.091974
     16 H                     0.092513
     17 C                    -0.086441
     18 H                     0.122728
     19 H                     0.093058
     20 H                     0.089914
     21 C                    -0.234451
     22 S                    -0.069740
     23 C                     0.050749
     24 H                     0.205908
     25 C                    -0.088430
     26 S                     0.098783
     27 C                    -0.228657
     28 C                    -0.085784
     29 C                    -0.007229
     30 C                     0.375659
     31 C                    -0.128686
     32 S                     0.042718
     33 C                     0.459185
     34 O                    -0.447695
     35 O                    -0.297269
     36 F                    -0.214602
     37 C                    -0.055077
     38 H                     0.117019
     39 H                     0.084965
     40 H                     0.084889
     41 H                     0.215353
     42 H                     0.117407
     43 H                     0.114858
     44 H                     0.185074
  ----------------------------------------
  Sum of atomic charges =     0.000000

                    Cartesian Multipole Moments
 -----------------------------------------------------------------
    Charge (ESU x 10^10)
                -0.0000
    Dipole Moment (Debye)
         X       0.5577      Y       3.7983      Z       2.4531
       Tot       4.5558
    Quadrupole Moments (Debye-Ang)
        XX    -184.5008     XY       6.5883     YY    -174.4375
        XZ       3.6639     YZ     -11.2385     ZZ    -203.7182

 Total job time:  334.70s(wall), 10640.49s(cpu)
        *  Thank you very much for using Q-Chem.  Have a nice day.  *
