 Q-Chem 5.4, Q-Chem, Inc., Pleasanton, CA (2021)
 Q-Chem 5.4.0 for Intel X86 EM64T Linux

User input:
--------------------------------------------------------------
$molecule
0 1
C	0.255929	-8.519741	-0.092419
C	-0.666007	-7.635967	0.449364
S	1.592708	-7.651740	-0.885736
C	-0.332317	-6.261894	0.254813
H	-1.571741	-7.954738	0.980526
C	0.904324	-6.079985	-0.458965
C	1.385968	-4.798382	-0.767823
C	-1.118303	-5.153542	0.681909
C	-0.638514	-3.869626	0.369139
C	0.600871	-3.688927	-0.342916
O	-2.248132	-5.481075	1.368544
O	2.520275	-4.479871	-1.458570
C	3.639637	-5.356026	-1.405396
H	4.495304	-4.790496	-1.820940
H	3.490336	-6.268513	-2.023129
H	3.873314	-5.658187	-0.361595
C	-3.314934	-4.546999	1.480048
H	-4.171837	-5.107564	1.899255
H	-3.601473	-4.131473	0.490123
H	-3.068969	-3.712085	2.171521
C	0.930308	-2.314326	-0.537642
S	-1.334769	-2.295487	0.785807
C	-0.000000	-1.435180	-0.000000
H	1.836691	-1.993211	-1.066134
C	0.000000	0.000000	0.000000
S	0.158383	0.885376	1.510732
C	0.430876	2.436951	0.727629
C	0.157682	0.894430	-1.064665
C	0.397351	2.262384	-0.678287
C	0.147783	0.828765	-2.486150
C	0.367291	2.074406	-3.106916
S	0.580633	3.303533	-1.965735
C	0.416083	2.324204	-4.559972
O	0.256921	1.404367	-5.350277
O	0.642094	3.587338	-5.004375
F	-0.041828	-0.269113	-3.246290
C	0.714377	3.938827	-6.334976
H	0.906844	5.026898	-6.370268
H	-0.230661	3.710099	-6.875609
H	1.531918	3.398681	-6.861878
H	0.590699	3.342984	1.321510
H	-0.202590	-9.146471	-0.866272
H	0.707539	-9.150570	0.682165
H	-0.547293	-1.444158	-0.931016
$end

$rem
JOBTYPE		SP
EXCHANGE	HF
CORRELATION	pRIMP2
BASIS		cc-pvtz
METHOD		rimp2
AUX_BASIS	rimp2-cc-pvtz
SOLVENT_METHOD	PCM
PURECART	11111
SYMMETRY	false
MEM_TOTAL	110000
SCF_CONVERGENCE = 6
THRESH=10
GUI = 2
$end

$solvent
dielectric 4.90
$end
--------------------------------------------------------------

             Standard Nuclear Orientation (Angstroms)
    I     Atom           X                Y                Z
 ----------------------------------------------------------------
    1      C       0.2559290000    -8.5197410000    -0.0924190000
    2      C      -0.6660070000    -7.6359670000     0.4493640000
    3      S       1.5927080000    -7.6517400000    -0.8857360000
    4      C      -0.3323170000    -6.2618940000     0.2548130000
    5      H      -1.5717410000    -7.9547380000     0.9805260000
    6      C       0.9043240000    -6.0799850000    -0.4589650000
    7      C       1.3859680000    -4.7983820000    -0.7678230000
    8      C      -1.1183030000    -5.1535420000     0.6819090000
    9      C      -0.6385140000    -3.8696260000     0.3691390000
   10      C       0.6008710000    -3.6889270000    -0.3429160000
   11      O      -2.2481320000    -5.4810750000     1.3685440000
   12      O       2.5202750000    -4.4798710000    -1.4585700000
   13      C       3.6396370000    -5.3560260000    -1.4053960000
   14      H       4.4953040000    -4.7904960000    -1.8209400000
   15      H       3.4903360000    -6.2685130000    -2.0231290000
   16      H       3.8733140000    -5.6581870000    -0.3615950000
   17      C      -3.3149340000    -4.5469990000     1.4800480000
   18      H      -4.1718370000    -5.1075640000     1.8992550000
   19      H      -3.6014730000    -4.1314730000     0.4901230000
   20      H      -3.0689690000    -3.7120850000     2.1715210000
   21      C       0.9303080000    -2.3143260000    -0.5376420000
   22      S      -1.3347690000    -2.2954870000     0.7858070000
   23      C       0.0000000000    -1.4351800000     0.0000000000
   24      H       1.8366910000    -1.9932110000    -1.0661340000
   25      C       0.0000000000     0.0000000000     0.0000000000
   26      S       0.1583830000     0.8853760000     1.5107320000
   27      C       0.4308760000     2.4369510000     0.7276290000
   28      C       0.1576820000     0.8944300000    -1.0646650000
   29      C       0.3973510000     2.2623840000    -0.6782870000
   30      C       0.1477830000     0.8287650000    -2.4861500000
   31      C       0.3672910000     2.0744060000    -3.1069160000
   32      S       0.5806330000     3.3035330000    -1.9657350000
   33      C       0.4160830000     2.3242040000    -4.5599720000
   34      O       0.2569210000     1.4043670000    -5.3502770000
   35      O       0.6420940000     3.5873380000    -5.0043750000
   36      F      -0.0418280000    -0.2691130000    -3.2462900000
   37      C       0.7143770000     3.9388270000    -6.3349760000
   38      H       0.9068440000     5.0268980000    -6.3702680000
   39      H      -0.2306610000     3.7100990000    -6.8756090000
   40      H       1.5319180000     3.3986810000    -6.8618780000
   41      H       0.5906990000     3.3429840000     1.3215100000
   42      H      -0.2025900000    -9.1464710000    -0.8662720000
   43      H       0.7075390000    -9.1505700000     0.6821650000
   44      H      -0.5472930000    -1.4441580000    -0.9310160000
 ----------------------------------------------------------------

   11   -2755.3273635715      7.28e-07  Convergence criterion met
 Total energy in the final basis set =    -2755.3273635715
        RIMP2         total energy =     -2760.4190113040 a.u.

                    Orbital Energies (a.u.)
 --------------------------------------------------------------

 Alpha MOs
 -- Occupied --
-92.0136 -91.9962 -91.9794 -91.9583 -26.3387 -20.6130 -20.5875 -20.5871
-20.5513 -11.4115 -11.3797 -11.3158 -11.3092 -11.3082 -11.2992 -11.2979
-11.2938 -11.2891 -11.2848 -11.2847 -11.2835 -11.2826 -11.2824 -11.2733
-11.2732 -11.2587 -11.2585 -11.2498 -11.2376  -9.0122  -9.0002  -8.9815
 -8.9609  -6.6929  -6.6923  -6.6919  -6.6815  -6.6808  -6.6795  -6.6627
 -6.6618  -6.6605  -6.6422  -6.6412  -6.6402  -1.6518  -1.4728  -1.4108
 -1.4089  -1.3682  -1.2391  -1.2093  -1.1755  -1.1436  -1.1004  -1.0518
 -1.0465  -1.0294  -1.0094  -0.9984  -0.9725  -0.9599  -0.9490  -0.9411
 -0.8940  -0.8744  -0.8628  -0.8085  -0.7945  -0.7858  -0.7794  -0.7722
 -0.7624  -0.7340  -0.7201  -0.7193  -0.6982  -0.6931  -0.6871  -0.6794
 -0.6761  -0.6732  -0.6559  -0.6486  -0.6348  -0.6277  -0.6202  -0.6149
 -0.6113  -0.6073  -0.5958  -0.5935  -0.5828  -0.5673  -0.5585  -0.5532
 -0.5472  -0.5352  -0.5298  -0.5228  -0.5129  -0.5077  -0.5037  -0.5023
 -0.4867  -0.4851  -0.4765  -0.4707  -0.4624  -0.4621  -0.4613  -0.4466
 -0.4251  -0.4027  -0.3860  -0.3705  -0.3506  -0.2932  -0.2883  -0.2202

          Ground-State Mulliken Net Atomic Charges

     Atom                 Charge (a.u.)
  ----------------------------------------
      1 C                    -0.070419
      2 C                    -0.257247
      3 S                    -0.134351
      4 C                    -0.046238
      5 H                     0.193610
      6 C                    -0.052125
      7 C                     0.222424
      8 C                     0.231224
      9 C                    -0.082709
     10 C                    -0.046833
     11 O                    -0.334843
     12 O                    -0.342916
     13 C                    -0.082578
     14 H                     0.120225
     15 H                     0.092107
     16 H                     0.092516
     17 C                    -0.086682
     18 H                     0.123455
     19 H                     0.093040
     20 H                     0.090018
     21 C                    -0.262931
     22 S                    -0.071624
     23 C                     0.075212
     24 H                     0.207424
     25 C                    -0.090843
     26 S                     0.100953
     27 C                    -0.237988
     28 C                    -0.095062
     29 C                    -0.007797
     30 C                     0.394473
     31 C                    -0.141634
     32 S                     0.039591
     33 C                     0.460754
     34 O                    -0.449688
     35 O                    -0.297660
     36 F                    -0.215434
     37 C                    -0.055071
     38 H                     0.116829
     39 H                     0.084788
     40 H                     0.084691
     41 H                     0.214786
     42 H                     0.117803
     43 H                     0.115272
     44 H                     0.191476
  ----------------------------------------
  Sum of atomic charges =     0.000000

                    Cartesian Multipole Moments
 -----------------------------------------------------------------
    Charge (ESU x 10^10)
                 0.0000
    Dipole Moment (Debye)
         X       0.1961      Y       3.2754      Z       2.7026
       Tot       4.2510
    Quadrupole Moments (Debye-Ang)
        XX    -183.0360     XY       6.1914     YY    -173.3348
        XZ      -5.5895     YZ     -12.8708     ZZ    -205.5781

 Total job time:  333.13s(wall), 10648.78s(cpu)
        *  Thank you very much for using Q-Chem.  Have a nice day.  *
