 Q-Chem 5.4, Q-Chem, Inc., Pleasanton, CA (2021)
 Q-Chem 5.4.0 for Intel X86 EM64T Linux

User input:
--------------------------------------------------------------
$molecule
0 1
C	-0.135457	-8.519741	-0.235993
C	0.558188	-7.635967	0.577858
S	-1.148850	-7.651740	-1.414705
C	0.308648	-6.261894	0.283020
H	1.238560	-7.954738	1.377597
C	-0.609026	-6.079985	-0.810887
C	-0.996828	-4.798382	-1.231581
C	0.865740	-5.153542	0.982901
C	0.474408	-3.869626	0.564713
C	-0.442046	-3.688927	-0.532196
O	1.738137	-5.481075	1.976332
O	-1.874052	-4.479871	-2.228709
C	-2.016062	-5.356026	-3.340298
H	-2.573877	-4.790496	-4.110807
H	-2.598484	-6.268513	-3.085998
H	-1.028695	-5.658187	-3.751679
C	2.033195	-4.546999	3.007565
H	2.594833	-5.107564	3.778655
H	1.108067	-4.131473	3.461650
H	2.671451	-3.712085	2.645264
C	-0.691020	-2.314326	-0.822814
S	1.005649	-2.295487	1.178037
C	0.000000	-1.435180	0.000000
H	-1.368875	-1.993211	-1.623656
C	0.000000	0.000000	0.000000
S	0.780044	0.447780	1.510732
C	2.143774	1.236372	0.727629
C	0.786529	0.454137	-1.064665
C	1.988499	1.149844	-0.678287
C	0.729864	0.419512	-2.486150
C	1.825177	1.052041	-3.106916
S	2.903877	1.678680	-1.965735
C	2.047896	1.175232	-4.559972
O	1.240953	0.705897	-5.350277
O	3.160791	1.814024	-5.004375
F	-0.233039	-0.140940	-3.246290
C	3.476510	1.984585	-6.334976
H	4.433735	2.536545	-6.370268
H	2.693835	2.561503	-6.875609
H	3.588239	1.011113	-6.861878
H	2.940569	1.696327	1.321510
H	-0.817932	-9.146471	0.349939
H	0.548939	-9.150570	-0.815247
H	-0.821835	-1.444158	0.700647
$end

$rem
JOBTYPE		SP
EXCHANGE	HF
CORRELATION	pRIMP2
BASIS		cc-pvtz
METHOD		rimp2
AUX_BASIS	rimp2-cc-pvtz
SOLVENT_METHOD	PCM
PURECART	11111
SYMMETRY	false
MEM_TOTAL	110000
SCF_CONVERGENCE = 6
THRESH=10
GUI = 2
$end

$solvent
dielectric 4.90
$end
--------------------------------------------------------------

             Standard Nuclear Orientation (Angstroms)
    I     Atom           X                Y                Z
 ----------------------------------------------------------------
    1      C      -0.1354570000    -8.5197410000    -0.2359930000
    2      C       0.5581880000    -7.6359670000     0.5778580000
    3      S      -1.1488500000    -7.6517400000    -1.4147050000
    4      C       0.3086480000    -6.2618940000     0.2830200000
    5      H       1.2385600000    -7.9547380000     1.3775970000
    6      C      -0.6090260000    -6.0799850000    -0.8108870000
    7      C      -0.9968280000    -4.7983820000    -1.2315810000
    8      C       0.8657400000    -5.1535420000     0.9829010000
    9      C       0.4744080000    -3.8696260000     0.5647130000
   10      C      -0.4420460000    -3.6889270000    -0.5321960000
   11      O       1.7381370000    -5.4810750000     1.9763320000
   12      O      -1.8740520000    -4.4798710000    -2.2287090000
   13      C      -2.0160620000    -5.3560260000    -3.3402980000
   14      H      -2.5738770000    -4.7904960000    -4.1108070000
   15      H      -2.5984840000    -6.2685130000    -3.0859980000
   16      H      -1.0286950000    -5.6581870000    -3.7516790000
   17      C       2.0331950000    -4.5469990000     3.0075650000
   18      H       2.5948330000    -5.1075640000     3.7786550000
   19      H       1.1080670000    -4.1314730000     3.4616500000
   20      H       2.6714510000    -3.7120850000     2.6452640000
   21      C      -0.6910200000    -2.3143260000    -0.8228140000
   22      S       1.0056490000    -2.2954870000     1.1780370000
   23      C       0.0000000000    -1.4351800000     0.0000000000
   24      H      -1.3688750000    -1.9932110000    -1.6236560000
   25      C       0.0000000000     0.0000000000     0.0000000000
   26      S       0.7800440000     0.4477800000     1.5107320000
   27      C       2.1437740000     1.2363720000     0.7276290000
   28      C       0.7865290000     0.4541370000    -1.0646650000
   29      C       1.9884990000     1.1498440000    -0.6782870000
   30      C       0.7298640000     0.4195120000    -2.4861500000
   31      C       1.8251770000     1.0520410000    -3.1069160000
   32      S       2.9038770000     1.6786800000    -1.9657350000
   33      C       2.0478960000     1.1752320000    -4.5599720000
   34      O       1.2409530000     0.7058970000    -5.3502770000
   35      O       3.1607910000     1.8140240000    -5.0043750000
   36      F      -0.2330390000    -0.1409400000    -3.2462900000
   37      C       3.4765100000     1.9845850000    -6.3349760000
   38      H       4.4337350000     2.5365450000    -6.3702680000
   39      H       2.6938350000     2.5615030000    -6.8756090000
   40      H       3.5882390000     1.0111130000    -6.8618780000
   41      H       2.9405690000     1.6963270000     1.3215100000
   42      H      -0.8179320000    -9.1464710000     0.3499390000
   43      H       0.5489390000    -9.1505700000    -0.8152470000
   44      H      -0.8218350000    -1.4441580000     0.7006470000
 ----------------------------------------------------------------

   11   -2755.2459654861      8.08e-07  Convergence criterion met
 Total energy in the final basis set =    -2755.2459654861
        RIMP2         total energy =     -2760.3602788216 a.u.

                    Orbital Energies (a.u.)
 --------------------------------------------------------------

 Alpha MOs
 -- Occupied --
-92.0171 -92.0077 -91.9719 -91.9536 -26.3368 -20.6170 -20.5844 -20.5823
-20.5587 -11.4177 -11.3772 -11.3284 -11.3146 -11.3060 -11.3022 -11.2986
-11.2939 -11.2911 -11.2825 -11.2803 -11.2759 -11.2715 -11.2708 -11.2696
-11.2664 -11.2537 -11.2491 -11.2449 -11.2261  -9.0169  -9.0112  -8.9745
 -8.9563  -6.6974  -6.6965  -6.6965  -6.6923  -6.6917  -6.6905  -6.6554
 -6.6544  -6.6531  -6.6375  -6.6366  -6.6356  -1.6502  -1.4773  -1.4066
 -1.4053  -1.3737  -1.2490  -1.2066  -1.1726  -1.1467  -1.0953  -1.0560
 -1.0427  -1.0350  -1.0056  -0.9944  -0.9770  -0.9596  -0.9452  -0.9383
 -0.8918  -0.8774  -0.8574  -0.8075  -0.8000  -0.7853  -0.7766  -0.7712
 -0.7597  -0.7327  -0.7215  -0.7188  -0.6976  -0.6932  -0.6828  -0.6806
 -0.6781  -0.6648  -0.6532  -0.6457  -0.6363  -0.6272  -0.6154  -0.6130
 -0.6115  -0.6105  -0.6045  -0.5900  -0.5724  -0.5653  -0.5570  -0.5536
 -0.5399  -0.5369  -0.5301  -0.5225  -0.5156  -0.5075  -0.5049  -0.4979
 -0.4896  -0.4813  -0.4745  -0.4677  -0.4661  -0.4644  -0.4476  -0.4413
 -0.4246  -0.3908  -0.3811  -0.3641  -0.3491  -0.3032  -0.2837  -0.2111

          Ground-State Mulliken Net Atomic Charges

     Atom                 Charge (a.u.)
  ----------------------------------------
      1 C                    -0.068402
      2 C                    -0.290128
      3 S                    -0.144590
      4 C                    -0.038135
      5 H                     0.189263
      6 C                    -0.056560
      7 C                     0.225320
      8 C                     0.212344
      9 C                    -0.080542
     10 C                    -0.051330
     11 O                    -0.336898
     12 O                    -0.343332
     13 C                    -0.082306
     14 H                     0.119877
     15 H                     0.091529
     16 H                     0.092236
     17 C                    -0.086978
     18 H                     0.122523
     19 H                     0.090023
     20 H                     0.088051
     21 C                    -0.287898
     22 S                    -0.094475
     23 C                     0.043287
     24 H                     0.208200
     25 C                    -0.203434
     26 S                     0.113040
     27 C                    -0.142252
     28 C                     0.025678
     29 C                    -0.032802
     30 C                     0.358581
     31 C                    -0.110659
     32 S                     0.074624
     33 C                     0.457706
     34 O                    -0.436832
     35 O                    -0.296174
     36 F                    -0.211614
     37 C                    -0.054759
     38 H                     0.117804
     39 H                     0.085912
     40 H                     0.086105
     41 H                     0.223525
     42 H                     0.113160
     43 H                     0.110714
     44 H                     0.200601
  ----------------------------------------
  Sum of atomic charges =     0.000000

                    Cartesian Multipole Moments
 -----------------------------------------------------------------
    Charge (ESU x 10^10)
                 0.0000
    Dipole Moment (Debye)
         X       4.8661      Y       5.3374      Z       2.8867
       Tot       7.7782
    Quadrupole Moments (Debye-Ang)
        XX    -183.2590     XY       7.7943     YY    -202.4031
        XZ      -5.2537     YZ      -8.3061     ZZ    -185.4764

 Total job time:  329.72s(wall), 10737.21s(cpu)
        *  Thank you very much for using Q-Chem.  Have a nice day.  *
