 Q-Chem 5.4, Q-Chem, Inc., Pleasanton, CA (2021)
 Q-Chem 5.4.0 for Intel X86 EM64T Linux

User input:
--------------------------------------------------------------
$molecule
0 1
C	0.135457	-8.519741	0.235993
C	-0.558188	-7.635967	-0.577858
S	1.148850	-7.651740	1.414705
C	-0.308648	-6.261894	-0.283020
H	-1.238560	-7.954738	-1.377597
C	0.609026	-6.079985	0.810887
C	0.996828	-4.798382	1.231581
C	-0.865740	-5.153542	-0.982901
C	-0.474408	-3.869626	-0.564713
C	0.442046	-3.688927	0.532196
O	-1.738137	-5.481075	-1.976332
O	1.874052	-4.479871	2.228709
C	2.016062	-5.356026	3.340298
H	2.573877	-4.790496	4.110807
H	2.598484	-6.268513	3.085998
H	1.028695	-5.658187	3.751679
C	-2.033195	-4.546999	-3.007565
H	-2.594833	-5.107564	-3.778655
H	-1.108067	-4.131473	-3.461650
H	-2.671451	-3.712085	-2.645264
C	0.691020	-2.314326	0.822814
S	-1.005649	-2.295487	-1.178037
C	-0.000000	-1.435180	-0.000000
H	1.368875	-1.993211	1.623656
C	0.000000	0.000000	0.000000
S	0.382139	0.814215	1.510732
C	1.046923	2.242395	0.727629
C	0.383804	0.823142	-1.064665
C	0.969360	2.082453	-0.678287
C	0.357247	0.762277	-2.486150
C	0.891671	1.908660	-3.106916
S	1.415865	3.040689	-1.965735
C	1.003453	2.137318	-4.559972
O	0.611644	1.290019	-5.350277
O	1.548687	3.298916	-5.004375
F	-0.110054	-0.249117	-3.246290
C	1.709479	3.619721	-6.334976
H	2.177001	4.620902	-6.370268
H	0.737443	3.643380	-6.875609
H	2.359363	2.886384	-6.861878
H	1.435800	3.076190	1.321510
H	0.817932	-9.146471	-0.349939
H	-0.548939	-9.150570	0.815247
H	0.821835	-1.444158	-0.700647
$end

$rem
JOBTYPE		SP
EXCHANGE	HF
CORRELATION	pRIMP2
BASIS		cc-pvtz
METHOD		rimp2
AUX_BASIS	rimp2-cc-pvtz
SOLVENT_METHOD	PCM
PURECART	11111
SYMMETRY	false
MEM_TOTAL	110000
SCF_CONVERGENCE = 6
THRESH=10
GUI = 2
$end

$solvent
dielectric 4.90
$end
--------------------------------------------------------------

             Standard Nuclear Orientation (Angstroms)
    I     Atom           X                Y                Z
 ----------------------------------------------------------------
    1      C       0.1354570000    -8.5197410000     0.2359930000
    2      C      -0.5581880000    -7.6359670000    -0.5778580000
    3      S       1.1488500000    -7.6517400000     1.4147050000
    4      C      -0.3086480000    -6.2618940000    -0.2830200000
    5      H      -1.2385600000    -7.9547380000    -1.3775970000
    6      C       0.6090260000    -6.0799850000     0.8108870000
    7      C       0.9968280000    -4.7983820000     1.2315810000
    8      C      -0.8657400000    -5.1535420000    -0.9829010000
    9      C      -0.4744080000    -3.8696260000    -0.5647130000
   10      C       0.4420460000    -3.6889270000     0.5321960000
   11      O      -1.7381370000    -5.4810750000    -1.9763320000
   12      O       1.8740520000    -4.4798710000     2.2287090000
   13      C       2.0160620000    -5.3560260000     3.3402980000
   14      H       2.5738770000    -4.7904960000     4.1108070000
   15      H       2.5984840000    -6.2685130000     3.0859980000
   16      H       1.0286950000    -5.6581870000     3.7516790000
   17      C      -2.0331950000    -4.5469990000    -3.0075650000
   18      H      -2.5948330000    -5.1075640000    -3.7786550000
   19      H      -1.1080670000    -4.1314730000    -3.4616500000
   20      H      -2.6714510000    -3.7120850000    -2.6452640000
   21      C       0.6910200000    -2.3143260000     0.8228140000
   22      S      -1.0056490000    -2.2954870000    -1.1780370000
   23      C       0.0000000000    -1.4351800000     0.0000000000
   24      H       1.3688750000    -1.9932110000     1.6236560000
   25      C       0.0000000000     0.0000000000     0.0000000000
   26      S       0.3821390000     0.8142150000     1.5107320000
   27      C       1.0469230000     2.2423950000     0.7276290000
   28      C       0.3838040000     0.8231420000    -1.0646650000
   29      C       0.9693600000     2.0824530000    -0.6782870000
   30      C       0.3572470000     0.7622770000    -2.4861500000
   31      C       0.8916710000     1.9086600000    -3.1069160000
   32      S       1.4158650000     3.0406890000    -1.9657350000
   33      C       1.0034530000     2.1373180000    -4.5599720000
   34      O       0.6116440000     1.2900190000    -5.3502770000
   35      O       1.5486870000     3.2989160000    -5.0043750000
   36      F      -0.1100540000    -0.2491170000    -3.2462900000
   37      C       1.7094790000     3.6197210000    -6.3349760000
   38      H       2.1770010000     4.6209020000    -6.3702680000
   39      H       0.7374430000     3.6433800000    -6.8756090000
   40      H       2.3593630000     2.8863840000    -6.8618780000
   41      H       1.4358000000     3.0761900000     1.3215100000
   42      H       0.8179320000    -9.1464710000    -0.3499390000
   43      H      -0.5489390000    -9.1505700000     0.8152470000
   44      H       0.8218350000    -1.4441580000    -0.7006470000
 ----------------------------------------------------------------

   11   -2755.3133801812      7.22e-07  Convergence criterion met
 Total energy in the final basis set =    -2755.3133801812
        RIMP2         total energy =     -2760.4098342697 a.u.

                    Orbital Energies (a.u.)
 --------------------------------------------------------------

 Alpha MOs
 -- Occupied --
-92.0166 -91.9957 -91.9748 -91.9588 -26.3351 -20.6122 -20.5876 -20.5863
-20.5498 -11.4103 -11.3784 -11.3176 -11.3092 -11.3070 -11.2982 -11.2967
-11.2908 -11.2887 -11.2833 -11.2833 -11.2832 -11.2826 -11.2797 -11.2740
-11.2725 -11.2594 -11.2583 -11.2501 -11.2379  -9.0149  -8.9997  -8.9774
 -8.9614  -6.6957  -6.6951  -6.6947  -6.6810  -6.6803  -6.6790  -6.6585
 -6.6576  -6.6563  -6.6427  -6.6417  -6.6407  -1.6490  -1.4719  -1.4101
 -1.4090  -1.3671  -1.2402  -1.2088  -1.1761  -1.1439  -1.0997  -1.0516
 -1.0459  -1.0297  -1.0078  -0.9983  -0.9724  -0.9594  -0.9485  -0.9407
 -0.8933  -0.8738  -0.8615  -0.8118  -0.7925  -0.7857  -0.7782  -0.7664
 -0.7618  -0.7332  -0.7190  -0.7173  -0.6979  -0.6932  -0.6866  -0.6787
 -0.6759  -0.6724  -0.6553  -0.6485  -0.6331  -0.6295  -0.6204  -0.6149
 -0.6104  -0.6064  -0.5966  -0.5935  -0.5785  -0.5656  -0.5596  -0.5577
 -0.5513  -0.5311  -0.5286  -0.5207  -0.5130  -0.5079  -0.5042  -0.4999
 -0.4873  -0.4847  -0.4783  -0.4670  -0.4615  -0.4611  -0.4601  -0.4463
 -0.4300  -0.3984  -0.3840  -0.3702  -0.3509  -0.2929  -0.2860  -0.2178

          Ground-State Mulliken Net Atomic Charges

     Atom                 Charge (a.u.)
  ----------------------------------------
      1 C                    -0.070296
      2 C                    -0.256404
      3 S                    -0.134155
      4 C                    -0.045817
      5 H                     0.194136
      6 C                    -0.050269
      7 C                     0.220791
      8 C                     0.230633
      9 C                    -0.080312
     10 C                    -0.043204
     11 O                    -0.335536
     12 O                    -0.344032
     13 C                    -0.082533
     14 H                     0.119816
     15 H                     0.092174
     16 H                     0.092755
     17 C                    -0.087357
     18 H                     0.123035
     19 H                     0.093653
     20 H                     0.089870
     21 C                    -0.284512
     22 S                    -0.067244
     23 C                     0.055018
     24 H                     0.206882
     25 C                    -0.034147
     26 S                     0.096393
     27 C                    -0.244663
     28 C                    -0.101029
     29 C                    -0.004068
     30 C                     0.364503
     31 C                    -0.139699
     32 S                     0.043038
     33 C                     0.457947
     34 O                    -0.451535
     35 O                    -0.298294
     36 F                    -0.208075
     37 C                    -0.054920
     38 H                     0.116641
     39 H                     0.084468
     40 H                     0.084358
     41 H                     0.214628
     42 H                     0.118029
     43 H                     0.115480
     44 H                     0.203855
  ----------------------------------------
  Sum of atomic charges =     0.000000

                    Cartesian Multipole Moments
 -----------------------------------------------------------------
    Charge (ESU x 10^10)
                -0.0000
    Dipole Moment (Debye)
         X       1.7854      Y       2.7059      Z       2.6772
       Tot       4.2044
    Quadrupole Moments (Debye-Ang)
        XX    -196.4202     XY       8.3344     YY    -175.7910
        XZ       1.6714     YZ      -6.5040     ZZ    -190.3054

 Total job time:  325.94s(wall), 10287.47s(cpu)
        *  Thank you very much for using Q-Chem.  Have a nice day.  *
