 Q-Chem 5.4, Q-Chem, Inc., Pleasanton, CA (2021)
 Q-Chem 5.4.0 for Intel X86 EM64T Linux

User input:
--------------------------------------------------------------
$molecule
0 1
C	-0.092419	-8.519741	-0.255929
C	0.449364	-7.635967	0.666007
S	-0.885736	-7.651740	-1.592708
C	0.254813	-6.261894	0.332317
H	0.980526	-7.954738	1.571741
C	-0.458965	-6.079985	-0.904324
C	-0.767823	-4.798382	-1.385968
C	0.681909	-5.153542	1.118303
C	0.369139	-3.869626	0.638514
C	-0.342916	-3.688927	-0.600871
O	1.368544	-5.481075	2.248132
O	-1.458570	-4.479871	-2.520275
C	-1.405396	-5.356026	-3.639637
H	-1.820940	-4.790496	-4.495304
H	-2.023129	-6.268513	-3.490336
H	-0.361595	-5.658187	-3.873314
C	1.480048	-4.546999	3.314934
H	1.899255	-5.107564	4.171837
H	0.490123	-4.131473	3.601473
H	2.171521	-3.712085	3.068969
C	-0.537642	-2.314326	-0.930308
S	0.785807	-2.295487	1.334769
C	-0.000000	-1.435180	-0.000000
H	-1.066134	-1.993211	-1.836691
C	0.000000	0.000000	0.000000
S	0.382139	0.814215	1.510732
C	1.046923	2.242395	0.727629
C	0.383804	0.823142	-1.064665
C	0.969360	2.082453	-0.678287
C	0.357247	0.762277	-2.486150
C	0.891671	1.908660	-3.106916
S	1.415865	3.040689	-1.965735
C	1.003453	2.137318	-4.559972
O	0.611644	1.290019	-5.350277
O	1.548687	3.298916	-5.004375
F	-0.110054	-0.249117	-3.246290
C	1.709479	3.619721	-6.334976
H	2.177001	4.620902	-6.370268
H	0.737443	3.643380	-6.875609
H	2.359363	2.886384	-6.861878
H	1.435800	3.076190	1.321510
H	-0.866272	-9.146471	0.202590
H	0.682165	-9.150570	-0.707539
H	-0.931016	-1.444158	0.547293
$end

$rem
JOBTYPE		SP
EXCHANGE	HF
CORRELATION	pRIMP2
BASIS		cc-pvtz
METHOD		rimp2
AUX_BASIS	rimp2-cc-pvtz
SOLVENT_METHOD	PCM
PURECART	11111
SYMMETRY	false
MEM_TOTAL	110000
SCF_CONVERGENCE = 6
THRESH=10
GUI = 2
$end

$solvent
dielectric 4.90
$end
--------------------------------------------------------------

             Standard Nuclear Orientation (Angstroms)
    I     Atom           X                Y                Z
 ----------------------------------------------------------------
    1      C      -0.0924190000    -8.5197410000    -0.2559290000
    2      C       0.4493640000    -7.6359670000     0.6660070000
    3      S      -0.8857360000    -7.6517400000    -1.5927080000
    4      C       0.2548130000    -6.2618940000     0.3323170000
    5      H       0.9805260000    -7.9547380000     1.5717410000
    6      C      -0.4589650000    -6.0799850000    -0.9043240000
    7      C      -0.7678230000    -4.7983820000    -1.3859680000
    8      C       0.6819090000    -5.1535420000     1.1183030000
    9      C       0.3691390000    -3.8696260000     0.6385140000
   10      C      -0.3429160000    -3.6889270000    -0.6008710000
   11      O       1.3685440000    -5.4810750000     2.2481320000
   12      O      -1.4585700000    -4.4798710000    -2.5202750000
   13      C      -1.4053960000    -5.3560260000    -3.6396370000
   14      H      -1.8209400000    -4.7904960000    -4.4953040000
   15      H      -2.0231290000    -6.2685130000    -3.4903360000
   16      H      -0.3615950000    -5.6581870000    -3.8733140000
   17      C       1.4800480000    -4.5469990000     3.3149340000
   18      H       1.8992550000    -5.1075640000     4.1718370000
   19      H       0.4901230000    -4.1314730000     3.6014730000
   20      H       2.1715210000    -3.7120850000     3.0689690000
   21      C      -0.5376420000    -2.3143260000    -0.9303080000
   22      S       0.7858070000    -2.2954870000     1.3347690000
   23      C       0.0000000000    -1.4351800000     0.0000000000
   24      H      -1.0661340000    -1.9932110000    -1.8366910000
   25      C       0.0000000000     0.0000000000     0.0000000000
   26      S       0.3821390000     0.8142150000     1.5107320000
   27      C       1.0469230000     2.2423950000     0.7276290000
   28      C       0.3838040000     0.8231420000    -1.0646650000
   29      C       0.9693600000     2.0824530000    -0.6782870000
   30      C       0.3572470000     0.7622770000    -2.4861500000
   31      C       0.8916710000     1.9086600000    -3.1069160000
   32      S       1.4158650000     3.0406890000    -1.9657350000
   33      C       1.0034530000     2.1373180000    -4.5599720000
   34      O       0.6116440000     1.2900190000    -5.3502770000
   35      O       1.5486870000     3.2989160000    -5.0043750000
   36      F      -0.1100540000    -0.2491170000    -3.2462900000
   37      C       1.7094790000     3.6197210000    -6.3349760000
   38      H       2.1770010000     4.6209020000    -6.3702680000
   39      H       0.7374430000     3.6433800000    -6.8756090000
   40      H       2.3593630000     2.8863840000    -6.8618780000
   41      H       1.4358000000     3.0761900000     1.3215100000
   42      H      -0.8662720000    -9.1464710000     0.2025900000
   43      H       0.6821650000    -9.1505700000    -0.7075390000
   44      H      -0.9310160000    -1.4441580000     0.5472930000
 ----------------------------------------------------------------

   11   -2755.3117725568      7.53e-07  Convergence criterion met
 Total energy in the final basis set =    -2755.3117725568
        RIMP2         total energy =     -2760.4075110762 a.u.

                    Orbital Energies (a.u.)
 --------------------------------------------------------------

 Alpha MOs
 -- Occupied --
-92.0161 -91.9948 -91.9818 -91.9581 -26.3376 -20.6123 -20.5879 -20.5866
-20.5501 -11.4104 -11.3788 -11.3149 -11.3090 -11.3086 -11.2976 -11.2972
-11.2933 -11.2886 -11.2855 -11.2837 -11.2820 -11.2818 -11.2801 -11.2728
-11.2723 -11.2585 -11.2581 -11.2496 -11.2372  -9.0148  -8.9989  -8.9839
 -8.9607  -6.6956  -6.6950  -6.6945  -6.6802  -6.6795  -6.6782  -6.6650
 -6.6641  -6.6628  -6.6419  -6.6410  -6.6399  -1.6511  -1.4720  -1.4112
 -1.4084  -1.3673  -1.2390  -1.2099  -1.1758  -1.1442  -1.0994  -1.0506
 -1.0468  -1.0302  -1.0093  -0.9987  -0.9725  -0.9597  -0.9490  -0.9403
 -0.8947  -0.8722  -0.8638  -0.8084  -0.7972  -0.7864  -0.7765  -0.7707
 -0.7642  -0.7321  -0.7229  -0.7189  -0.6976  -0.6933  -0.6836  -0.6788
 -0.6728  -0.6665  -0.6569  -0.6485  -0.6380  -0.6297  -0.6200  -0.6145
 -0.6098  -0.6066  -0.5957  -0.5931  -0.5766  -0.5693  -0.5589  -0.5528
 -0.5470  -0.5367  -0.5322  -0.5227  -0.5144  -0.5086  -0.5061  -0.5003
 -0.4856  -0.4842  -0.4777  -0.4721  -0.4622  -0.4613  -0.4582  -0.4460
 -0.4304  -0.3982  -0.3864  -0.3703  -0.3513  -0.2940  -0.2855  -0.2172

          Ground-State Mulliken Net Atomic Charges

     Atom                 Charge (a.u.)
  ----------------------------------------
      1 C                    -0.070217
      2 C                    -0.259995
      3 S                    -0.135027
      4 C                    -0.044691
      5 H                     0.193358
      6 C                    -0.053006
      7 C                     0.223932
      8 C                     0.224062
      9 C                    -0.078005
     10 C                    -0.047210
     11 O                    -0.334114
     12 O                    -0.343117
     13 C                    -0.082420
     14 H                     0.121134
     15 H                     0.091524
     16 H                     0.092902
     17 C                    -0.088256
     18 H                     0.124270
     19 H                     0.092519
     20 H                     0.089707
     21 C                    -0.275191
     22 S                    -0.078152
     23 C                     0.076563
     24 H                     0.205870
     25 C                    -0.091013
     26 S                     0.082097
     27 C                    -0.226215
     28 C                    -0.040178
     29 C                    -0.021771
     30 C                     0.374164
     31 C                    -0.141991
     32 S                     0.038589
     33 C                     0.457587
     34 O                    -0.451008
     35 O                    -0.298060
     36 F                    -0.213066
     37 C                    -0.054892
     38 H                     0.116681
     39 H                     0.084412
     40 H                     0.084561
     41 H                     0.216308
     42 H                     0.117362
     43 H                     0.115177
     44 H                     0.204814
  ----------------------------------------
  Sum of atomic charges =     0.000000

                    Cartesian Multipole Moments
 -----------------------------------------------------------------
    Charge (ESU x 10^10)
                -0.0000
    Dipole Moment (Debye)
         X       1.0019      Y       2.9208      Z       3.7406
       Tot       4.8505
    Quadrupole Moments (Debye-Ang)
        XX    -197.9993     XY       3.9741     YY    -176.7629
        XZ      -0.9550     YZ     -12.9630     ZZ    -188.4700

 Total job time:  339.75s(wall), 10310.27s(cpu)
        *  Thank you very much for using Q-Chem.  Have a nice day.  *
