 Q-Chem 5.4, Q-Chem, Inc., Pleasanton, CA (2021)
 Q-Chem 5.4.0 for Intel X86 EM64T Linux

User input:
--------------------------------------------------------------
$molecule
0 1
C	-0.092419	-8.519741	-0.255929
C	0.449364	-7.635967	0.666007
S	-0.885736	-7.651740	-1.592708
C	0.254813	-6.261894	0.332317
H	0.980526	-7.954738	1.571741
C	-0.458965	-6.079985	-0.904324
C	-0.767823	-4.798382	-1.385968
C	0.681909	-5.153542	1.118303
C	0.369139	-3.869626	0.638514
C	-0.342916	-3.688927	-0.600871
O	1.368544	-5.481075	2.248132
O	-1.458570	-4.479871	-2.520275
C	-1.405396	-5.356026	-3.639637
H	-1.820940	-4.790496	-4.495304
H	-2.023129	-6.268513	-3.490336
H	-0.361595	-5.658187	-3.873314
C	1.480048	-4.546999	3.314934
H	1.899255	-5.107564	4.171837
H	0.490123	-4.131473	3.601473
H	2.171521	-3.712085	3.068969
C	-0.537642	-2.314326	-0.930308
S	0.785807	-2.295487	1.334769
C	-0.000000	-1.435180	-0.000000
H	-1.066134	-1.993211	-1.836691
C	0.000000	0.000000	0.000000
S	0.451648	0.777811	1.510732
C	1.238377	2.142617	0.727629
C	0.454085	0.786559	-1.064665
C	1.147169	1.990043	-0.678287
C	0.422325	0.728240	-2.486150
C	1.054629	1.823683	-3.106916
S	1.675491	2.905718	-1.965735
C	1.185914	2.041729	-4.559972
O	0.721749	1.231802	-5.350277
O	1.830313	3.151386	-5.004375
F	-0.131347	-0.238577	-3.246290
C	2.018453	3.456956	-6.334976
H	2.571455	4.413580	-6.370268
H	1.052178	3.565244	-6.875609
H	2.601950	2.669768	-6.861878
H	1.698444	2.939346	1.321510
H	-0.866272	-9.146471	0.202590
H	0.682165	-9.150570	-0.707539
H	-0.931016	-1.444158	0.547293
$end

$rem
JOBTYPE		SP
EXCHANGE	HF
CORRELATION	pRIMP2
BASIS		cc-pvtz
METHOD		rimp2
AUX_BASIS	rimp2-cc-pvtz
SOLVENT_METHOD	PCM
PURECART	11111
SYMMETRY	false
MEM_TOTAL	110000
SCF_CONVERGENCE = 6
THRESH=10
GUI = 2
$end

$solvent
dielectric 4.90
$end
--------------------------------------------------------------

             Standard Nuclear Orientation (Angstroms)
    I     Atom           X                Y                Z
 ----------------------------------------------------------------
    1      C      -0.0924190000    -8.5197410000    -0.2559290000
    2      C       0.4493640000    -7.6359670000     0.6660070000
    3      S      -0.8857360000    -7.6517400000    -1.5927080000
    4      C       0.2548130000    -6.2618940000     0.3323170000
    5      H       0.9805260000    -7.9547380000     1.5717410000
    6      C      -0.4589650000    -6.0799850000    -0.9043240000
    7      C      -0.7678230000    -4.7983820000    -1.3859680000
    8      C       0.6819090000    -5.1535420000     1.1183030000
    9      C       0.3691390000    -3.8696260000     0.6385140000
   10      C      -0.3429160000    -3.6889270000    -0.6008710000
   11      O       1.3685440000    -5.4810750000     2.2481320000
   12      O      -1.4585700000    -4.4798710000    -2.5202750000
   13      C      -1.4053960000    -5.3560260000    -3.6396370000
   14      H      -1.8209400000    -4.7904960000    -4.4953040000
   15      H      -2.0231290000    -6.2685130000    -3.4903360000
   16      H      -0.3615950000    -5.6581870000    -3.8733140000
   17      C       1.4800480000    -4.5469990000     3.3149340000
   18      H       1.8992550000    -5.1075640000     4.1718370000
   19      H       0.4901230000    -4.1314730000     3.6014730000
   20      H       2.1715210000    -3.7120850000     3.0689690000
   21      C      -0.5376420000    -2.3143260000    -0.9303080000
   22      S       0.7858070000    -2.2954870000     1.3347690000
   23      C       0.0000000000    -1.4351800000     0.0000000000
   24      H      -1.0661340000    -1.9932110000    -1.8366910000
   25      C       0.0000000000     0.0000000000     0.0000000000
   26      S       0.4516480000     0.7778110000     1.5107320000
   27      C       1.2383770000     2.1426170000     0.7276290000
   28      C       0.4540850000     0.7865590000    -1.0646650000
   29      C       1.1471690000     1.9900430000    -0.6782870000
   30      C       0.4223250000     0.7282400000    -2.4861500000
   31      C       1.0546290000     1.8236830000    -3.1069160000
   32      S       1.6754910000     2.9057180000    -1.9657350000
   33      C       1.1859140000     2.0417290000    -4.5599720000
   34      O       0.7217490000     1.2318020000    -5.3502770000
   35      O       1.8303130000     3.1513860000    -5.0043750000
   36      F      -0.1313470000    -0.2385770000    -3.2462900000
   37      C       2.0184530000     3.4569560000    -6.3349760000
   38      H       2.5714550000     4.4135800000    -6.3702680000
   39      H       1.0521780000     3.5652440000    -6.8756090000
   40      H       2.6019500000     2.6697680000    -6.8618780000
   41      H       1.6984440000     2.9393460000     1.3215100000
   42      H      -0.8662720000    -9.1464710000     0.2025900000
   43      H       0.6821650000    -9.1505700000    -0.7075390000
   44      H      -0.9310160000    -1.4441580000     0.5472930000
 ----------------------------------------------------------------

   11   -2755.3054015184      7.48e-07  Convergence criterion met
 Total energy in the final basis set =    -2755.3054015184
        RIMP2         total energy =     -2760.4035929329 a.u.

                    Orbital Energies (a.u.)
 --------------------------------------------------------------

 Alpha MOs
 -- Occupied --
-92.0162 -91.9958 -91.9811 -91.9576 -26.3376 -20.6127 -20.5874 -20.5864
-20.5508 -11.4110 -11.3786 -11.3113 -11.3088 -11.3077 -11.2986 -11.2981
-11.2961 -11.2889 -11.2852 -11.2830 -11.2817 -11.2812 -11.2806 -11.2722
-11.2721 -11.2580 -11.2572 -11.2491 -11.2361  -9.0150  -8.9999  -8.9833
 -8.9602  -6.6958  -6.6952  -6.6947  -6.6811  -6.6805  -6.6791  -6.6643
 -6.6634  -6.6621  -6.6414  -6.6405  -6.6395  -1.6511  -1.4724  -1.4107
 -1.4082  -1.3678  -1.2397  -1.2094  -1.1754  -1.1444  -1.0989  -1.0511
 -1.0464  -1.0306  -1.0090  -0.9982  -0.9729  -0.9596  -0.9486  -0.9401
 -0.8944  -0.8725  -0.8634  -0.8082  -0.7974  -0.7862  -0.7763  -0.7708
 -0.7637  -0.7318  -0.7230  -0.7190  -0.6973  -0.6933  -0.6835  -0.6791
 -0.6733  -0.6661  -0.6566  -0.6483  -0.6378  -0.6293  -0.6195  -0.6141
 -0.6099  -0.6072  -0.5964  -0.5932  -0.5759  -0.5690  -0.5585  -0.5533
 -0.5458  -0.5368  -0.5319  -0.5228  -0.5143  -0.5085  -0.5062  -0.5000
 -0.4862  -0.4839  -0.4766  -0.4719  -0.4624  -0.4616  -0.4575  -0.4456
 -0.4300  -0.3976  -0.3859  -0.3698  -0.3512  -0.2943  -0.2856  -0.2165

          Ground-State Mulliken Net Atomic Charges

     Atom                 Charge (a.u.)
  ----------------------------------------
      1 C                    -0.070050
      2 C                    -0.262998
      3 S                    -0.136010
      4 C                    -0.044002
      5 H                     0.192952
      6 C                    -0.053508
      7 C                     0.223756
      8 C                     0.222694
      9 C                    -0.078502
     10 C                    -0.048070
     11 O                    -0.334350
     12 O                    -0.343163
     13 C                    -0.082383
     14 H                     0.121037
     15 H                     0.091505
     16 H                     0.092836
     17 C                    -0.088228
     18 H                     0.124161
     19 H                     0.092315
     20 H                     0.089532
     21 C                    -0.274329
     22 S                    -0.078462
     23 C                     0.067709
     24 H                     0.206571
     25 C                    -0.093015
     26 S                     0.084817
     27 C                    -0.218316
     28 C                    -0.038812
     29 C                    -0.022291
     30 C                     0.371556
     31 C                    -0.138979
     32 S                     0.041941
     33 C                     0.457357
     34 O                    -0.449893
     35 O                    -0.297934
     36 F                    -0.212733
     37 C                    -0.054955
     38 H                     0.116795
     39 H                     0.084531
     40 H                     0.084733
     41 H                     0.216832
     42 H                     0.116945
     43 H                     0.114737
     44 H                     0.205674
  ----------------------------------------
  Sum of atomic charges =     0.000000

                    Cartesian Multipole Moments
 -----------------------------------------------------------------
    Charge (ESU x 10^10)
                -0.0000
    Dipole Moment (Debye)
         X       1.3769      Y       3.2043      Z       3.6669
       Tot       5.0606
    Quadrupole Moments (Debye-Ang)
        XX    -196.7687     XY       5.0062     YY    -179.3226
        XZ      -1.8977     YZ     -12.5751     ZZ    -188.1217

 Total job time:  335.73s(wall), 11173.58s(cpu)
        *  Thank you very much for using Q-Chem.  Have a nice day.  *
