 Q-Chem 5.4, Q-Chem, Inc., Pleasanton, CA (2021)
 Q-Chem 5.4.0 for Intel X86 EM64T Linux

User input:
--------------------------------------------------------------
$molecule
0 1
C	0.272104	-8.519741	0.000687
C	-0.779533	-7.635967	0.194476
S	1.799596	-7.651740	-0.287581
C	-0.399427	-6.261894	0.125787
H	-1.812314	-7.954738	0.383826
C	1.006762	-6.079985	-0.121989
C	1.564994	-4.798382	-0.247488
C	-1.284087	-5.153542	0.258303
C	-0.726260	-3.869626	0.128493
C	0.681918	-3.688927	-0.116725
O	-2.580622	-5.481075	0.517104
O	2.867144	-4.479871	-0.508622
C	3.900814	-5.356026	-0.075811
H	4.847002	-4.790496	-0.173640
H	3.971794	-6.268513	-0.707354
H	3.763397	-5.658187	0.984963
C	-3.621225	-4.546999	0.257016
H	-4.569828	-5.107564	0.357864
H	-3.551910	-4.131473	-0.771211
H	-3.626592	-3.712085	0.990913
C	1.058088	-2.314326	-0.187034
S	-1.523035	-2.295487	0.281899
C	0.000000	-1.435180	0.000000
H	2.090565	-1.993211	-0.373653
C	0.000000	0.000000	0.000000
S	0.080615	0.895811	1.510732
C	0.216842	2.465231	0.727629
C	0.079127	0.904769	-1.064665
C	0.198659	2.288406	-0.678287
C	0.074988	0.838492	-2.486150
C	0.185097	2.098524	-3.106916
S	0.290501	3.341568	-1.965735
C	0.211932	2.351623	-4.559972
O	0.133545	1.421416	-5.350277
O	0.326994	3.629649	-5.004375
F	-0.018214	-0.271734	-3.246290
C	0.368367	3.986101	-6.334976
H	0.465270	5.086806	-6.370268
H	-0.553140	3.675878	-6.875609
H	1.229874	3.519263	-6.861878
H	0.297091	3.381746	1.321510
H	0.105910	-9.146471	-0.883319
H	0.431555	-9.150570	0.883019
H	-0.195861	-1.444158	-1.062054
$end

$rem
JOBTYPE		SP
EXCHANGE	HF
CORRELATION	pRIMP2
BASIS		cc-pvtz
METHOD		rimp2
AUX_BASIS	rimp2-cc-pvtz
SOLVENT_METHOD	PCM
PURECART	11111
SYMMETRY	false
MEM_TOTAL	110000
SCF_CONVERGENCE = 6
THRESH=10
GUI = 2
$end

$solvent
dielectric 4.90
$end
--------------------------------------------------------------

             Standard Nuclear Orientation (Angstroms)
    I     Atom           X                Y                Z
 ----------------------------------------------------------------
    1      C       0.2721040000    -8.5197410000     0.0006870000
    2      C      -0.7795330000    -7.6359670000     0.1944760000
    3      S       1.7995960000    -7.6517400000    -0.2875810000
    4      C      -0.3994270000    -6.2618940000     0.1257870000
    5      H      -1.8123140000    -7.9547380000     0.3838260000
    6      C       1.0067620000    -6.0799850000    -0.1219890000
    7      C       1.5649940000    -4.7983820000    -0.2474880000
    8      C      -1.2840870000    -5.1535420000     0.2583030000
    9      C      -0.7262600000    -3.8696260000     0.1284930000
   10      C       0.6819180000    -3.6889270000    -0.1167250000
   11      O      -2.5806220000    -5.4810750000     0.5171040000
   12      O       2.8671440000    -4.4798710000    -0.5086220000
   13      C       3.9008140000    -5.3560260000    -0.0758110000
   14      H       4.8470020000    -4.7904960000    -0.1736400000
   15      H       3.9717940000    -6.2685130000    -0.7073540000
   16      H       3.7633970000    -5.6581870000     0.9849630000
   17      C      -3.6212250000    -4.5469990000     0.2570160000
   18      H      -4.5698280000    -5.1075640000     0.3578640000
   19      H      -3.5519100000    -4.1314730000    -0.7712110000
   20      H      -3.6265920000    -3.7120850000     0.9909130000
   21      C       1.0580880000    -2.3143260000    -0.1870340000
   22      S      -1.5230350000    -2.2954870000     0.2818990000
   23      C       0.0000000000    -1.4351800000     0.0000000000
   24      H       2.0905650000    -1.9932110000    -0.3736530000
   25      C       0.0000000000     0.0000000000     0.0000000000
   26      S       0.0806150000     0.8958110000     1.5107320000
   27      C       0.2168420000     2.4652310000     0.7276290000
   28      C       0.0791270000     0.9047690000    -1.0646650000
   29      C       0.1986590000     2.2884060000    -0.6782870000
   30      C       0.0749880000     0.8384920000    -2.4861500000
   31      C       0.1850970000     2.0985240000    -3.1069160000
   32      S       0.2905010000     3.3415680000    -1.9657350000
   33      C       0.2119320000     2.3516230000    -4.5599720000
   34      O       0.1335450000     1.4214160000    -5.3502770000
   35      O       0.3269940000     3.6296490000    -5.0043750000
   36      F      -0.0182140000    -0.2717340000    -3.2462900000
   37      C       0.3683670000     3.9861010000    -6.3349760000
   38      H       0.4652700000     5.0868060000    -6.3702680000
   39      H      -0.5531400000     3.6758780000    -6.8756090000
   40      H       1.2298740000     3.5192630000    -6.8618780000
   41      H       0.2970910000     3.3817460000     1.3215100000
   42      H       0.1059100000    -9.1464710000    -0.8833190000
   43      H       0.4315550000    -9.1505700000     0.8830190000
   44      H      -0.1958610000    -1.4441580000    -1.0620540000
 ----------------------------------------------------------------

   11   -2755.3289952558      6.95e-07  Convergence criterion met
 Total energy in the final basis set =    -2755.3289952558
        RIMP2         total energy =     -2760.4200142894 a.u.

                    Orbital Energies (a.u.)
 --------------------------------------------------------------

 Alpha MOs
 -- Occupied --
-92.0129 -91.9968 -91.9777 -91.9580 -26.3391 -20.6136 -20.5870 -20.5868
-20.5522 -11.4123 -11.3797 -11.3132 -11.3089 -11.3072 -11.3009 -11.2978
-11.2962 -11.2893 -11.2866 -11.2842 -11.2828 -11.2827 -11.2806 -11.2728
-11.2726 -11.2581 -11.2578 -11.2495 -11.2368  -9.0115  -9.0008  -8.9799
 -8.9606  -6.6922  -6.6917  -6.6913  -6.6820  -6.6814  -6.6800  -6.6610
 -6.6601  -6.6588  -6.6419  -6.6409  -6.6399  -1.6522  -1.4734  -1.4102
 -1.4087  -1.3689  -1.2392  -1.2085  -1.1749  -1.1435  -1.1000  -1.0521
 -1.0458  -1.0296  -1.0090  -0.9976  -0.9729  -0.9596  -0.9486  -0.9409
 -0.8932  -0.8745  -0.8629  -0.8091  -0.7942  -0.7850  -0.7808  -0.7711
 -0.7625  -0.7338  -0.7201  -0.7196  -0.6978  -0.6924  -0.6875  -0.6799
 -0.6762  -0.6738  -0.6553  -0.6484  -0.6325  -0.6280  -0.6199  -0.6147
 -0.6111  -0.6078  -0.5965  -0.5930  -0.5838  -0.5658  -0.5579  -0.5537
 -0.5484  -0.5340  -0.5291  -0.5225  -0.5128  -0.5074  -0.5030  -0.5015
 -0.4872  -0.4854  -0.4768  -0.4699  -0.4630  -0.4625  -0.4606  -0.4460
 -0.4221  -0.4048  -0.3854  -0.3700  -0.3501  -0.2928  -0.2892  -0.2208

          Ground-State Mulliken Net Atomic Charges

     Atom                 Charge (a.u.)
  ----------------------------------------
      1 C                    -0.070312
      2 C                    -0.259063
      3 S                    -0.135260
      4 C                    -0.044279
      5 H                     0.193447
      6 C                    -0.052408
      7 C                     0.226327
      8 C                     0.228580
      9 C                    -0.083202
     10 C                    -0.060523
     11 O                    -0.335186
     12 O                    -0.343229
     13 C                    -0.082546
     14 H                     0.119979
     15 H                     0.092147
     16 H                     0.092512
     17 C                    -0.086584
     18 H                     0.122907
     19 H                     0.093045
     20 H                     0.090080
     21 C                    -0.235090
     22 S                    -0.069471
     23 C                     0.055277
     24 H                     0.205363
     25 C                    -0.096678
     26 S                     0.099148
     27 C                    -0.230792
     28 C                    -0.081073
     29 C                    -0.008176
     30 C                     0.382361
     31 C                    -0.132470
     32 S                     0.040977
     33 C                     0.459687
     34 O                    -0.448300
     35 O                    -0.297325
     36 F                    -0.215014
     37 C                    -0.055185
     38 H                     0.117006
     39 H                     0.084961
     40 H                     0.084847
     41 H                     0.215268
     42 H                     0.117531
     43 H                     0.114970
     44 H                     0.185745
  ----------------------------------------
  Sum of atomic charges =     0.000000

                    Cartesian Multipole Moments
 -----------------------------------------------------------------
    Charge (ESU x 10^10)
                -0.0000
    Dipole Moment (Debye)
         X       0.1120      Y       3.7090      Z       2.5095
       Tot       4.4796
    Quadrupole Moments (Debye-Ang)
        XX    -183.2931     XY       5.2079     YY    -173.9565
        XZ       1.8020     YZ     -11.9400     ZZ    -205.4019

 Total job time:  343.08s(wall), 10640.82s(cpu)
        *  Thank you very much for using Q-Chem.  Have a nice day.  *
