 Q-Chem 5.4, Q-Chem, Inc., Pleasanton, CA (2021)
 Q-Chem 5.4.0 for Intel X86 EM64T Linux

User input:
--------------------------------------------------------------
$molecule
0 1
C	0.092419	-8.519741	0.255929
C	-0.449364	-7.635967	-0.666007
S	0.885736	-7.651740	1.592708
C	-0.254813	-6.261894	-0.332317
H	-0.980526	-7.954738	-1.571741
C	0.458965	-6.079985	0.904324
C	0.767823	-4.798382	1.385968
C	-0.681909	-5.153542	-1.118303
C	-0.369139	-3.869626	-0.638514
C	0.342916	-3.688927	0.600871
O	-1.368544	-5.481075	-2.248132
O	1.458570	-4.479871	2.520275
C	1.405396	-5.356026	3.639637
H	1.820940	-4.790496	4.495304
H	2.023129	-6.268513	3.490336
H	0.361595	-5.658187	3.873314
C	-1.480048	-4.546999	-3.314934
H	-1.899255	-5.107564	-4.171837
H	-0.490123	-4.131473	-3.601473
H	-2.171521	-3.712085	-3.068969
C	0.537642	-2.314326	0.930308
S	-0.785807	-2.295487	-1.334769
C	-0.000000	-1.435180	-0.000000
H	1.066134	-1.993211	1.836691
C	0.000000	0.000000	0.000000
S	0.579852	0.687566	1.510732
C	1.591625	1.895024	0.727629
C	0.583771	0.695758	-1.064665
C	1.475308	1.760606	-0.678287
C	0.542366	0.643841	-2.486150
C	1.355286	1.612843	-3.106916
S	2.154609	2.570627	-1.965735
C	1.522440	1.804778	-4.559972
O	0.924684	1.087757	-5.350277
O	2.349739	2.785679	-5.004375
F	-0.170780	-0.212144	-3.246290
C	2.588082	3.053936	-6.334976
H	3.298799	3.899999	-6.370268
H	1.655291	3.328371	-6.875609
H	3.026021	2.177385	-6.861878
H	2.183053	2.599759	1.321510
H	0.866272	-9.146471	-0.202590
H	-0.682165	-9.150570	0.707539
H	0.931016	-1.444158	-0.547293
$end

$rem
JOBTYPE		SP
EXCHANGE	HF
CORRELATION	pRIMP2
BASIS		cc-pvtz
METHOD		rimp2
AUX_BASIS	rimp2-cc-pvtz
SOLVENT_METHOD	PCM
PURECART	11111
SYMMETRY	false
MEM_TOTAL	110000
SCF_CONVERGENCE = 6
THRESH=10
GUI = 2
$end

$solvent
dielectric 4.90
$end
--------------------------------------------------------------

             Standard Nuclear Orientation (Angstroms)
    I     Atom           X                Y                Z
 ----------------------------------------------------------------
    1      C       0.0924190000    -8.5197410000     0.2559290000
    2      C      -0.4493640000    -7.6359670000    -0.6660070000
    3      S       0.8857360000    -7.6517400000     1.5927080000
    4      C      -0.2548130000    -6.2618940000    -0.3323170000
    5      H      -0.9805260000    -7.9547380000    -1.5717410000
    6      C       0.4589650000    -6.0799850000     0.9043240000
    7      C       0.7678230000    -4.7983820000     1.3859680000
    8      C      -0.6819090000    -5.1535420000    -1.1183030000
    9      C      -0.3691390000    -3.8696260000    -0.6385140000
   10      C       0.3429160000    -3.6889270000     0.6008710000
   11      O      -1.3685440000    -5.4810750000    -2.2481320000
   12      O       1.4585700000    -4.4798710000     2.5202750000
   13      C       1.4053960000    -5.3560260000     3.6396370000
   14      H       1.8209400000    -4.7904960000     4.4953040000
   15      H       2.0231290000    -6.2685130000     3.4903360000
   16      H       0.3615950000    -5.6581870000     3.8733140000
   17      C      -1.4800480000    -4.5469990000    -3.3149340000
   18      H      -1.8992550000    -5.1075640000    -4.1718370000
   19      H      -0.4901230000    -4.1314730000    -3.6014730000
   20      H      -2.1715210000    -3.7120850000    -3.0689690000
   21      C       0.5376420000    -2.3143260000     0.9303080000
   22      S      -0.7858070000    -2.2954870000    -1.3347690000
   23      C       0.0000000000    -1.4351800000     0.0000000000
   24      H       1.0661340000    -1.9932110000     1.8366910000
   25      C       0.0000000000     0.0000000000     0.0000000000
   26      S       0.5798520000     0.6875660000     1.5107320000
   27      C       1.5916250000     1.8950240000     0.7276290000
   28      C       0.5837710000     0.6957580000    -1.0646650000
   29      C       1.4753080000     1.7606060000    -0.6782870000
   30      C       0.5423660000     0.6438410000    -2.4861500000
   31      C       1.3552860000     1.6128430000    -3.1069160000
   32      S       2.1546090000     2.5706270000    -1.9657350000
   33      C       1.5224400000     1.8047780000    -4.5599720000
   34      O       0.9246840000     1.0877570000    -5.3502770000
   35      O       2.3497390000     2.7856790000    -5.0043750000
   36      F      -0.1707800000    -0.2121440000    -3.2462900000
   37      C       2.5880820000     3.0539360000    -6.3349760000
   38      H       3.2987990000     3.8999990000    -6.3702680000
   39      H       1.6552910000     3.3283710000    -6.8756090000
   40      H       3.0260210000     2.1773850000    -6.8618780000
   41      H       2.1830530000     2.5997590000     1.3215100000
   42      H       0.8662720000    -9.1464710000    -0.2025900000
   43      H      -0.6821650000    -9.1505700000     0.7075390000
   44      H       0.9310160000    -1.4441580000    -0.5472930000
 ----------------------------------------------------------------

   11   -2755.2911203133      7.09e-07  Convergence criterion met
 Total energy in the final basis set =    -2755.2911203133
        RIMP2         total energy =     -2760.3957992923 a.u.

                    Orbital Energies (a.u.)
 --------------------------------------------------------------

 Alpha MOs
 -- Occupied --
-92.0175 -91.9980 -91.9728 -91.9582 -26.3345 -20.6127 -20.5873 -20.5856
-20.5507 -11.4111 -11.3781 -11.3111 -11.3087 -11.3059 -11.2998 -11.2988
-11.2968 -11.2890 -11.2831 -11.2827 -11.2821 -11.2814 -11.2802 -11.2729
-11.2715 -11.2577 -11.2575 -11.2495 -11.2366  -9.0161  -9.0019  -8.9755
 -8.9608  -6.6968  -6.6961  -6.6958  -6.6831  -6.6825  -6.6812  -6.6565
 -6.6556  -6.6543  -6.6420  -6.6411  -6.6401  -1.6491  -1.4725  -1.4097
 -1.4084  -1.3679  -1.2436  -1.2081  -1.1760  -1.1450  -1.0986  -1.0528
 -1.0452  -1.0310  -1.0067  -0.9976  -0.9734  -0.9589  -0.9482  -0.9407
 -0.8927  -0.8747  -0.8595  -0.8126  -0.7938  -0.7855  -0.7772  -0.7652
 -0.7604  -0.7325  -0.7197  -0.7173  -0.6983  -0.6934  -0.6869  -0.6792
 -0.6756  -0.6737  -0.6548  -0.6480  -0.6337  -0.6288  -0.6198  -0.6145
 -0.6105  -0.6072  -0.5980  -0.5947  -0.5756  -0.5654  -0.5606  -0.5573
 -0.5507  -0.5311  -0.5293  -0.5207  -0.5123  -0.5076  -0.5043  -0.4994
 -0.4870  -0.4846  -0.4771  -0.4643  -0.4620  -0.4615  -0.4582  -0.4458
 -0.4309  -0.3970  -0.3824  -0.3694  -0.3515  -0.2939  -0.2859  -0.2153

          Ground-State Mulliken Net Atomic Charges

     Atom                 Charge (a.u.)
  ----------------------------------------
      1 C                    -0.070059
      2 C                    -0.260169
      3 S                    -0.136136
      4 C                    -0.044467
      5 H                     0.193631
      6 C                    -0.049611
      7 C                     0.221469
      8 C                     0.225099
      9 C                    -0.072770
     10 C                    -0.044822
     11 O                    -0.335597
     12 O                    -0.344402
     13 C                    -0.082511
     14 H                     0.119595
     15 H                     0.092073
     16 H                     0.092865
     17 C                    -0.087230
     18 H                     0.122900
     19 H                     0.093000
     20 H                     0.090199
     21 C                    -0.287024
     22 S                    -0.080267
     23 C                     0.059081
     24 H                     0.203861
     25 C                    -0.051036
     26 S                     0.102944
     27 C                    -0.230052
     28 C                    -0.093082
     29 C                    -0.011456
     30 C                     0.359770
     31 C                    -0.135876
     32 S                     0.051394
     33 C                     0.457615
     34 O                    -0.450015
     35 O                    -0.298325
     36 F                    -0.206607
     37 C                    -0.054763
     38 H                     0.116748
     39 H                     0.084667
     40 H                     0.084458
     41 H                     0.216251
     42 H                     0.117469
     43 H                     0.115028
     44 H                     0.206161
  ----------------------------------------
  Sum of atomic charges =     0.000000

                    Cartesian Multipole Moments
 -----------------------------------------------------------------
    Charge (ESU x 10^10)
                -0.0000
    Dipole Moment (Debye)
         X       2.8733      Y       2.8535      Z       2.7293
       Tot       4.8834
    Quadrupole Moments (Debye-Ang)
        XX    -194.1957     XY       9.9317     YY    -181.4076
        XZ      -3.6403     YZ      -4.7675     ZZ    -187.9732

 Total job time:  331.57s(wall), 10862.34s(cpu)
        *  Thank you very much for using Q-Chem.  Have a nice day.  *
