 Q-Chem 5.4, Q-Chem, Inc., Pleasanton, CA (2021)
 Q-Chem 5.4.0 for Intel X86 EM64T Linux

User input:
--------------------------------------------------------------
$molecule
0 1
C	0.135457	-8.519741	0.235993
C	-0.558188	-7.635967	-0.577858
S	1.148850	-7.651740	1.414705
C	-0.308648	-6.261894	-0.283020
H	-1.238560	-7.954738	-1.377597
C	0.609026	-6.079985	0.810887
C	0.996828	-4.798382	1.231581
C	-0.865740	-5.153542	-0.982901
C	-0.474408	-3.869626	-0.564713
C	0.442046	-3.688927	0.532196
O	-1.738137	-5.481075	-1.976332
O	1.874052	-4.479871	2.228709
C	2.016062	-5.356026	3.340298
H	2.573877	-4.790496	4.110807
H	2.598484	-6.268513	3.085998
H	1.028695	-5.658187	3.751679
C	-2.033195	-4.546999	-3.007565
H	-2.594833	-5.107564	-3.778655
H	-1.108067	-4.131473	-3.461650
H	-2.671451	-3.712085	-2.645264
C	0.691020	-2.314326	0.822814
S	-1.005649	-2.295487	-1.178037
C	-0.000000	-1.435180	-0.000000
H	1.368875	-1.993211	1.623656
C	0.000000	0.000000	0.000000
S	0.690437	0.576430	1.510732
C	1.896512	1.589852	0.727629
C	0.695720	0.583817	-1.064665
C	1.758621	1.477674	-0.678287
C	0.645928	0.539878	-2.486150
C	1.614763	1.352997	-3.106916
S	2.568261	2.157430	-1.965735
C	1.812707	1.512991	-4.559972
O	1.099523	0.910662	-5.350277
O	2.797769	2.335330	-5.004375
F	-0.205024	-0.179266	-3.246290
C	3.079074	2.558124	-6.334976
H	3.925910	3.267919	-6.370268
H	2.208109	2.990367	-6.875609
H	3.358147	1.618843	-6.861878
H	2.601331	2.181180	1.321510
H	0.817932	-9.146471	-0.349939
H	-0.548939	-9.150570	0.815247
H	0.821835	-1.444158	-0.700647
$end

$rem
JOBTYPE		SP
EXCHANGE	HF
CORRELATION	pRIMP2
BASIS		cc-pvtz
METHOD		rimp2
AUX_BASIS	rimp2-cc-pvtz
SOLVENT_METHOD	PCM
PURECART	11111
SYMMETRY	false
MEM_TOTAL	110000
SCF_CONVERGENCE = 6
THRESH=10
GUI = 2
$end

$solvent
dielectric 4.90
$end
--------------------------------------------------------------

             Standard Nuclear Orientation (Angstroms)
    I     Atom           X                Y                Z
 ----------------------------------------------------------------
    1      C       0.1354570000    -8.5197410000     0.2359930000
    2      C      -0.5581880000    -7.6359670000    -0.5778580000
    3      S       1.1488500000    -7.6517400000     1.4147050000
    4      C      -0.3086480000    -6.2618940000    -0.2830200000
    5      H      -1.2385600000    -7.9547380000    -1.3775970000
    6      C       0.6090260000    -6.0799850000     0.8108870000
    7      C       0.9968280000    -4.7983820000     1.2315810000
    8      C      -0.8657400000    -5.1535420000    -0.9829010000
    9      C      -0.4744080000    -3.8696260000    -0.5647130000
   10      C       0.4420460000    -3.6889270000     0.5321960000
   11      O      -1.7381370000    -5.4810750000    -1.9763320000
   12      O       1.8740520000    -4.4798710000     2.2287090000
   13      C       2.0160620000    -5.3560260000     3.3402980000
   14      H       2.5738770000    -4.7904960000     4.1108070000
   15      H       2.5984840000    -6.2685130000     3.0859980000
   16      H       1.0286950000    -5.6581870000     3.7516790000
   17      C      -2.0331950000    -4.5469990000    -3.0075650000
   18      H      -2.5948330000    -5.1075640000    -3.7786550000
   19      H      -1.1080670000    -4.1314730000    -3.4616500000
   20      H      -2.6714510000    -3.7120850000    -2.6452640000
   21      C       0.6910200000    -2.3143260000     0.8228140000
   22      S      -1.0056490000    -2.2954870000    -1.1780370000
   23      C       0.0000000000    -1.4351800000     0.0000000000
   24      H       1.3688750000    -1.9932110000     1.6236560000
   25      C       0.0000000000     0.0000000000     0.0000000000
   26      S       0.6904370000     0.5764300000     1.5107320000
   27      C       1.8965120000     1.5898520000     0.7276290000
   28      C       0.6957200000     0.5838170000    -1.0646650000
   29      C       1.7586210000     1.4776740000    -0.6782870000
   30      C       0.6459280000     0.5398780000    -2.4861500000
   31      C       1.6147630000     1.3529970000    -3.1069160000
   32      S       2.5682610000     2.1574300000    -1.9657350000
   33      C       1.8127070000     1.5129910000    -4.5599720000
   34      O       1.0995230000     0.9106620000    -5.3502770000
   35      O       2.7977690000     2.3353300000    -5.0043750000
   36      F      -0.2050240000    -0.1792660000    -3.2462900000
   37      C       3.0790740000     2.5581240000    -6.3349760000
   38      H       3.9259100000     3.2679190000    -6.3702680000
   39      H       2.2081090000     2.9903670000    -6.8756090000
   40      H       3.3581470000     1.6188430000    -6.8618780000
   41      H       2.6013310000     2.1811800000     1.3215100000
   42      H       0.8179320000    -9.1464710000    -0.3499390000
   43      H      -0.5489390000    -9.1505700000     0.8152470000
   44      H       0.8218350000    -1.4441580000    -0.7006470000
 ----------------------------------------------------------------

   11   -2755.2695713187      7.92e-07  Convergence criterion met
 Total energy in the final basis set =    -2755.2695713187
        RIMP2         total energy =     -2760.3810135286 a.u.

                    Orbital Energies (a.u.)
 --------------------------------------------------------------

 Alpha MOs
 -- Occupied --
-92.0196 -92.0034 -91.9701 -91.9562 -26.3349 -20.6147 -20.5866 -20.5835
-20.5543 -11.4141 -11.3779 -11.3101 -11.3078 -11.3059 -11.3022 -11.3018
-11.2974 -11.2900 -11.2857 -11.2826 -11.2815 -11.2800 -11.2777 -11.2719
-11.2700 -11.2558 -11.2535 -11.2474 -11.2316  -9.0182  -9.0070  -8.9728
 -8.9588  -6.6989  -6.6981  -6.6979  -6.6882  -6.6876  -6.6863  -6.6539
 -6.6530  -6.6517  -6.6400  -6.6391  -6.6381  -1.6489  -1.4747  -1.4088
 -1.4066  -1.3705  -1.2479  -1.2073  -1.1745  -1.1462  -1.0978  -1.0548
 -1.0435  -1.0332  -1.0057  -0.9956  -0.9754  -0.9583  -0.9472  -0.9406
 -0.8910  -0.8775  -0.8570  -0.8127  -0.7946  -0.7850  -0.7786  -0.7650
 -0.7589  -0.7319  -0.7197  -0.7178  -0.6983  -0.6920  -0.6888  -0.6809
 -0.6764  -0.6752  -0.6536  -0.6469  -0.6319  -0.6284  -0.6178  -0.6142
 -0.6101  -0.6094  -0.6012  -0.5943  -0.5752  -0.5635  -0.5593  -0.5557
 -0.5514  -0.5323  -0.5275  -0.5209  -0.5110  -0.5066  -0.5050  -0.4982
 -0.4894  -0.4852  -0.4746  -0.4650  -0.4641  -0.4616  -0.4560  -0.4438
 -0.4296  -0.3952  -0.3805  -0.3674  -0.3510  -0.2975  -0.2857  -0.2130

          Ground-State Mulliken Net Atomic Charges

     Atom                 Charge (a.u.)
  ----------------------------------------
      1 C                    -0.069088
      2 C                    -0.274483
      3 S                    -0.140873
      4 C                    -0.040496
      5 H                     0.191840
      6 C                    -0.052614
      7 C                     0.224046
      8 C                     0.217793
      9 C                    -0.066801
     10 C                    -0.058388
     11 O                    -0.336337
     12 O                    -0.344797
     13 C                    -0.082590
     14 H                     0.119061
     15 H                     0.092286
     16 H                     0.092736
     17 C                    -0.087011
     18 H                     0.122090
     19 H                     0.092226
     20 H                     0.089836
     21 C                    -0.268079
     22 S                    -0.089118
     23 C                     0.062789
     24 H                     0.204886
     25 C                    -0.107494
     26 S                     0.116466
     27 C                    -0.202526
     28 C                    -0.062350
     29 C                    -0.012979
     30 C                     0.341683
     31 C                    -0.125315
     32 S                     0.066257
     33 C                     0.457861
     34 O                    -0.444256
     35 O                    -0.297623
     36 F                    -0.206557
     37 C                    -0.054668
     38 H                     0.117179
     39 H                     0.085202
     40 H                     0.085207
     41 H                     0.218919
     42 H                     0.115504
     43 H                     0.112964
     44 H                     0.197611
  ----------------------------------------
  Sum of atomic charges =     0.000000

                    Cartesian Multipole Moments
 -----------------------------------------------------------------
    Charge (ESU x 10^10)
                -0.0000
    Dipole Moment (Debye)
         X       4.0963      Y       4.1155      Z       2.5624
       Tot       6.3469
    Quadrupole Moments (Debye-Ang)
        XX    -188.5401     XY      11.2643     YY    -191.3070
        XZ      -3.1675     YZ      -4.8943     ZZ    -187.9493

 Total job time:  332.67s(wall), 10886.79s(cpu)
        *  Thank you very much for using Q-Chem.  Have a nice day.  *
