 Q-Chem 5.4, Q-Chem, Inc., Pleasanton, CA (2021)
 Q-Chem 5.4.0 for Intel X86 EM64T Linux

User input:
--------------------------------------------------------------
$molecule
0 1
C	0.092419	-8.519741	0.255929
C	-0.449364	-7.635967	-0.666007
S	0.885736	-7.651740	1.592708
C	-0.254813	-6.261894	-0.332317
H	-0.980526	-7.954738	-1.571741
C	0.458965	-6.079985	0.904324
C	0.767823	-4.798382	1.385968
C	-0.681909	-5.153542	-1.118303
C	-0.369139	-3.869626	-0.638514
C	0.342916	-3.688927	0.600871
O	-1.368544	-5.481075	-2.248132
O	1.458570	-4.479871	2.520275
C	1.405396	-5.356026	3.639637
H	1.820940	-4.790496	4.495304
H	2.023129	-6.268513	3.490336
H	0.361595	-5.658187	3.873314
C	-1.480048	-4.546999	-3.314934
H	-1.899255	-5.107564	-4.171837
H	-0.490123	-4.131473	-3.601473
H	-2.171521	-3.712085	-3.068969
C	0.537642	-2.314326	0.930308
S	-0.785807	-2.295487	-1.334769
C	0.000000	-1.435180	0.000000
H	1.066134	-1.993211	1.836691
C	0.000000	0.000000	0.000000
S	0.309721	0.844422	1.510732
C	0.847502	2.325108	0.727629
C	0.310602	0.853460	-1.064665
C	0.784173	2.159014	-0.678287
C	0.289451	0.790512	-2.486150
C	0.721927	1.979112	-3.106916
S	1.145464	3.152519	-1.965735
C	0.813355	2.216642	-4.559972
O	0.496884	1.338418	-5.350277
O	1.255274	3.421340	-5.004375
F	-0.087923	-0.257761	-3.246290
C	1.387494	3.754937	-6.334976
H	1.765978	4.793056	-6.370268
H	0.417095	3.693789	-6.875609
H	2.098820	3.081033	-6.861878
H	1.162229	3.189623	1.321510
H	0.866272	-9.146471	-0.202590
H	-0.682165	-9.150570	0.707539
H	0.931016	-1.444158	-0.547293
$end

$rem
JOBTYPE		SP
EXCHANGE	HF
CORRELATION	pRIMP2
BASIS		cc-pvtz
METHOD		rimp2
AUX_BASIS	rimp2-cc-pvtz
SOLVENT_METHOD	PCM
PURECART	11111
SYMMETRY	false
MEM_TOTAL	110000
SCF_CONVERGENCE = 6
THRESH=10
GUI = 2
$end

$solvent
dielectric 4.90
$end
--------------------------------------------------------------

             Standard Nuclear Orientation (Angstroms)
    I     Atom           X                Y                Z
 ----------------------------------------------------------------
    1      C       0.0924190000    -8.5197410000     0.2559290000
    2      C      -0.4493640000    -7.6359670000    -0.6660070000
    3      S       0.8857360000    -7.6517400000     1.5927080000
    4      C      -0.2548130000    -6.2618940000    -0.3323170000
    5      H      -0.9805260000    -7.9547380000    -1.5717410000
    6      C       0.4589650000    -6.0799850000     0.9043240000
    7      C       0.7678230000    -4.7983820000     1.3859680000
    8      C      -0.6819090000    -5.1535420000    -1.1183030000
    9      C      -0.3691390000    -3.8696260000    -0.6385140000
   10      C       0.3429160000    -3.6889270000     0.6008710000
   11      O      -1.3685440000    -5.4810750000    -2.2481320000
   12      O       1.4585700000    -4.4798710000     2.5202750000
   13      C       1.4053960000    -5.3560260000     3.6396370000
   14      H       1.8209400000    -4.7904960000     4.4953040000
   15      H       2.0231290000    -6.2685130000     3.4903360000
   16      H       0.3615950000    -5.6581870000     3.8733140000
   17      C      -1.4800480000    -4.5469990000    -3.3149340000
   18      H      -1.8992550000    -5.1075640000    -4.1718370000
   19      H      -0.4901230000    -4.1314730000    -3.6014730000
   20      H      -2.1715210000    -3.7120850000    -3.0689690000
   21      C       0.5376420000    -2.3143260000     0.9303080000
   22      S      -0.7858070000    -2.2954870000    -1.3347690000
   23      C       0.0000000000    -1.4351800000     0.0000000000
   24      H       1.0661340000    -1.9932110000     1.8366910000
   25      C       0.0000000000     0.0000000000     0.0000000000
   26      S       0.3097210000     0.8444220000     1.5107320000
   27      C       0.8475020000     2.3251080000     0.7276290000
   28      C       0.3106020000     0.8534600000    -1.0646650000
   29      C       0.7841730000     2.1590140000    -0.6782870000
   30      C       0.2894510000     0.7905120000    -2.4861500000
   31      C       0.7219270000     1.9791120000    -3.1069160000
   32      S       1.1454640000     3.1525190000    -1.9657350000
   33      C       0.8133550000     2.2166420000    -4.5599720000
   34      O       0.4968840000     1.3384180000    -5.3502770000
   35      O       1.2552740000     3.4213400000    -5.0043750000
   36      F      -0.0879230000    -0.2577610000    -3.2462900000
   37      C       1.3874940000     3.7549370000    -6.3349760000
   38      H       1.7659780000     4.7930560000    -6.3702680000
   39      H       0.4170950000     3.6937890000    -6.8756090000
   40      H       2.0988200000     3.0810330000    -6.8618780000
   41      H       1.1622290000     3.1896230000     1.3215100000
   42      H       0.8662720000    -9.1464710000    -0.2025900000
   43      H      -0.6821650000    -9.1505700000     0.7075390000
   44      H       0.9310160000    -1.4441580000    -0.5472930000
 ----------------------------------------------------------------

   11   -2755.3172668149      6.95e-07  Convergence criterion met
 Total energy in the final basis set =    -2755.3172668149
        RIMP2         total energy =     -2760.4118807921 a.u.

                    Orbital Energies (a.u.)
 --------------------------------------------------------------

 Alpha MOs
 -- Occupied --
-92.0158 -91.9939 -91.9755 -91.9597 -26.3347 -20.6113 -20.5879 -20.5871
-20.5483 -11.4090 -11.3786 -11.3222 -11.3095 -11.3085 -11.2976 -11.2938
-11.2883 -11.2862 -11.2852 -11.2836 -11.2835 -11.2829 -11.2774 -11.2752
-11.2721 -11.2611 -11.2591 -11.2511 -11.2400  -9.0142  -8.9979  -8.9782
 -8.9623  -6.6950  -6.6944  -6.6939  -6.6792  -6.6785  -6.6772  -6.6592
 -6.6583  -6.6570  -6.6435  -6.6426  -6.6416  -1.6493  -1.4709  -1.4107
 -1.4095  -1.3660  -1.2392  -1.2093  -1.1770  -1.1435  -1.1001  -1.0510
 -1.0466  -1.0292  -1.0081  -0.9992  -0.9718  -0.9597  -0.9490  -0.9405
 -0.8941  -0.8731  -0.8621  -0.8122  -0.7931  -0.7860  -0.7773  -0.7662
 -0.7618  -0.7336  -0.7191  -0.7171  -0.6982  -0.6940  -0.6857  -0.6780
 -0.6756  -0.6718  -0.6559  -0.6489  -0.6348  -0.6298  -0.6213  -0.6153
 -0.6106  -0.6053  -0.5967  -0.5923  -0.5781  -0.5665  -0.5613  -0.5585
 -0.5505  -0.5318  -0.5286  -0.5208  -0.5134  -0.5084  -0.5044  -0.4998
 -0.4862  -0.4836  -0.4793  -0.4672  -0.4609  -0.4606  -0.4597  -0.4471
 -0.4311  -0.3987  -0.3844  -0.3711  -0.3510  -0.2927  -0.2849  -0.2182

          Ground-State Mulliken Net Atomic Charges

     Atom                 Charge (a.u.)
  ----------------------------------------
      1 C                    -0.070681
      2 C                    -0.250174
      3 S                    -0.132301
      4 C                    -0.047347
      5 H                     0.194884
      6 C                    -0.049145
      7 C                     0.219734
      8 C                     0.232215
      9 C                    -0.083005
     10 C                    -0.040033
     11 O                    -0.335194
     12 O                    -0.344070
     13 C                    -0.082469
     14 H                     0.120003
     15 H                     0.092002
     16 H                     0.092903
     17 C                    -0.087511
     18 H                     0.123504
     19 H                     0.093816
     20 H                     0.090168
     21 C                    -0.293765
     22 S                    -0.067852
     23 C                     0.067428
     24 H                     0.203403
     25 C                    -0.012601
     26 S                     0.090116
     27 C                    -0.256000
     28 C                    -0.115717
     29 C                    -0.007635
     30 C                     0.379150
     31 C                    -0.146503
     32 S                     0.037574
     33 C                     0.458290
     34 O                    -0.454003
     35 O                    -0.298582
     36 F                    -0.208042
     37 C                    -0.054982
     38 H                     0.116440
     39 H                     0.084257
     40 H                     0.084022
     41 H                     0.214160
     42 H                     0.118850
     43 H                     0.116421
     44 H                     0.208274
  ----------------------------------------
  Sum of atomic charges =     0.000000

                    Cartesian Multipole Moments
 -----------------------------------------------------------------
    Charge (ESU x 10^10)
                -0.0000
    Dipole Moment (Debye)
         X       1.4617      Y       2.0176      Z       2.7452
       Tot       3.7072
    Quadrupole Moments (Debye-Ang)
        XX    -199.1635     XY       6.7256     YY    -172.2538
        XZ       0.0128     YZ      -5.8362     ZZ    -189.1599

 Total job time:  330.95s(wall), 10643.41s(cpu)
        *  Thank you very much for using Q-Chem.  Have a nice day.  *
