 Q-Chem 5.4, Q-Chem, Inc., Pleasanton, CA (2021)
 Q-Chem 5.4.0 for Intel X86 EM64T Linux

User input:
--------------------------------------------------------------
$molecule
0 1
C	0.235993	-8.519741	-0.135457
C	-0.577858	-7.635967	0.558188
S	1.414705	-7.651740	-1.148850
C	-0.283020	-6.261894	0.308648
H	-1.377597	-7.954738	1.238560
C	0.810887	-6.079985	-0.609026
C	1.231581	-4.798382	-0.996828
C	-0.982901	-5.153542	0.865740
C	-0.564713	-3.869626	0.474408
C	0.532196	-3.688927	-0.442046
O	-1.976332	-5.481075	1.738137
O	2.228709	-4.479871	-1.874052
C	3.340298	-5.356026	-2.016062
H	4.110807	-4.790496	-2.573877
H	3.085998	-6.268513	-2.598484
H	3.751679	-5.658187	-1.028695
C	-3.007565	-4.546999	2.033195
H	-3.778655	-5.107564	2.594833
H	-3.461650	-4.131473	1.108067
H	-2.645264	-3.712085	2.671451
C	0.822814	-2.314326	-0.691020
S	-1.178037	-2.295487	1.005649
C	-0.000000	-1.435180	-0.000000
H	1.623656	-1.993211	-1.368875
C	0.000000	0.000000	0.000000
S	0.690437	0.576430	1.510732
C	1.896512	1.589852	0.727629
C	0.695720	0.583817	-1.064665
C	1.758621	1.477674	-0.678287
C	0.645928	0.539878	-2.486150
C	1.614763	1.352997	-3.106916
S	2.568261	2.157430	-1.965735
C	1.812707	1.512991	-4.559972
O	1.099523	0.910662	-5.350277
O	2.797769	2.335330	-5.004375
F	-0.205024	-0.179266	-3.246290
C	3.079074	2.558124	-6.334976
H	3.925910	3.267919	-6.370268
H	2.208109	2.990367	-6.875609
H	3.358147	1.618843	-6.861878
H	2.601331	2.181180	1.321510
H	-0.349939	-9.146471	-0.817932
H	0.815247	-9.150570	0.548939
H	-0.700647	-1.444158	-0.821835
$end

$rem
JOBTYPE		SP
EXCHANGE	HF
CORRELATION	pRIMP2
BASIS		cc-pvtz
METHOD		rimp2
AUX_BASIS	rimp2-cc-pvtz
SOLVENT_METHOD	PCM
PURECART	11111
SYMMETRY	false
MEM_TOTAL	110000
SCF_CONVERGENCE = 6
THRESH=10
GUI = 2
$end

$solvent
dielectric 4.90
$end
--------------------------------------------------------------

             Standard Nuclear Orientation (Angstroms)
    I     Atom           X                Y                Z
 ----------------------------------------------------------------
    1      C       0.2359930000    -8.5197410000    -0.1354570000
    2      C      -0.5778580000    -7.6359670000     0.5581880000
    3      S       1.4147050000    -7.6517400000    -1.1488500000
    4      C      -0.2830200000    -6.2618940000     0.3086480000
    5      H      -1.3775970000    -7.9547380000     1.2385600000
    6      C       0.8108870000    -6.0799850000    -0.6090260000
    7      C       1.2315810000    -4.7983820000    -0.9968280000
    8      C      -0.9829010000    -5.1535420000     0.8657400000
    9      C      -0.5647130000    -3.8696260000     0.4744080000
   10      C       0.5321960000    -3.6889270000    -0.4420460000
   11      O      -1.9763320000    -5.4810750000     1.7381370000
   12      O       2.2287090000    -4.4798710000    -1.8740520000
   13      C       3.3402980000    -5.3560260000    -2.0160620000
   14      H       4.1108070000    -4.7904960000    -2.5738770000
   15      H       3.0859980000    -6.2685130000    -2.5984840000
   16      H       3.7516790000    -5.6581870000    -1.0286950000
   17      C      -3.0075650000    -4.5469990000     2.0331950000
   18      H      -3.7786550000    -5.1075640000     2.5948330000
   19      H      -3.4616500000    -4.1314730000     1.1080670000
   20      H      -2.6452640000    -3.7120850000     2.6714510000
   21      C       0.8228140000    -2.3143260000    -0.6910200000
   22      S      -1.1780370000    -2.2954870000     1.0056490000
   23      C       0.0000000000    -1.4351800000     0.0000000000
   24      H       1.6236560000    -1.9932110000    -1.3688750000
   25      C       0.0000000000     0.0000000000     0.0000000000
   26      S       0.6904370000     0.5764300000     1.5107320000
   27      C       1.8965120000     1.5898520000     0.7276290000
   28      C       0.6957200000     0.5838170000    -1.0646650000
   29      C       1.7586210000     1.4776740000    -0.6782870000
   30      C       0.6459280000     0.5398780000    -2.4861500000
   31      C       1.6147630000     1.3529970000    -3.1069160000
   32      S       2.5682610000     2.1574300000    -1.9657350000
   33      C       1.8127070000     1.5129910000    -4.5599720000
   34      O       1.0995230000     0.9106620000    -5.3502770000
   35      O       2.7977690000     2.3353300000    -5.0043750000
   36      F      -0.2050240000    -0.1792660000    -3.2462900000
   37      C       3.0790740000     2.5581240000    -6.3349760000
   38      H       3.9259100000     3.2679190000    -6.3702680000
   39      H       2.2081090000     2.9903670000    -6.8756090000
   40      H       3.3581470000     1.6188430000    -6.8618780000
   41      H       2.6013310000     2.1811800000     1.3215100000
   42      H      -0.3499390000    -9.1464710000    -0.8179320000
   43      H       0.8152470000    -9.1505700000     0.5489390000
   44      H      -0.7006470000    -1.4441580000    -0.8218350000
 ----------------------------------------------------------------

   11   -2755.2825155677      7.04e-07  Convergence criterion met
 Total energy in the final basis set =    -2755.2825155677
        RIMP2         total energy =     -2760.3895483672 a.u.

                    Orbital Energies (a.u.)
 --------------------------------------------------------------

 Alpha MOs
 -- Occupied --
-92.0117 -92.0047 -91.9745 -91.9562 -26.3385 -20.6160 -20.5863 -20.5850
-20.5564 -11.4160 -11.3794 -11.3163 -11.3098 -11.3080 -11.3041 -11.3019
-11.2934 -11.2906 -11.2882 -11.2831 -11.2821 -11.2811 -11.2757 -11.2721
-11.2701 -11.2563 -11.2543 -11.2477 -11.2327  -9.0110  -9.0084  -8.9767
 -8.9589  -6.6917  -6.6908  -6.6906  -6.6896  -6.6889  -6.6876  -6.6578
 -6.6570  -6.6557  -6.6401  -6.6392  -6.6382  -1.6516  -1.4761  -1.4088
 -1.4077  -1.3721  -1.2462  -1.2071  -1.1740  -1.1462  -1.0985  -1.0555
 -1.0442  -1.0328  -1.0070  -0.9961  -0.9753  -0.9595  -0.9479  -0.9413
 -0.8923  -0.8770  -0.8591  -0.8080  -0.7976  -0.7845  -0.7797  -0.7734
 -0.7597  -0.7337  -0.7217  -0.7177  -0.6975  -0.6938  -0.6854  -0.6820
 -0.6780  -0.6732  -0.6546  -0.6474  -0.6359  -0.6264  -0.6182  -0.6143
 -0.6112  -0.6110  -0.6024  -0.5939  -0.5799  -0.5673  -0.5567  -0.5561
 -0.5424  -0.5332  -0.5284  -0.5228  -0.5115  -0.5065  -0.5060  -0.5002
 -0.4906  -0.4827  -0.4701  -0.4684  -0.4647  -0.4642  -0.4571  -0.4440
 -0.4220  -0.3993  -0.3828  -0.3679  -0.3513  -0.2999  -0.2872  -0.2158

          Ground-State Mulliken Net Atomic Charges

     Atom                 Charge (a.u.)
  ----------------------------------------
      1 C                    -0.069401
      2 C                    -0.271540
      3 S                    -0.139703
      4 C                    -0.042812
      5 H                     0.191917
      6 C                    -0.053941
      7 C                     0.225825
      8 C                     0.225884
      9 C                    -0.070678
     10 C                    -0.047932
     11 O                    -0.335615
     12 O                    -0.343865
     13 C                    -0.082680
     14 H                     0.119479
     15 H                     0.092469
     16 H                     0.092359
     17 C                    -0.087047
     18 H                     0.123451
     19 H                     0.092147
     20 H                     0.089671
     21 C                    -0.289046
     22 S                    -0.099966
     23 C                     0.089740
     24 H                     0.203316
     25 C                    -0.146843
     26 S                     0.113675
     27 C                    -0.173835
     28 C                    -0.089896
     29 C                    -0.018647
     30 C                     0.377591
     31 C                    -0.125516
     32 S                     0.067073
     33 C                     0.459141
     34 O                    -0.441038
     35 O                    -0.297002
     36 F                    -0.212846
     37 C                    -0.054661
     38 H                     0.117484
     39 H                     0.085630
     40 H                     0.085655
     41 H                     0.218245
     42 H                     0.115873
     43 H                     0.113288
     44 H                     0.194597
  ----------------------------------------
  Sum of atomic charges =     0.000000

                    Cartesian Multipole Moments
 -----------------------------------------------------------------
    Charge (ESU x 10^10)
                 0.0000
    Dipole Moment (Debye)
         X       3.5912      Y       4.2036      Z       2.2066
       Tot       5.9528
    Quadrupole Moments (Debye-Ang)
        XX    -174.1220     XY      12.3458     YY    -188.6641
        XZ     -15.7339     YZ     -10.1193     ZZ    -201.1391

 Total job time:  335.44s(wall), 10672.59s(cpu)
        *  Thank you very much for using Q-Chem.  Have a nice day.  *
