 Q-Chem 5.4, Q-Chem, Inc., Pleasanton, CA (2021)
 Q-Chem 5.4.0 for Intel X86 EM64T Linux

User input:
--------------------------------------------------------------
$molecule
0 1
C	0.174379	-8.519741	0.208886
C	-0.650052	-7.635967	-0.472151
S	1.377058	-7.651740	1.193717
C	-0.353105	-6.261894	-0.225125
H	-1.458961	-7.954738	-1.141594
C	0.740583	-6.079985	0.692811
C	1.195546	-4.798382	1.039773
C	-1.023267	-5.153542	-0.817634
C	-0.565262	-3.869626	-0.473754
C	0.527745	-3.688927	0.447350
O	-2.054917	-5.481075	-1.644483
O	2.232592	-4.479871	1.869424
C	2.565470	-5.356026	2.939466
H	3.248608	-4.790496	3.601405
H	3.094885	-6.268513	2.587892
H	1.664539	-5.658187	3.516052
C	-2.524564	-4.546999	-2.608813
H	-3.211568	-5.107564	-3.270661
H	-1.692342	-4.131473	-3.216646
H	-3.090211	-3.712085	-2.141184
C	0.823402	-2.314326	0.690319
S	-1.194935	-2.295487	-0.985511
C	-0.000000	-1.435180	-0.000000
H	1.630024	-1.993211	1.361286
C	0.000000	0.000000	0.000000
S	0.690437	0.576430	1.510732
C	1.896512	1.589852	0.727629
C	0.695720	0.583817	-1.064665
C	1.758621	1.477674	-0.678287
C	0.645928	0.539878	-2.486150
C	1.614763	1.352997	-3.106916
S	2.568261	2.157430	-1.965735
C	1.812707	1.512991	-4.559972
O	1.099523	0.910662	-5.350277
O	2.797769	2.335330	-5.004375
F	-0.205024	-0.179266	-3.246290
C	3.079074	2.558124	-6.334976
H	3.925910	3.267919	-6.370268
H	2.208109	2.990367	-6.875609
H	3.358147	1.618843	-6.861878
H	2.601331	2.181180	1.321510
H	0.744739	-9.146471	-0.486655
H	-0.399033	-9.150570	0.898184
H	0.687683	-1.444158	-0.832713
$end

$rem
JOBTYPE		SP
EXCHANGE	HF
CORRELATION	pRIMP2
BASIS		cc-pvtz
METHOD		rimp2
AUX_BASIS	rimp2-cc-pvtz
SOLVENT_METHOD	PCM
PURECART	11111
SYMMETRY	false
MEM_TOTAL	110000
SCF_CONVERGENCE = 6
THRESH=10
GUI = 2
$end

$solvent
dielectric 4.90
$end
--------------------------------------------------------------

             Standard Nuclear Orientation (Angstroms)
    I     Atom           X                Y                Z
 ----------------------------------------------------------------
    1      C       0.1743790000    -8.5197410000     0.2088860000
    2      C      -0.6500520000    -7.6359670000    -0.4721510000
    3      S       1.3770580000    -7.6517400000     1.1937170000
    4      C      -0.3531050000    -6.2618940000    -0.2251250000
    5      H      -1.4589610000    -7.9547380000    -1.1415940000
    6      C       0.7405830000    -6.0799850000     0.6928110000
    7      C       1.1955460000    -4.7983820000     1.0397730000
    8      C      -1.0232670000    -5.1535420000    -0.8176340000
    9      C      -0.5652620000    -3.8696260000    -0.4737540000
   10      C       0.5277450000    -3.6889270000     0.4473500000
   11      O      -2.0549170000    -5.4810750000    -1.6444830000
   12      O       2.2325920000    -4.4798710000     1.8694240000
   13      C       2.5654700000    -5.3560260000     2.9394660000
   14      H       3.2486080000    -4.7904960000     3.6014050000
   15      H       3.0948850000    -6.2685130000     2.5878920000
   16      H       1.6645390000    -5.6581870000     3.5160520000
   17      C      -2.5245640000    -4.5469990000    -2.6088130000
   18      H      -3.2115680000    -5.1075640000    -3.2706610000
   19      H      -1.6923420000    -4.1314730000    -3.2166460000
   20      H      -3.0902110000    -3.7120850000    -2.1411840000
   21      C       0.8234020000    -2.3143260000     0.6903190000
   22      S      -1.1949350000    -2.2954870000    -0.9855110000
   23      C       0.0000000000    -1.4351800000     0.0000000000
   24      H       1.6300240000    -1.9932110000     1.3612860000
   25      C       0.0000000000     0.0000000000     0.0000000000
   26      S       0.6904370000     0.5764300000     1.5107320000
   27      C       1.8965120000     1.5898520000     0.7276290000
   28      C       0.6957200000     0.5838170000    -1.0646650000
   29      C       1.7586210000     1.4776740000    -0.6782870000
   30      C       0.6459280000     0.5398780000    -2.4861500000
   31      C       1.6147630000     1.3529970000    -3.1069160000
   32      S       2.5682610000     2.1574300000    -1.9657350000
   33      C       1.8127070000     1.5129910000    -4.5599720000
   34      O       1.0995230000     0.9106620000    -5.3502770000
   35      O       2.7977690000     2.3353300000    -5.0043750000
   36      F      -0.2050240000    -0.1792660000    -3.2462900000
   37      C       3.0790740000     2.5581240000    -6.3349760000
   38      H       3.9259100000     3.2679190000    -6.3702680000
   39      H       2.2081090000     2.9903670000    -6.8756090000
   40      H       3.3581470000     1.6188430000    -6.8618780000
   41      H       2.6013310000     2.1811800000     1.3215100000
   42      H       0.7447390000    -9.1464710000    -0.4866550000
   43      H      -0.3990330000    -9.1505700000     0.8981840000
   44      H       0.6876830000    -1.4441580000    -0.8327130000
 ----------------------------------------------------------------

   11   -2755.2708122899      7.72e-07  Convergence criterion met
 Total energy in the final basis set =    -2755.2708122899
        RIMP2         total energy =     -2760.3811190790 a.u.

                    Orbital Energies (a.u.)
 --------------------------------------------------------------

 Alpha MOs
 -- Occupied --
-92.0191 -92.0046 -91.9691 -91.9560 -26.3358 -20.6155 -20.5865 -20.5831
-20.5556 -11.4152 -11.3781 -11.3129 -11.3083 -11.3077 -11.3017 -11.3015
-11.2936 -11.2904 -11.2880 -11.2825 -11.2813 -11.2796 -11.2759 -11.2720
-11.2698 -11.2555 -11.2533 -11.2472 -11.2310  -9.0177  -9.0082  -8.9717
 -8.9586  -6.6983  -6.6976  -6.6974  -6.6894  -6.6887  -6.6875  -6.6528
 -6.6519  -6.6507  -6.6399  -6.6389  -6.6379  -1.6494  -1.4755  -1.4086
 -1.4062  -1.3714  -1.2480  -1.2069  -1.1741  -1.1463  -1.0979  -1.0553
 -1.0431  -1.0335  -1.0058  -0.9950  -0.9758  -0.9583  -0.9471  -0.9406
 -0.8905  -0.8780  -0.8571  -0.8123  -0.7950  -0.7848  -0.7796  -0.7659
 -0.7589  -0.7320  -0.7196  -0.7183  -0.6980  -0.6916  -0.6893  -0.6815
 -0.6769  -0.6753  -0.6534  -0.6467  -0.6304  -0.6287  -0.6176  -0.6144
 -0.6107  -0.6095  -0.6017  -0.5943  -0.5760  -0.5629  -0.5579  -0.5553
 -0.5522  -0.5323  -0.5267  -0.5208  -0.5108  -0.5063  -0.5052  -0.4981
 -0.4906  -0.4854  -0.4737  -0.4659  -0.4647  -0.4622  -0.4559  -0.4434
 -0.4282  -0.3951  -0.3807  -0.3671  -0.3501  -0.2989  -0.2856  -0.2138

          Ground-State Mulliken Net Atomic Charges

     Atom                 Charge (a.u.)
  ----------------------------------------
      1 C                    -0.069002
      2 C                    -0.276002
      3 S                    -0.141258
      4 C                    -0.039947
      5 H                     0.191622
      6 C                    -0.053577
      7 C                     0.224467
      8 C                     0.216573
      9 C                    -0.066926
     10 C                    -0.060758
     11 O                    -0.336614
     12 O                    -0.344683
     13 C                    -0.082479
     14 H                     0.119015
     15 H                     0.092139
     16 H                     0.092762
     17 C                    -0.086778
     18 H                     0.121845
     19 H                     0.092254
     20 H                     0.089700
     21 C                    -0.265400
     22 S                    -0.091500
     23 C                     0.063284
     24 H                     0.205607
     25 C                    -0.119879
     26 S                     0.115884
     27 C                    -0.193695
     28 C                    -0.052927
     29 C                    -0.011953
     30 C                     0.335001
     31 C                    -0.123296
     32 S                     0.069050
     33 C                     0.458080
     34 O                    -0.442158
     35 O                    -0.297262
     36 F                    -0.208010
     37 C                    -0.054641
     38 H                     0.117350
     39 H                     0.085419
     40 H                     0.085466
     41 H                     0.219197
     42 H                     0.115290
     43 H                     0.112806
     44 H                     0.195934
  ----------------------------------------
  Sum of atomic charges =     0.000000

                    Cartesian Multipole Moments
 -----------------------------------------------------------------
    Charge (ESU x 10^10)
                 0.0000
    Dipole Moment (Debye)
         X       4.2474      Y       4.4438      Z       2.4087
       Tot       6.6023
    Quadrupole Moments (Debye-Ang)
        XX    -185.8403     XY      11.8066     YY    -191.8970
        XZ      -1.5590     YZ      -5.7336     ZZ    -189.8887

 Total job time:  329.19s(wall), 10712.36s(cpu)
        *  Thank you very much for using Q-Chem.  Have a nice day.  *
