 Q-Chem 5.4, Q-Chem, Inc., Pleasanton, CA (2021)
 Q-Chem 5.4.0 for Intel X86 EM64T Linux

User input:
--------------------------------------------------------------
$molecule
0 1
C	-0.272104	-8.519741	-0.000687
C	0.779533	-7.635967	-0.194476
S	-1.799596	-7.651740	0.287581
C	0.399427	-6.261894	-0.125787
H	1.812314	-7.954738	-0.383826
C	-1.006762	-6.079985	0.121989
C	-1.564994	-4.798382	0.247488
C	1.284087	-5.153542	-0.258303
C	0.726260	-3.869626	-0.128493
C	-0.681918	-3.688927	0.116725
O	2.580622	-5.481075	-0.517104
O	-2.867144	-4.479871	0.508622
C	-3.900814	-5.356026	0.075811
H	-4.847002	-4.790496	0.173640
H	-3.971794	-6.268513	0.707354
H	-3.763397	-5.658187	-0.984963
C	3.621225	-4.546999	-0.257016
H	4.569828	-5.107564	-0.357864
H	3.551910	-4.131473	0.771211
H	3.626592	-3.712085	-0.990913
C	-1.058088	-2.314326	0.187034
S	1.523035	-2.295487	-0.281899
C	0.000000	-1.435180	0.000000
H	-2.090565	-1.993211	0.373653
C	0.000000	0.000000	0.000000
S	0.002233	0.899428	1.510732
C	0.001157	2.474749	0.727629
C	-0.000030	0.908223	-1.064665
C	-0.001545	2.297013	-0.678287
C	0.001624	0.841837	-2.486150
C	0.001494	2.106670	-3.106916
S	-0.001841	3.354171	-1.965735
C	0.006168	2.361146	-4.559972
O	0.009152	1.427646	-5.350277
O	0.009405	3.644337	-5.004375
F	0.005539	-0.272288	-3.246290
C	0.019554	4.003038	-6.334976
H	0.020155	5.108000	-6.370268
H	-0.871409	3.613681	-6.875609
H	0.918470	3.613062	-6.861878
H	0.001222	3.394771	1.321510
H	-0.105910	-9.146471	0.883319
H	-0.431555	-9.150570	-0.883019
H	0.195861	-1.444158	1.062054
$end

$rem
JOBTYPE		SP
EXCHANGE	HF
CORRELATION	pRIMP2
BASIS		cc-pvtz
METHOD		rimp2
AUX_BASIS	rimp2-cc-pvtz
SOLVENT_METHOD	PCM
PURECART	11111
SYMMETRY	false
MEM_TOTAL	110000
SCF_CONVERGENCE = 6
THRESH=10
GUI = 2
$end

$solvent
dielectric 4.90
$end
--------------------------------------------------------------

             Standard Nuclear Orientation (Angstroms)
    I     Atom           X                Y                Z
 ----------------------------------------------------------------
    1      C      -0.2721040000    -8.5197410000    -0.0006870000
    2      C       0.7795330000    -7.6359670000    -0.1944760000
    3      S      -1.7995960000    -7.6517400000     0.2875810000
    4      C       0.3994270000    -6.2618940000    -0.1257870000
    5      H       1.8123140000    -7.9547380000    -0.3838260000
    6      C      -1.0067620000    -6.0799850000     0.1219890000
    7      C      -1.5649940000    -4.7983820000     0.2474880000
    8      C       1.2840870000    -5.1535420000    -0.2583030000
    9      C       0.7262600000    -3.8696260000    -0.1284930000
   10      C      -0.6819180000    -3.6889270000     0.1167250000
   11      O       2.5806220000    -5.4810750000    -0.5171040000
   12      O      -2.8671440000    -4.4798710000     0.5086220000
   13      C      -3.9008140000    -5.3560260000     0.0758110000
   14      H      -4.8470020000    -4.7904960000     0.1736400000
   15      H      -3.9717940000    -6.2685130000     0.7073540000
   16      H      -3.7633970000    -5.6581870000    -0.9849630000
   17      C       3.6212250000    -4.5469990000    -0.2570160000
   18      H       4.5698280000    -5.1075640000    -0.3578640000
   19      H       3.5519100000    -4.1314730000     0.7712110000
   20      H       3.6265920000    -3.7120850000    -0.9909130000
   21      C      -1.0580880000    -2.3143260000     0.1870340000
   22      S       1.5230350000    -2.2954870000    -0.2818990000
   23      C       0.0000000000    -1.4351800000     0.0000000000
   24      H      -2.0905650000    -1.9932110000     0.3736530000
   25      C       0.0000000000     0.0000000000     0.0000000000
   26      S       0.0022330000     0.8994280000     1.5107320000
   27      C       0.0011570000     2.4747490000     0.7276290000
   28      C      -0.0000300000     0.9082230000    -1.0646650000
   29      C      -0.0015450000     2.2970130000    -0.6782870000
   30      C       0.0016240000     0.8418370000    -2.4861500000
   31      C       0.0014940000     2.1066700000    -3.1069160000
   32      S      -0.0018410000     3.3541710000    -1.9657350000
   33      C       0.0061680000     2.3611460000    -4.5599720000
   34      O       0.0091520000     1.4276460000    -5.3502770000
   35      O       0.0094050000     3.6443370000    -5.0043750000
   36      F       0.0055390000    -0.2722880000    -3.2462900000
   37      C       0.0195540000     4.0030380000    -6.3349760000
   38      H       0.0201550000     5.1080000000    -6.3702680000
   39      H      -0.8714090000     3.6136810000    -6.8756090000
   40      H       0.9184700000     3.6130620000    -6.8618780000
   41      H       0.0012220000     3.3947710000     1.3215100000
   42      H      -0.1059100000    -9.1464710000     0.8833190000
   43      H      -0.4315550000    -9.1505700000    -0.8830190000
   44      H       0.1958610000    -1.4441580000     1.0620540000
 ----------------------------------------------------------------

   11   -2755.3267209683      7.59e-07  Convergence criterion met
 Total energy in the final basis set =    -2755.3267209683
        RIMP2         total energy =     -2760.4165662012 a.u.

                    Orbital Energies (a.u.)
 --------------------------------------------------------------

 Alpha MOs
 -- Occupied --
-92.0197 -91.9955 -91.9774 -91.9579 -26.3351 -20.6127 -20.5871 -20.5865
-20.5510 -11.4111 -11.3777 -11.3122 -11.3089 -11.3069 -11.2989 -11.2978
-11.2962 -11.2888 -11.2841 -11.2827 -11.2826 -11.2811 -11.2811 -11.2727
-11.2726 -11.2579 -11.2576 -11.2493 -11.2365  -9.0180  -8.9996  -8.9796
 -8.9605  -6.6987  -6.6981  -6.6976  -6.6809  -6.6802  -6.6789  -6.6607
 -6.6598  -6.6585  -6.6418  -6.6408  -6.6398  -1.6479  -1.4725  -1.4100
 -1.4087  -1.3678  -1.2378  -1.2089  -1.1751  -1.1440  -1.0991  -1.0501
 -1.0455  -1.0313  -1.0083  -0.9974  -0.9726  -0.9594  -0.9484  -0.9405
 -0.8930  -0.8714  -0.8647  -0.8090  -0.7929  -0.7849  -0.7772  -0.7743
 -0.7654  -0.7331  -0.7213  -0.7161  -0.6970  -0.6923  -0.6816  -0.6790
 -0.6724  -0.6642  -0.6561  -0.6483  -0.6334  -0.6292  -0.6197  -0.6146
 -0.6106  -0.6071  -0.5957  -0.5926  -0.5827  -0.5646  -0.5600  -0.5553
 -0.5504  -0.5342  -0.5278  -0.5218  -0.5127  -0.5073  -0.5035  -0.5016
 -0.4875  -0.4862  -0.4776  -0.4693  -0.4620  -0.4618  -0.4610  -0.4462
 -0.4232  -0.4028  -0.3853  -0.3700  -0.3512  -0.2922  -0.2892  -0.2209

          Ground-State Mulliken Net Atomic Charges

     Atom                 Charge (a.u.)
  ----------------------------------------
      1 C                    -0.070203
      2 C                    -0.259835
      3 S                    -0.135874
      4 C                    -0.044100
      5 H                     0.193392
      6 C                    -0.052370
      7 C                     0.227962
      8 C                     0.226298
      9 C                    -0.080020
     10 C                    -0.059689
     11 O                    -0.334947
     12 O                    -0.343586
     13 C                    -0.082508
     14 H                     0.119826
     15 H                     0.091763
     16 H                     0.093334
     17 C                    -0.086275
     18 H                     0.122972
     19 H                     0.091624
     20 H                     0.091008
     21 C                    -0.245280
     22 S                    -0.071233
     23 C                     0.071867
     24 H                     0.204160
     25 C                    -0.093766
     26 S                     0.103056
     27 C                    -0.239801
     28 C                    -0.080722
     29 C                    -0.004030
     30 C                     0.399286
     31 C                    -0.157055
     32 S                     0.038778
     33 C                     0.460448
     34 O                    -0.448688
     35 O                    -0.297639
     36 F                    -0.212065
     37 C                    -0.055083
     38 H                     0.116657
     39 H                     0.084774
     40 H                     0.084739
     41 H                     0.216780
     42 H                     0.117125
     43 H                     0.115119
     44 H                     0.183801
  ----------------------------------------
  Sum of atomic charges =     0.000000

                    Cartesian Multipole Moments
 -----------------------------------------------------------------
    Charge (ESU x 10^10)
                -0.0000
    Dipole Moment (Debye)
         X       0.2271      Y       3.8003      Z       3.7194
       Tot       5.3224
    Quadrupole Moments (Debye-Ang)
        XX    -183.4802     XY      -3.6433     YY    -174.5618
        XZ       2.7584     YZ     -10.0672     ZZ    -205.5094

 Total job time:  338.81s(wall), 11114.79s(cpu)
        *  Thank you very much for using Q-Chem.  Have a nice day.  *
