 Q-Chem 5.4, Q-Chem, Inc., Pleasanton, CA (2021)
 Q-Chem 5.4.0 for Intel X86 EM64T Linux

User input:
--------------------------------------------------------------
$molecule
0 1
C	0.093711	-8.519741	-0.255459
C	-0.083869	-7.635967	0.799036
S	0.345260	-7.651740	-1.789425
C	-0.018411	-6.261894	0.418360
H	-0.259169	-7.954738	1.834294
C	0.229701	-6.079985	-0.987769
C	0.302697	-4.798382	-1.555260
C	-0.196459	-5.153542	1.294992
C	-0.127651	-3.869626	0.726408
C	0.123544	-3.688927	-0.680716
O	-0.396706	-5.481075	2.601852
O	0.502673	-4.479871	-2.868193
C	1.262918	-5.356026	-3.691495
H	1.494604	-4.790496	-4.614080
H	0.693738	-6.268513	-3.974195
H	2.212720	-5.658187	-3.199559
C	-0.997016	-4.546999	3.490743
H	-1.226691	-5.107564	4.416630
H	-1.939526	-4.131473	3.073934
H	-0.309214	-3.712085	3.746794
C	0.186133	-2.314326	-1.058247
S	-0.256010	-2.295487	1.527599
C	0.000000	-1.435180	0.000000
H	0.363896	-1.993211	-2.092285
C	0.000000	0.000000	0.000000
S	0.309721	0.844422	1.510732
C	0.847502	2.325108	0.727629
C	0.310602	0.853460	-1.064665
C	0.784173	2.159014	-0.678287
C	0.289451	0.790512	-2.486150
C	0.721927	1.979112	-3.106916
S	1.145464	3.152519	-1.965735
C	0.813355	2.216642	-4.559972
O	0.496884	1.338418	-5.350277
O	1.255274	3.421340	-5.004375
F	-0.087923	-0.257761	-3.246290
C	1.387494	3.754937	-6.334976
H	1.765978	4.793056	-6.370268
H	0.417095	3.693789	-6.875609
H	2.098820	3.081033	-6.861878
H	1.162229	3.189623	1.321510
H	-0.793825	-9.146471	-0.401636
H	0.977367	-9.150570	-0.103519
H	-1.064992	-1.444158	-0.179195
$end

$rem
JOBTYPE		SP
EXCHANGE	HF
CORRELATION	pRIMP2
BASIS		cc-pvtz
METHOD		rimp2
AUX_BASIS	rimp2-cc-pvtz
SOLVENT_METHOD	PCM
PURECART	11111
SYMMETRY	false
MEM_TOTAL	110000
SCF_CONVERGENCE = 6
THRESH=10
GUI = 2
$end

$solvent
dielectric 4.90
$end
--------------------------------------------------------------

             Standard Nuclear Orientation (Angstroms)
    I     Atom           X                Y                Z
 ----------------------------------------------------------------
    1      C       0.0937110000    -8.5197410000    -0.2554590000
    2      C      -0.0838690000    -7.6359670000     0.7990360000
    3      S       0.3452600000    -7.6517400000    -1.7894250000
    4      C      -0.0184110000    -6.2618940000     0.4183600000
    5      H      -0.2591690000    -7.9547380000     1.8342940000
    6      C       0.2297010000    -6.0799850000    -0.9877690000
    7      C       0.3026970000    -4.7983820000    -1.5552600000
    8      C      -0.1964590000    -5.1535420000     1.2949920000
    9      C      -0.1276510000    -3.8696260000     0.7264080000
   10      C       0.1235440000    -3.6889270000    -0.6807160000
   11      O      -0.3967060000    -5.4810750000     2.6018520000
   12      O       0.5026730000    -4.4798710000    -2.8681930000
   13      C       1.2629180000    -5.3560260000    -3.6914950000
   14      H       1.4946040000    -4.7904960000    -4.6140800000
   15      H       0.6937380000    -6.2685130000    -3.9741950000
   16      H       2.2127200000    -5.6581870000    -3.1995590000
   17      C      -0.9970160000    -4.5469990000     3.4907430000
   18      H      -1.2266910000    -5.1075640000     4.4166300000
   19      H      -1.9395260000    -4.1314730000     3.0739340000
   20      H      -0.3092140000    -3.7120850000     3.7467940000
   21      C       0.1861330000    -2.3143260000    -1.0582470000
   22      S      -0.2560100000    -2.2954870000     1.5275990000
   23      C       0.0000000000    -1.4351800000     0.0000000000
   24      H       0.3638960000    -1.9932110000    -2.0922850000
   25      C       0.0000000000     0.0000000000     0.0000000000
   26      S       0.3097210000     0.8444220000     1.5107320000
   27      C       0.8475020000     2.3251080000     0.7276290000
   28      C       0.3106020000     0.8534600000    -1.0646650000
   29      C       0.7841730000     2.1590140000    -0.6782870000
   30      C       0.2894510000     0.7905120000    -2.4861500000
   31      C       0.7219270000     1.9791120000    -3.1069160000
   32      S       1.1454640000     3.1525190000    -1.9657350000
   33      C       0.8133550000     2.2166420000    -4.5599720000
   34      O       0.4968840000     1.3384180000    -5.3502770000
   35      O       1.2552740000     3.4213400000    -5.0043750000
   36      F      -0.0879230000    -0.2577610000    -3.2462900000
   37      C       1.3874940000     3.7549370000    -6.3349760000
   38      H       1.7659780000     4.7930560000    -6.3702680000
   39      H       0.4170950000     3.6937890000    -6.8756090000
   40      H       2.0988200000     3.0810330000    -6.8618780000
   41      H       1.1622290000     3.1896230000     1.3215100000
   42      H      -0.7938250000    -9.1464710000    -0.4016360000
   43      H       0.9773670000    -9.1505700000    -0.1035190000
   44      H      -1.0649920000    -1.4441580000    -0.1791950000
 ----------------------------------------------------------------

   11   -2755.3156880703      6.83e-07  Convergence criterion met
 Total energy in the final basis set =    -2755.3156880703
        RIMP2         total energy =     -2760.4106204734 a.u.

                    Orbital Energies (a.u.)
 --------------------------------------------------------------

 Alpha MOs
 -- Occupied --
-92.0147 -91.9935 -91.9834 -91.9596 -26.3400 -20.6112 -20.5899 -20.5872
-20.5482 -11.4089 -11.3796 -11.3222 -11.3123 -11.3100 -11.2973 -11.2936
-11.2882 -11.2864 -11.2858 -11.2857 -11.2855 -11.2823 -11.2778 -11.2749
-11.2711 -11.2609 -11.2601 -11.2514 -11.2415  -9.0134  -8.9976  -8.9856
 -8.9622  -6.6942  -6.6935  -6.6930  -6.6789  -6.6782  -6.6768  -6.6667
 -6.6658  -6.6646  -6.6434  -6.6425  -6.6415  -1.6544  -1.4708  -1.4131
 -1.4091  -1.3659  -1.2386  -1.2108  -1.1776  -1.1437  -1.1010  -1.0508
 -1.0484  -1.0287  -1.0106  -1.0003  -0.9718  -0.9601  -0.9504  -0.9410
 -0.8961  -0.8734  -0.8632  -0.8106  -0.7976  -0.7879  -0.7759  -0.7713
 -0.7631  -0.7350  -0.7231  -0.7205  -0.6990  -0.6948  -0.6849  -0.6780
 -0.6723  -0.6720  -0.6579  -0.6494  -0.6402  -0.6300  -0.6217  -0.6158
 -0.6089  -0.6054  -0.5957  -0.5923  -0.5779  -0.5711  -0.5601  -0.5531
 -0.5461  -0.5363  -0.5322  -0.5230  -0.5147  -0.5096  -0.5070  -0.5020
 -0.4845  -0.4841  -0.4793  -0.4691  -0.4627  -0.4607  -0.4585  -0.4481
 -0.4334  -0.3975  -0.3886  -0.3720  -0.3504  -0.2941  -0.2848  -0.2181

          Ground-State Mulliken Net Atomic Charges

     Atom                 Charge (a.u.)
  ----------------------------------------
      1 C                    -0.070973
      2 C                    -0.248062
      3 S                    -0.131694
      4 C                    -0.051356
      5 H                     0.194984
      6 C                    -0.049568
      7 C                     0.226006
      8 C                     0.236616
      9 C                    -0.075955
     10 C                    -0.034850
     11 O                    -0.333286
     12 O                    -0.343069
     13 C                    -0.083288
     14 H                     0.121783
     15 H                     0.092279
     16 H                     0.092572
     17 C                    -0.088828
     18 H                     0.125388
     19 H                     0.093610
     20 H                     0.090272
     21 C                    -0.328202
     22 S                    -0.097042
     23 C                     0.126750
     24 H                     0.214564
     25 C                    -0.039180
     26 S                     0.093787
     27 C                    -0.268974
     28 C                    -0.100815
     29 C                    -0.005033
     30 C                     0.370132
     31 C                    -0.144802
     32 S                     0.037737
     33 C                     0.460097
     34 O                    -0.454776
     35 O                    -0.298606
     36 F                    -0.216424
     37 C                    -0.054936
     38 H                     0.116508
     39 H                     0.084220
     40 H                     0.084049
     41 H                     0.214428
     42 H                     0.119137
     43 H                     0.116842
     44 H                     0.207957
  ----------------------------------------
  Sum of atomic charges =     0.000000

                    Cartesian Multipole Moments
 -----------------------------------------------------------------
    Charge (ESU x 10^10)
                 0.0000
    Dipole Moment (Debye)
         X       0.2767      Y       1.6361      Z       3.5926
       Tot       3.9573
    Quadrupole Moments (Debye-Ang)
        XX    -195.4915     XY       5.5329     YY    -169.8640
        XZ     -11.5632     YZ     -13.9440     ZZ    -192.9966

 Total job time:  332.00s(wall), 10675.26s(cpu)
        *  Thank you very much for using Q-Chem.  Have a nice day.  *
