 Q-Chem 5.4, Q-Chem, Inc., Pleasanton, CA (2021)
 Q-Chem 5.4.0 for Intel X86 EM64T Linux

User input:
--------------------------------------------------------------
$molecule
0 1
C	0.136647	-8.519741	-0.235306
C	-0.221346	-7.635967	0.772334
S	0.650746	-7.651740	-1.702286
C	-0.090779	-6.261894	0.408807
H	-0.573754	-7.954738	1.761423
C	0.397735	-6.079985	-0.932876
C	0.568166	-4.798382	-1.479069
C	-0.418347	-5.153542	1.241204
C	-0.251852	-3.869626	0.693206
C	0.239872	-3.688927	-0.648921
O	-0.842486	-5.481075	2.493437
O	0.993092	-4.479871	-2.737331
C	1.884752	-5.356026	-3.416110
H	2.273124	-4.790496	-4.284447
H	1.373310	-6.268513	-3.793352
H	2.734702	-5.658187	-2.766716
C	-1.588030	-4.546999	3.264581
H	-1.974995	-5.107564	4.136519
H	-2.443843	-4.131473	2.690439
H	-0.955140	-3.712085	3.636177
C	0.367068	-2.314326	-1.009848
S	-0.517386	-2.295487	1.459936
C	0.000000	-1.435180	0.000000
H	0.721689	-1.993211	-1.997308
C	0.000000	0.000000	0.000000
S	0.002233	0.899428	1.510732
C	0.001157	2.474749	0.727629
C	-0.000030	0.908223	-1.064665
C	-0.001545	2.297013	-0.678287
C	0.001624	0.841837	-2.486150
C	0.001494	2.106670	-3.106916
S	-0.001841	3.354171	-1.965735
C	0.006168	2.361146	-4.559972
O	0.009152	1.427646	-5.350277
O	0.009405	3.644337	-5.004375
F	0.005539	-0.272288	-3.246290
C	0.019554	4.003038	-6.334976
H	0.020155	5.108000	-6.370268
H	-0.871409	3.613681	-6.875609
H	0.918470	3.613062	-6.861878
H	0.001222	3.394771	1.321510
H	-0.712022	-9.146471	-0.533380
H	0.980494	-9.150570	0.067771
H	-1.017696	-1.444158	-0.361406
$end

$rem
JOBTYPE		SP
EXCHANGE	HF
CORRELATION	pRIMP2
BASIS		cc-pvtz
METHOD		rimp2
AUX_BASIS	rimp2-cc-pvtz
SOLVENT_METHOD	PCM
PURECART	11111
SYMMETRY	false
MEM_TOTAL	110000
SCF_CONVERGENCE = 6
THRESH=10
GUI = 2
$end

$solvent
dielectric 4.90
$end
--------------------------------------------------------------

             Standard Nuclear Orientation (Angstroms)
    I     Atom           X                Y                Z
 ----------------------------------------------------------------
    1      C       0.1366470000    -8.5197410000    -0.2353060000
    2      C      -0.2213460000    -7.6359670000     0.7723340000
    3      S       0.6507460000    -7.6517400000    -1.7022860000
    4      C      -0.0907790000    -6.2618940000     0.4088070000
    5      H      -0.5737540000    -7.9547380000     1.7614230000
    6      C       0.3977350000    -6.0799850000    -0.9328760000
    7      C       0.5681660000    -4.7983820000    -1.4790690000
    8      C      -0.4183470000    -5.1535420000     1.2412040000
    9      C      -0.2518520000    -3.8696260000     0.6932060000
   10      C       0.2398720000    -3.6889270000    -0.6489210000
   11      O      -0.8424860000    -5.4810750000     2.4934370000
   12      O       0.9930920000    -4.4798710000    -2.7373310000
   13      C       1.8847520000    -5.3560260000    -3.4161100000
   14      H       2.2731240000    -4.7904960000    -4.2844470000
   15      H       1.3733100000    -6.2685130000    -3.7933520000
   16      H       2.7347020000    -5.6581870000    -2.7667160000
   17      C      -1.5880300000    -4.5469990000     3.2645810000
   18      H      -1.9749950000    -5.1075640000     4.1365190000
   19      H      -2.4438430000    -4.1314730000     2.6904390000
   20      H      -0.9551400000    -3.7120850000     3.6361770000
   21      C       0.3670680000    -2.3143260000    -1.0098480000
   22      S      -0.5173860000    -2.2954870000     1.4599360000
   23      C       0.0000000000    -1.4351800000     0.0000000000
   24      H       0.7216890000    -1.9932110000    -1.9973080000
   25      C       0.0000000000     0.0000000000     0.0000000000
   26      S       0.0022330000     0.8994280000     1.5107320000
   27      C       0.0011570000     2.4747490000     0.7276290000
   28      C      -0.0000300000     0.9082230000    -1.0646650000
   29      C      -0.0015450000     2.2970130000    -0.6782870000
   30      C       0.0016240000     0.8418370000    -2.4861500000
   31      C       0.0014940000     2.1066700000    -3.1069160000
   32      S      -0.0018410000     3.3541710000    -1.9657350000
   33      C       0.0061680000     2.3611460000    -4.5599720000
   34      O       0.0091520000     1.4276460000    -5.3502770000
   35      O       0.0094050000     3.6443370000    -5.0043750000
   36      F       0.0055390000    -0.2722880000    -3.2462900000
   37      C       0.0195540000     4.0030380000    -6.3349760000
   38      H       0.0201550000     5.1080000000    -6.3702680000
   39      H      -0.8714090000     3.6136810000    -6.8756090000
   40      H       0.9184700000     3.6130620000    -6.8618780000
   41      H       0.0012220000     3.3947710000     1.3215100000
   42      H      -0.7120220000    -9.1464710000    -0.5333800000
   43      H       0.9804940000    -9.1505700000     0.0677710000
   44      H      -1.0176960000    -1.4441580000    -0.3614060000
 ----------------------------------------------------------------

   11   -2755.3273924587      6.85e-07  Convergence criterion met
 Total energy in the final basis set =    -2755.3273924587
        RIMP2         total energy =     -2760.4178421322 a.u.

                    Orbital Energies (a.u.)
 --------------------------------------------------------------

 Alpha MOs
 -- Occupied --
-92.0156 -91.9925 -91.9835 -91.9602 -26.3393 -20.6108 -20.5902 -20.5874
-20.5474 -11.4082 -11.3797 -11.3270 -11.3128 -11.3101 -11.2970 -11.2919
-11.2882 -11.2879 -11.2866 -11.2858 -11.2826 -11.2817 -11.2760 -11.2757
-11.2712 -11.2621 -11.2605 -11.2519 -11.2426  -9.0140  -8.9967  -8.9857
 -8.9627  -6.6948  -6.6942  -6.6937  -6.6779  -6.6772  -6.6759  -6.6669
 -6.6660  -6.6647  -6.6440  -6.6430  -6.6420  -1.6532  -1.4704  -1.4134
 -1.4093  -1.3653  -1.2382  -1.2111  -1.1781  -1.1435  -1.1015  -1.0504
 -1.0487  -1.0282  -1.0108  -1.0007  -0.9714  -0.9604  -0.9506  -0.9409
 -0.8964  -0.8736  -0.8629  -0.8104  -0.7964  -0.7879  -0.7757  -0.7714
 -0.7629  -0.7348  -0.7213  -0.7202  -0.6994  -0.6959  -0.6851  -0.6777
 -0.6745  -0.6715  -0.6579  -0.6496  -0.6394  -0.6303  -0.6222  -0.6161
 -0.6093  -0.6049  -0.5955  -0.5910  -0.5786  -0.5711  -0.5605  -0.5511
 -0.5491  -0.5372  -0.5318  -0.5230  -0.5147  -0.5096  -0.5068  -0.5023
 -0.4856  -0.4836  -0.4796  -0.4694  -0.4639  -0.4605  -0.4584  -0.4488
 -0.4333  -0.3984  -0.3885  -0.3725  -0.3509  -0.2943  -0.2843  -0.2196

          Ground-State Mulliken Net Atomic Charges

     Atom                 Charge (a.u.)
  ----------------------------------------
      1 C                    -0.071095
      2 C                    -0.244601
      3 S                    -0.130170
      4 C                    -0.051046
      5 H                     0.195287
      6 C                    -0.050642
      7 C                     0.225410
      8 C                     0.238666
      9 C                    -0.078948
     10 C                    -0.028229
     11 O                    -0.333536
     12 O                    -0.342216
     13 C                    -0.083266
     14 H                     0.121544
     15 H                     0.092171
     16 H                     0.092602
     17 C                    -0.088622
     18 H                     0.125180
     19 H                     0.093727
     20 H                     0.090649
     21 C                    -0.335850
     22 S                    -0.093157
     23 C                     0.128754
     24 H                     0.207075
     25 C                    -0.083359
     26 S                     0.084112
     27 C                    -0.274121
     28 C                    -0.061099
     29 C                    -0.008697
     30 C                     0.409514
     31 C                    -0.156260
     32 S                     0.028700
     33 C                     0.464146
     34 O                    -0.456447
     35 O                    -0.298652
     36 F                    -0.217684
     37 C                    -0.055196
     38 H                     0.116377
     39 H                     0.084128
     40 H                     0.083974
     41 H                     0.214114
     42 H                     0.119556
     43 H                     0.117186
     44 H                     0.210019
  ----------------------------------------
  Sum of atomic charges =     0.000000

                    Cartesian Multipole Moments
 -----------------------------------------------------------------
    Charge (ESU x 10^10)
                 0.0000
    Dipole Moment (Debye)
         X      -0.7447      Y       1.3489      Z       3.5572
       Tot       3.8766
    Quadrupole Moments (Debye-Ang)
        XX    -194.1850     XY       1.6652     YY    -167.0112
        XZ      -9.3392     YZ     -14.1967     ZZ    -196.4659

 Total job time:  332.78s(wall), 10725.70s(cpu)
        *  Thank you very much for using Q-Chem.  Have a nice day.  *
