 Q-Chem 5.4, Q-Chem, Inc., Pleasanton, CA (2021)
 Q-Chem 5.4.0 for Intel X86 EM64T Linux

User input:
--------------------------------------------------------------
$molecule
0 1
C	0.000687	-8.519741	-0.272104
C	0.194476	-7.635967	0.779533
S	-0.287581	-7.651740	-1.799596
C	0.125787	-6.261894	0.399427
H	0.383826	-7.954738	1.812314
C	-0.121989	-6.079985	-1.006762
C	-0.247488	-4.798382	-1.564994
C	0.258303	-5.153542	1.284087
C	0.128493	-3.869626	0.726260
C	-0.116725	-3.688927	-0.681918
O	0.517104	-5.481075	2.580622
O	-0.508622	-4.479871	-2.867144
C	-0.075811	-5.356026	-3.900814
H	-0.173640	-4.790496	-4.847002
H	-0.707354	-6.268513	-3.971794
H	0.984963	-5.658187	-3.763397
C	0.257016	-4.546999	3.621225
H	0.357864	-5.107564	4.569828
H	-0.771211	-4.131473	3.551910
H	0.990913	-3.712085	3.626592
C	-0.187034	-2.314326	-1.058088
S	0.281899	-2.295487	1.523035
C	-0.000000	-1.435180	-0.000000
H	-0.373653	-1.993211	-2.090565
C	0.000000	0.000000	0.000000
S	0.579852	0.687566	1.510732
C	1.591625	1.895024	0.727629
C	0.583771	0.695758	-1.064665
C	1.475308	1.760606	-0.678287
C	0.542366	0.643841	-2.486150
C	1.355286	1.612843	-3.106916
S	2.154609	2.570627	-1.965735
C	1.522440	1.804778	-4.559972
O	0.924684	1.087757	-5.350277
O	2.349739	2.785679	-5.004375
F	-0.170780	-0.212144	-3.246290
C	2.588082	3.053936	-6.334976
H	3.298799	3.899999	-6.370268
H	1.655291	3.328371	-6.875609
H	3.026021	2.177385	-6.861878
H	2.183053	2.599759	1.321510
H	-0.883319	-9.146471	-0.105910
H	0.883019	-9.150570	-0.431555
H	-1.062054	-1.444158	0.195861
$end

$rem
JOBTYPE		SP
EXCHANGE	HF
CORRELATION	pRIMP2
BASIS		cc-pvtz
METHOD		rimp2
AUX_BASIS	rimp2-cc-pvtz
SOLVENT_METHOD	PCM
PURECART	11111
SYMMETRY	false
MEM_TOTAL	110000
SCF_CONVERGENCE = 6
THRESH=10
GUI = 2
$end

$solvent
dielectric 4.90
$end
--------------------------------------------------------------

             Standard Nuclear Orientation (Angstroms)
    I     Atom           X                Y                Z
 ----------------------------------------------------------------
    1      C       0.0006870000    -8.5197410000    -0.2721040000
    2      C       0.1944760000    -7.6359670000     0.7795330000
    3      S      -0.2875810000    -7.6517400000    -1.7995960000
    4      C       0.1257870000    -6.2618940000     0.3994270000
    5      H       0.3838260000    -7.9547380000     1.8123140000
    6      C      -0.1219890000    -6.0799850000    -1.0067620000
    7      C      -0.2474880000    -4.7983820000    -1.5649940000
    8      C       0.2583030000    -5.1535420000     1.2840870000
    9      C       0.1284930000    -3.8696260000     0.7262600000
   10      C      -0.1167250000    -3.6889270000    -0.6819180000
   11      O       0.5171040000    -5.4810750000     2.5806220000
   12      O      -0.5086220000    -4.4798710000    -2.8671440000
   13      C      -0.0758110000    -5.3560260000    -3.9008140000
   14      H      -0.1736400000    -4.7904960000    -4.8470020000
   15      H      -0.7073540000    -6.2685130000    -3.9717940000
   16      H       0.9849630000    -5.6581870000    -3.7633970000
   17      C       0.2570160000    -4.5469990000     3.6212250000
   18      H       0.3578640000    -5.1075640000     4.5698280000
   19      H      -0.7712110000    -4.1314730000     3.5519100000
   20      H       0.9909130000    -3.7120850000     3.6265920000
   21      C      -0.1870340000    -2.3143260000    -1.0580880000
   22      S       0.2818990000    -2.2954870000     1.5230350000
   23      C       0.0000000000    -1.4351800000     0.0000000000
   24      H      -0.3736530000    -1.9932110000    -2.0905650000
   25      C       0.0000000000     0.0000000000     0.0000000000
   26      S       0.5798520000     0.6875660000     1.5107320000
   27      C       1.5916250000     1.8950240000     0.7276290000
   28      C       0.5837710000     0.6957580000    -1.0646650000
   29      C       1.4753080000     1.7606060000    -0.6782870000
   30      C       0.5423660000     0.6438410000    -2.4861500000
   31      C       1.3552860000     1.6128430000    -3.1069160000
   32      S       2.1546090000     2.5706270000    -1.9657350000
   33      C       1.5224400000     1.8047780000    -4.5599720000
   34      O       0.9246840000     1.0877570000    -5.3502770000
   35      O       2.3497390000     2.7856790000    -5.0043750000
   36      F      -0.1707800000    -0.2121440000    -3.2462900000
   37      C       2.5880820000     3.0539360000    -6.3349760000
   38      H       3.2987990000     3.8999990000    -6.3702680000
   39      H       1.6552910000     3.3283710000    -6.8756090000
   40      H       3.0260210000     2.1773850000    -6.8618780000
   41      H       2.1830530000     2.5997590000     1.3215100000
   42      H      -0.8833190000    -9.1464710000    -0.1059100000
   43      H       0.8830190000    -9.1505700000    -0.4315550000
   44      H      -1.0620540000    -1.4441580000     0.1958610000
 ----------------------------------------------------------------

   11   -2755.2858835282      6.84e-07  Convergence criterion met
 Total energy in the final basis set =    -2755.2858835282
        RIMP2         total energy =     -2760.3917847548 a.u.

                    Orbital Energies (a.u.)
 --------------------------------------------------------------

 Alpha MOs
 -- Occupied --
-92.0148 -91.9975 -91.9810 -91.9574 -26.3397 -20.6130 -20.5877 -20.5862
-20.5513 -11.4115 -11.3788 -11.3087 -11.3083 -11.3062 -11.2998 -11.2992
-11.2981 -11.2891 -11.2853 -11.2829 -11.2826 -11.2815 -11.2785 -11.2716
-11.2708 -11.2580 -11.2564 -11.2491 -11.2364  -9.0138  -9.0014  -8.9832
 -8.9600  -6.6946  -6.6938  -6.6934  -6.6827  -6.6820  -6.6807  -6.6642
 -6.6634  -6.6620  -6.6413  -6.6403  -6.6393  -1.6541  -1.4728  -1.4109
 -1.4081  -1.3683  -1.2412  -1.2090  -1.1755  -1.1447  -1.0986  -1.0522
 -1.0464  -1.0307  -1.0088  -0.9983  -0.9733  -0.9595  -0.9488  -0.9403
 -0.8947  -0.8734  -0.8623  -0.8094  -0.7992  -0.7867  -0.7755  -0.7710
 -0.7625  -0.7331  -0.7249  -0.7203  -0.6974  -0.6938  -0.6845  -0.6794
 -0.6741  -0.6672  -0.6567  -0.6483  -0.6396  -0.6286  -0.6196  -0.6141
 -0.6088  -0.6076  -0.5976  -0.5934  -0.5752  -0.5700  -0.5582  -0.5546
 -0.5424  -0.5366  -0.5315  -0.5229  -0.5148  -0.5097  -0.5066  -0.5001
 -0.4869  -0.4823  -0.4754  -0.4688  -0.4626  -0.4612  -0.4557  -0.4457
 -0.4324  -0.3949  -0.3869  -0.3695  -0.3496  -0.2947  -0.2854  -0.2143

          Ground-State Mulliken Net Atomic Charges

     Atom                 Charge (a.u.)
  ----------------------------------------
      1 C                    -0.070121
      2 C                    -0.262257
      3 S                    -0.136681
      4 C                    -0.046472
      5 H                     0.193061
      6 C                    -0.054058
      7 C                     0.230608
      8 C                     0.227716
      9 C                    -0.078366
     10 C                    -0.046392
     11 O                    -0.334117
     12 O                    -0.343888
     13 C                    -0.083091
     14 H                     0.121560
     15 H                     0.092079
     16 H                     0.092423
     17 C                    -0.088764
     18 H                     0.124603
     19 H                     0.092708
     20 H                     0.089452
     21 C                    -0.284379
     22 S                    -0.093555
     23 C                     0.065738
     24 H                     0.220986
     25 C                    -0.080094
     26 S                     0.094380
     27 C                    -0.219784
     28 C                    -0.062944
     29 C                    -0.020995
     30 C                     0.362146
     31 C                    -0.133776
     32 S                     0.049832
     33 C                     0.457107
     34 O                    -0.449652
     35 O                    -0.297903
     36 F                    -0.214512
     37 C                    -0.054732
     38 H                     0.116886
     39 H                     0.084676
     40 H                     0.084610
     41 H                     0.217249
     42 H                     0.117088
     43 H                     0.114774
     44 H                     0.206852
  ----------------------------------------
  Sum of atomic charges =     0.000000

                    Cartesian Multipole Moments
 -----------------------------------------------------------------
    Charge (ESU x 10^10)
                -0.0000
    Dipole Moment (Debye)
         X       1.9066      Y       2.9533      Z       3.5052
       Tot       4.9643
    Quadrupole Moments (Debye-Ang)
        XX    -194.1741     XY       7.4545     YY    -181.5540
        XZ      -9.8838     YZ     -12.2904     ZZ    -187.5921

 Total job time:  332.43s(wall), 10943.13s(cpu)
        *  Thank you very much for using Q-Chem.  Have a nice day.  *
