 Q-Chem 5.4, Q-Chem, Inc., Pleasanton, CA (2021)
 Q-Chem 5.4.0 for Intel X86 EM64T Linux

User input:
--------------------------------------------------------------
$molecule
0 1
C	-0.268090	-8.519741	0.046574
C	0.733920	-7.635967	-0.326886
S	-1.722318	-7.651740	0.595708
C	0.371516	-6.261894	-0.193236
H	1.718130	-7.954738	-0.692700
C	-0.970283	-6.079985	0.294958
C	-1.498243	-4.798382	0.515487
C	1.219725	-5.153542	-0.477358
C	0.692914	-3.869626	-0.252655
C	-0.651289	-3.688927	0.233366
O	2.451623	-5.481075	-0.957369
O	-2.735264	-4.479871	0.998769
C	-3.828387	-5.356026	0.752029
H	-4.743213	-4.790496	1.012675
H	-3.788623	-6.268513	1.386303
H	-3.877260	-5.658187	-0.316492
C	3.521580	-4.546999	-0.881930
H	4.438260	-5.107564	-1.145969
H	3.631868	-4.131473	0.142712
H	3.399425	-3.712085	-1.605610
C	-1.009535	-2.314326	0.367928
S	1.450945	-2.295487	-0.542088
C	-0.000000	-1.435180	-0.000000
H	-1.993920	-1.993211	0.730999
C	0.000000	0.000000	0.000000
S	0.158383	0.885376	1.510732
C	0.430876	2.436951	0.727629
C	0.157682	0.894430	-1.064665
C	0.397351	2.262384	-0.678287
C	0.147783	0.828765	-2.486150
C	0.367291	2.074406	-3.106916
S	0.580633	3.303533	-1.965735
C	0.416083	2.324204	-4.559972
O	0.256921	1.404367	-5.350277
O	0.642094	3.587338	-5.004375
F	-0.041828	-0.269113	-3.246290
C	0.714377	3.938827	-6.334976
H	0.906844	5.026898	-6.370268
H	-0.230661	3.710099	-6.875609
H	1.531918	3.398681	-6.861878
H	0.590699	3.342984	1.321510
H	0.049086	-9.146471	0.888291
H	-0.578334	-9.150570	-0.794665
H	0.377309	-1.444158	1.011908
$end

$rem
JOBTYPE		SP
EXCHANGE	HF
CORRELATION	pRIMP2
BASIS		cc-pvtz
METHOD		rimp2
AUX_BASIS	rimp2-cc-pvtz
SOLVENT_METHOD	PCM
PURECART	11111
SYMMETRY	false
MEM_TOTAL	110000
SCF_CONVERGENCE = 6
THRESH=10
GUI = 2
$end

$solvent
dielectric 4.90
$end
--------------------------------------------------------------

             Standard Nuclear Orientation (Angstroms)
    I     Atom           X                Y                Z
 ----------------------------------------------------------------
    1      C      -0.2680900000    -8.5197410000     0.0465740000
    2      C       0.7339200000    -7.6359670000    -0.3268860000
    3      S      -1.7223180000    -7.6517400000     0.5957080000
    4      C       0.3715160000    -6.2618940000    -0.1932360000
    5      H       1.7181300000    -7.9547380000    -0.6927000000
    6      C      -0.9702830000    -6.0799850000     0.2949580000
    7      C      -1.4982430000    -4.7983820000     0.5154870000
    8      C       1.2197250000    -5.1535420000    -0.4773580000
    9      C       0.6929140000    -3.8696260000    -0.2526550000
   10      C      -0.6512890000    -3.6889270000     0.2333660000
   11      O       2.4516230000    -5.4810750000    -0.9573690000
   12      O      -2.7352640000    -4.4798710000     0.9987690000
   13      C      -3.8283870000    -5.3560260000     0.7520290000
   14      H      -4.7432130000    -4.7904960000     1.0126750000
   15      H      -3.7886230000    -6.2685130000     1.3863030000
   16      H      -3.8772600000    -5.6581870000    -0.3164920000
   17      C       3.5215800000    -4.5469990000    -0.8819300000
   18      H       4.4382600000    -5.1075640000    -1.1459690000
   19      H       3.6318680000    -4.1314730000     0.1427120000
   20      H       3.3994250000    -3.7120850000    -1.6056100000
   21      C      -1.0095350000    -2.3143260000     0.3679280000
   22      S       1.4509450000    -2.2954870000    -0.5420880000
   23      C       0.0000000000    -1.4351800000     0.0000000000
   24      H      -1.9939200000    -1.9932110000     0.7309990000
   25      C       0.0000000000     0.0000000000     0.0000000000
   26      S       0.1583830000     0.8853760000     1.5107320000
   27      C       0.4308760000     2.4369510000     0.7276290000
   28      C       0.1576820000     0.8944300000    -1.0646650000
   29      C       0.3973510000     2.2623840000    -0.6782870000
   30      C       0.1477830000     0.8287650000    -2.4861500000
   31      C       0.3672910000     2.0744060000    -3.1069160000
   32      S       0.5806330000     3.3035330000    -1.9657350000
   33      C       0.4160830000     2.3242040000    -4.5599720000
   34      O       0.2569210000     1.4043670000    -5.3502770000
   35      O       0.6420940000     3.5873380000    -5.0043750000
   36      F      -0.0418280000    -0.2691130000    -3.2462900000
   37      C       0.7143770000     3.9388270000    -6.3349760000
   38      H       0.9068440000     5.0268980000    -6.3702680000
   39      H      -0.2306610000     3.7100990000    -6.8756090000
   40      H       1.5319180000     3.3986810000    -6.8618780000
   41      H       0.5906990000     3.3429840000     1.3215100000
   42      H       0.0490860000    -9.1464710000     0.8882910000
   43      H      -0.5783340000    -9.1505700000    -0.7946650000
   44      H       0.3773090000    -1.4441580000     1.0119080000
 ----------------------------------------------------------------

   11   -2755.3246104039      7.82e-07  Convergence criterion met
 Total energy in the final basis set =    -2755.3246104039
        RIMP2         total energy =     -2760.4148381193 a.u.

                    Orbital Energies (a.u.)
 --------------------------------------------------------------

 Alpha MOs
 -- Occupied --
-92.0185 -91.9953 -91.9782 -91.9579 -26.3350 -20.6127 -20.5872 -20.5866
-20.5509 -11.4110 -11.3779 -11.3132 -11.3089 -11.3070 -11.2988 -11.2977
-11.2958 -11.2887 -11.2842 -11.2829 -11.2827 -11.2814 -11.2814 -11.2727
-11.2726 -11.2580 -11.2574 -11.2493 -11.2364  -9.0169  -8.9994  -8.9803
 -8.9605  -6.6976  -6.6970  -6.6965  -6.6807  -6.6800  -6.6787  -6.6615
 -6.6606  -6.6593  -6.6418  -6.6408  -6.6398  -1.6479  -1.4724  -1.4101
 -1.4088  -1.3677  -1.2383  -1.2092  -1.1753  -1.1441  -1.0992  -1.0504
 -1.0456  -1.0314  -1.0083  -0.9976  -0.9726  -0.9596  -0.9484  -0.9406
 -0.8932  -0.8714  -0.8647  -0.8095  -0.7927  -0.7851  -0.7766  -0.7739
 -0.7654  -0.7332  -0.7212  -0.7161  -0.6970  -0.6924  -0.6818  -0.6789
 -0.6723  -0.6647  -0.6562  -0.6484  -0.6349  -0.6289  -0.6197  -0.6147
 -0.6108  -0.6070  -0.5958  -0.5927  -0.5823  -0.5642  -0.5614  -0.5563
 -0.5495  -0.5346  -0.5279  -0.5216  -0.5126  -0.5074  -0.5034  -0.5016
 -0.4871  -0.4857  -0.4773  -0.4699  -0.4619  -0.4618  -0.4611  -0.4464
 -0.4241  -0.4026  -0.3856  -0.3701  -0.3513  -0.2926  -0.2886  -0.2202

          Ground-State Mulliken Net Atomic Charges

     Atom                 Charge (a.u.)
  ----------------------------------------
      1 C                    -0.070037
      2 C                    -0.260549
      3 S                    -0.136251
      4 C                    -0.043964
      5 H                     0.193314
      6 C                    -0.051803
      7 C                     0.226713
      8 C                     0.224807
      9 C                    -0.073934
     10 C                    -0.045929
     11 O                    -0.334816
     12 O                    -0.343584
     13 C                    -0.082557
     14 H                     0.119797
     15 H                     0.091913
     16 H                     0.093309
     17 C                    -0.086752
     18 H                     0.123244
     19 H                     0.091803
     20 H                     0.091120
     21 C                    -0.271102
     22 S                    -0.072748
     23 C                     0.079392
     24 H                     0.203267
     25 C                    -0.067267
     26 S                     0.100624
     27 C                    -0.239125
     28 C                    -0.110242
     29 C                    -0.001234
     30 C                     0.399214
     31 C                    -0.154917
     32 S                     0.038596
     33 C                     0.460799
     34 O                    -0.448642
     35 O                    -0.297695
     36 F                    -0.211786
     37 C                    -0.055028
     38 H                     0.116621
     39 H                     0.084768
     40 H                     0.084716
     41 H                     0.216343
     42 H                     0.117021
     43 H                     0.115036
     44 H                     0.187545
  ----------------------------------------
  Sum of atomic charges =     0.000000

                    Cartesian Multipole Moments
 -----------------------------------------------------------------
    Charge (ESU x 10^10)
                 0.0000
    Dipole Moment (Debye)
         X       0.9693      Y       3.6934      Z       3.6535
       Tot       5.2848
    Quadrupole Moments (Debye-Ang)
        XX    -182.5105     XY      -0.8125     YY    -175.3787
        XZ      -2.3932     YZ      -9.2400     ZZ    -205.9290

 Total job time:  342.87s(wall), 10997.18s(cpu)
        *  Thank you very much for using Q-Chem.  Have a nice day.  *
