 Q-Chem 5.4, Q-Chem, Inc., Pleasanton, CA (2021)
 Q-Chem 5.4.0 for Intel X86 EM64T Linux

User input:
--------------------------------------------------------------
$molecule
0 1
C	0.046574	-8.519741	0.268090
C	-0.326886	-7.635967	-0.733920
S	0.595708	-7.651740	1.722318
C	-0.193236	-6.261894	-0.371516
H	-0.692700	-7.954738	-1.718130
C	0.294958	-6.079985	0.970283
C	0.515487	-4.798382	1.498243
C	-0.477358	-5.153542	-1.219725
C	-0.252655	-3.869626	-0.692914
C	0.233366	-3.688927	0.651289
O	-0.957369	-5.481075	-2.451623
O	0.998769	-4.479871	2.735264
C	0.752029	-5.356026	3.828387
H	1.012675	-4.790496	4.743213
H	1.386303	-6.268513	3.788623
H	-0.316492	-5.658187	3.877260
C	-0.881930	-4.546999	-3.521580
H	-1.145969	-5.107564	-4.438260
H	0.142712	-4.131473	-3.631868
H	-1.605610	-3.712085	-3.399425
C	0.367928	-2.314326	1.009535
S	-0.542088	-2.295487	-1.450945
C	0.000000	-1.435180	0.000000
H	0.730999	-1.993211	1.993920
C	0.000000	0.000000	0.000000
S	0.309721	0.844422	1.510732
C	0.847502	2.325108	0.727629
C	0.310602	0.853460	-1.064665
C	0.784173	2.159014	-0.678287
C	0.289451	0.790512	-2.486150
C	0.721927	1.979112	-3.106916
S	1.145464	3.152519	-1.965735
C	0.813355	2.216642	-4.559972
O	0.496884	1.338418	-5.350277
O	1.255274	3.421340	-5.004375
F	-0.087923	-0.257761	-3.246290
C	1.387494	3.754937	-6.334976
H	1.765978	4.793056	-6.370268
H	0.417095	3.693789	-6.875609
H	2.098820	3.081033	-6.861878
H	1.162229	3.189623	1.321510
H	0.888291	-9.146471	-0.049086
H	-0.794665	-9.150570	0.578334
H	1.011908	-1.444158	-0.377309
$end

$rem
JOBTYPE		SP
EXCHANGE	HF
CORRELATION	pRIMP2
BASIS		cc-pvtz
METHOD		rimp2
AUX_BASIS	rimp2-cc-pvtz
SOLVENT_METHOD	PCM
PURECART	11111
SYMMETRY	false
MEM_TOTAL	110000
SCF_CONVERGENCE = 6
THRESH=10
GUI = 2
$end

$solvent
dielectric 4.90
$end
--------------------------------------------------------------

             Standard Nuclear Orientation (Angstroms)
    I     Atom           X                Y                Z
 ----------------------------------------------------------------
    1      C       0.0465740000    -8.5197410000     0.2680900000
    2      C      -0.3268860000    -7.6359670000    -0.7339200000
    3      S       0.5957080000    -7.6517400000     1.7223180000
    4      C      -0.1932360000    -6.2618940000    -0.3715160000
    5      H      -0.6927000000    -7.9547380000    -1.7181300000
    6      C       0.2949580000    -6.0799850000     0.9702830000
    7      C       0.5154870000    -4.7983820000     1.4982430000
    8      C      -0.4773580000    -5.1535420000    -1.2197250000
    9      C      -0.2526550000    -3.8696260000    -0.6929140000
   10      C       0.2333660000    -3.6889270000     0.6512890000
   11      O      -0.9573690000    -5.4810750000    -2.4516230000
   12      O       0.9987690000    -4.4798710000     2.7352640000
   13      C       0.7520290000    -5.3560260000     3.8283870000
   14      H       1.0126750000    -4.7904960000     4.7432130000
   15      H       1.3863030000    -6.2685130000     3.7886230000
   16      H      -0.3164920000    -5.6581870000     3.8772600000
   17      C      -0.8819300000    -4.5469990000    -3.5215800000
   18      H      -1.1459690000    -5.1075640000    -4.4382600000
   19      H       0.1427120000    -4.1314730000    -3.6318680000
   20      H      -1.6056100000    -3.7120850000    -3.3994250000
   21      C       0.3679280000    -2.3143260000     1.0095350000
   22      S      -0.5420880000    -2.2954870000    -1.4509450000
   23      C       0.0000000000    -1.4351800000     0.0000000000
   24      H       0.7309990000    -1.9932110000     1.9939200000
   25      C       0.0000000000     0.0000000000     0.0000000000
   26      S       0.3097210000     0.8444220000     1.5107320000
   27      C       0.8475020000     2.3251080000     0.7276290000
   28      C       0.3106020000     0.8534600000    -1.0646650000
   29      C       0.7841730000     2.1590140000    -0.6782870000
   30      C       0.2894510000     0.7905120000    -2.4861500000
   31      C       0.7219270000     1.9791120000    -3.1069160000
   32      S       1.1454640000     3.1525190000    -1.9657350000
   33      C       0.8133550000     2.2166420000    -4.5599720000
   34      O       0.4968840000     1.3384180000    -5.3502770000
   35      O       1.2552740000     3.4213400000    -5.0043750000
   36      F      -0.0879230000    -0.2577610000    -3.2462900000
   37      C       1.3874940000     3.7549370000    -6.3349760000
   38      H       1.7659780000     4.7930560000    -6.3702680000
   39      H       0.4170950000     3.6937890000    -6.8756090000
   40      H       2.0988200000     3.0810330000    -6.8618780000
   41      H       1.1622290000     3.1896230000     1.3215100000
   42      H       0.8882910000    -9.1464710000    -0.0490860000
   43      H      -0.7946650000    -9.1505700000     0.5783340000
   44      H       1.0119080000    -1.4441580000    -0.3773090000
 ----------------------------------------------------------------

   11   -2755.3165141847      6.68e-07  Convergence criterion met
 Total energy in the final basis set =    -2755.3165141847
        RIMP2         total energy =     -2760.4109144664 a.u.

                    Orbital Energies (a.u.)
 --------------------------------------------------------------

 Alpha MOs
 -- Occupied --
-92.0149 -91.9929 -91.9756 -91.9604 -26.3349 -20.6109 -20.5880 -20.5878
-20.5475 -11.4083 -11.3788 -11.3242 -11.3097 -11.3097 -11.2972 -11.2924
-11.2880 -11.2864 -11.2840 -11.2838 -11.2837 -11.2825 -11.2761 -11.2761
-11.2715 -11.2621 -11.2597 -11.2518 -11.2418  -9.0134  -8.9970  -8.9783
 -8.9630  -6.6942  -6.6936  -6.6931  -6.6783  -6.6776  -6.6763  -6.6593
 -6.6584  -6.6570  -6.6442  -6.6433  -6.6422  -1.6502  -1.4704  -1.4112
 -1.4098  -1.3654  -1.2391  -1.2096  -1.1777  -1.1435  -1.1003  -1.0509
 -1.0469  -1.0291  -1.0082  -0.9999  -0.9715  -0.9599  -0.9494  -0.9404
 -0.8946  -0.8727  -0.8625  -0.8128  -0.7944  -0.7861  -0.7768  -0.7660
 -0.7616  -0.7339  -0.7198  -0.7176  -0.6985  -0.6948  -0.6852  -0.6777
 -0.6751  -0.6719  -0.6562  -0.6492  -0.6361  -0.6300  -0.6220  -0.6156
 -0.6108  -0.6048  -0.5971  -0.5918  -0.5773  -0.5673  -0.5627  -0.5589
 -0.5499  -0.5323  -0.5289  -0.5208  -0.5136  -0.5087  -0.5046  -0.4996
 -0.4852  -0.4830  -0.4797  -0.4667  -0.4605  -0.4602  -0.4590  -0.4477
 -0.4319  -0.3989  -0.3848  -0.3718  -0.3511  -0.2929  -0.2842  -0.2185

          Ground-State Mulliken Net Atomic Charges

     Atom                 Charge (a.u.)
  ----------------------------------------
      1 C                    -0.070963
      2 C                    -0.245069
      3 S                    -0.130852
      4 C                    -0.048754
      5 H                     0.195559
      6 C                    -0.047650
      7 C                     0.218416
      8 C                     0.233565
      9 C                    -0.081669
     10 C                    -0.034144
     11 O                    -0.334867
     12 O                    -0.344077
     13 C                    -0.082634
     14 H                     0.120089
     15 H                     0.092068
     16 H                     0.092961
     17 C                    -0.087547
     18 H                     0.123931
     19 H                     0.093653
     20 H                     0.090884
     21 C                    -0.307952
     22 S                    -0.075519
     23 C                     0.078251
     24 H                     0.200178
     25 C                     0.009242
     26 S                     0.085002
     27 C                    -0.261837
     28 C                    -0.127794
     29 C                    -0.012157
     30 C                     0.384028
     31 C                    -0.148711
     32 S                     0.035472
     33 C                     0.458436
     34 O                    -0.455324
     35 O                    -0.298757
     36 F                    -0.208628
     37 C                    -0.054997
     38 H                     0.116348
     39 H                     0.084137
     40 H                     0.083856
     41 H                     0.214175
     42 H                     0.119467
     43 H                     0.117144
     44 H                     0.213043
  ----------------------------------------
  Sum of atomic charges =     0.000000

                    Cartesian Multipole Moments
 -----------------------------------------------------------------
    Charge (ESU x 10^10)
                -0.0000
    Dipole Moment (Debye)
         X       1.4810      Y       1.4907      Z       2.8054
       Tot       3.5051
    Quadrupole Moments (Debye-Ang)
        XX    -199.8980     XY       6.0461     YY    -169.9120
        XZ      -3.0702     YZ      -5.1290     ZZ    -188.7237

 Total job time:  386.49s(wall), 10954.78s(cpu)
        *  Thank you very much for using Q-Chem.  Have a nice day.  *
