 Q-Chem 5.4, Q-Chem, Inc., Pleasanton, CA (2021)
 Q-Chem 5.4.0 for Intel X86 EM64T Linux

User input:
--------------------------------------------------------------
$molecule
0 1
C	0.272104	-8.519741	0.000687
C	-0.779533	-7.635967	0.194476
S	1.799596	-7.651740	-0.287581
C	-0.399427	-6.261894	0.125787
H	-1.812314	-7.954738	0.383826
C	1.006762	-6.079985	-0.121989
C	1.564994	-4.798382	-0.247488
C	-1.284087	-5.153542	0.258303
C	-0.726260	-3.869626	0.128493
C	0.681918	-3.688927	-0.116725
O	-2.580622	-5.481075	0.517104
O	2.867144	-4.479871	-0.508622
C	3.900814	-5.356026	-0.075811
H	4.847002	-4.790496	-0.173640
H	3.971794	-6.268513	-0.707354
H	3.763397	-5.658187	0.984963
C	-3.621225	-4.546999	0.257016
H	-4.569828	-5.107564	0.357864
H	-3.551910	-4.131473	-0.771211
H	-3.626592	-3.712085	0.990913
C	1.058088	-2.314326	-0.187034
S	-1.523035	-2.295487	0.281899
C	-0.000000	-1.435180	-0.000000
H	2.090565	-1.993211	-0.373653
C	0.000000	0.000000	0.000000
S	0.382139	0.814215	1.510732
C	1.046923	2.242395	0.727629
C	0.383804	0.823142	-1.064665
C	0.969360	2.082453	-0.678287
C	0.357247	0.762277	-2.486150
C	0.891671	1.908660	-3.106916
S	1.415865	3.040689	-1.965735
C	1.003453	2.137318	-4.559972
O	0.611644	1.290019	-5.350277
O	1.548687	3.298916	-5.004375
F	-0.110054	-0.249117	-3.246290
C	1.709479	3.619721	-6.334976
H	2.177001	4.620902	-6.370268
H	0.737443	3.643380	-6.875609
H	2.359363	2.886384	-6.861878
H	1.435800	3.076190	1.321510
H	0.105910	-9.146471	-0.883319
H	0.431555	-9.150570	0.883019
H	-0.195861	-1.444158	-1.062054
$end

$rem
JOBTYPE		SP
EXCHANGE	HF
CORRELATION	pRIMP2
BASIS		cc-pvtz
METHOD		rimp2
AUX_BASIS	rimp2-cc-pvtz
SOLVENT_METHOD	PCM
PURECART	11111
SYMMETRY	false
MEM_TOTAL	110000
SCF_CONVERGENCE = 6
THRESH=10
GUI = 2
$end

$solvent
dielectric 4.90
$end
--------------------------------------------------------------

             Standard Nuclear Orientation (Angstroms)
    I     Atom           X                Y                Z
 ----------------------------------------------------------------
    1      C       0.2721040000    -8.5197410000     0.0006870000
    2      C      -0.7795330000    -7.6359670000     0.1944760000
    3      S       1.7995960000    -7.6517400000    -0.2875810000
    4      C      -0.3994270000    -6.2618940000     0.1257870000
    5      H      -1.8123140000    -7.9547380000     0.3838260000
    6      C       1.0067620000    -6.0799850000    -0.1219890000
    7      C       1.5649940000    -4.7983820000    -0.2474880000
    8      C      -1.2840870000    -5.1535420000     0.2583030000
    9      C      -0.7262600000    -3.8696260000     0.1284930000
   10      C       0.6819180000    -3.6889270000    -0.1167250000
   11      O      -2.5806220000    -5.4810750000     0.5171040000
   12      O       2.8671440000    -4.4798710000    -0.5086220000
   13      C       3.9008140000    -5.3560260000    -0.0758110000
   14      H       4.8470020000    -4.7904960000    -0.1736400000
   15      H       3.9717940000    -6.2685130000    -0.7073540000
   16      H       3.7633970000    -5.6581870000     0.9849630000
   17      C      -3.6212250000    -4.5469990000     0.2570160000
   18      H      -4.5698280000    -5.1075640000     0.3578640000
   19      H      -3.5519100000    -4.1314730000    -0.7712110000
   20      H      -3.6265920000    -3.7120850000     0.9909130000
   21      C       1.0580880000    -2.3143260000    -0.1870340000
   22      S      -1.5230350000    -2.2954870000     0.2818990000
   23      C       0.0000000000    -1.4351800000     0.0000000000
   24      H       2.0905650000    -1.9932110000    -0.3736530000
   25      C       0.0000000000     0.0000000000     0.0000000000
   26      S       0.3821390000     0.8142150000     1.5107320000
   27      C       1.0469230000     2.2423950000     0.7276290000
   28      C       0.3838040000     0.8231420000    -1.0646650000
   29      C       0.9693600000     2.0824530000    -0.6782870000
   30      C       0.3572470000     0.7622770000    -2.4861500000
   31      C       0.8916710000     1.9086600000    -3.1069160000
   32      S       1.4158650000     3.0406890000    -1.9657350000
   33      C       1.0034530000     2.1373180000    -4.5599720000
   34      O       0.6116440000     1.2900190000    -5.3502770000
   35      O       1.5486870000     3.2989160000    -5.0043750000
   36      F      -0.1100540000    -0.2491170000    -3.2462900000
   37      C       1.7094790000     3.6197210000    -6.3349760000
   38      H       2.1770010000     4.6209020000    -6.3702680000
   39      H       0.7374430000     3.6433800000    -6.8756090000
   40      H       2.3593630000     2.8863840000    -6.8618780000
   41      H       1.4358000000     3.0761900000     1.3215100000
   42      H       0.1059100000    -9.1464710000    -0.8833190000
   43      H       0.4315550000    -9.1505700000     0.8830190000
   44      H      -0.1958610000    -1.4441580000    -1.0620540000
 ----------------------------------------------------------------

   11   -2755.3185684656      6.71e-07  Convergence criterion met
 Total energy in the final basis set =    -2755.3185684656
        RIMP2         total energy =     -2760.4134684939 a.u.

                    Orbital Energies (a.u.)
 --------------------------------------------------------------

 Alpha MOs
 -- Occupied --
-92.0125 -91.9988 -91.9749 -91.9577 -26.3390 -20.6143 -20.5868 -20.5859
-20.5535 -11.4134 -11.3796 -11.3086 -11.3062 -11.3058 -11.3036 -11.3022
-11.2984 -11.2897 -11.2888 -11.2835 -11.2826 -11.2817 -11.2787 -11.2724
-11.2721 -11.2575 -11.2573 -11.2491 -11.2359  -9.0113  -9.0027  -8.9772
 -8.9603  -6.6920  -6.6913  -6.6910  -6.6840  -6.6833  -6.6820  -6.6583
 -6.6574  -6.6561  -6.6415  -6.6406  -6.6396  -1.6521  -1.4742  -1.4096
 -1.4084  -1.3699  -1.2407  -1.2076  -1.1746  -1.1441  -1.0994  -1.0530
 -1.0450  -1.0304  -1.0081  -0.9968  -0.9736  -0.9592  -0.9483  -0.9411
 -0.8924  -0.8751  -0.8618  -0.8091  -0.7949  -0.7844  -0.7812  -0.7712
 -0.7617  -0.7335  -0.7205  -0.7192  -0.6976  -0.6923  -0.6872  -0.6805
 -0.6762  -0.6744  -0.6549  -0.6480  -0.6323  -0.6271  -0.6195  -0.6145
 -0.6107  -0.6087  -0.5981  -0.5939  -0.5826  -0.5658  -0.5572  -0.5543
 -0.5483  -0.5323  -0.5284  -0.5224  -0.5123  -0.5070  -0.5034  -0.5010
 -0.4882  -0.4852  -0.4748  -0.4687  -0.4638  -0.4630  -0.4595  -0.4453
 -0.4206  -0.4045  -0.3843  -0.3694  -0.3502  -0.2949  -0.2885  -0.2201

          Ground-State Mulliken Net Atomic Charges

     Atom                 Charge (a.u.)
  ----------------------------------------
      1 C                    -0.070207
      2 C                    -0.261849
      3 S                    -0.135956
      4 C                    -0.044664
      5 H                     0.193169
      6 C                    -0.052618
      7 C                     0.223146
      8 C                     0.229200
      9 C                    -0.085131
     10 C                    -0.039707
     11 O                    -0.335632
     12 O                    -0.343426
     13 C                    -0.082470
     14 H                     0.119750
     15 H                     0.092138
     16 H                     0.092524
     17 C                    -0.086301
     18 H                     0.122646
     19 H                     0.092631
     20 H                     0.089933
     21 C                    -0.265650
     22 S                    -0.073480
     23 C                     0.055118
     24 H                     0.206914
     25 C                    -0.065425
     26 S                     0.099601
     27 C                    -0.217305
     28 C                    -0.113052
     29 C                    -0.002026
     30 C                     0.370191
     31 C                    -0.129968
     32 S                     0.049277
     33 C                     0.458714
     34 O                    -0.445859
     35 O                    -0.297237
     36 F                    -0.213498
     37 C                    -0.054920
     38 H                     0.117130
     39 H                     0.085134
     40 H                     0.085097
     41 H                     0.216063
     42 H                     0.117225
     43 H                     0.114640
     44 H                     0.186141
  ----------------------------------------
  Sum of atomic charges =     0.000000

                    Cartesian Multipole Moments
 -----------------------------------------------------------------
    Charge (ESU x 10^10)
                -0.0000
    Dipole Moment (Debye)
         X       1.5949      Y       3.9762      Z       2.3653
       Tot       4.8938
    Quadrupole Moments (Debye-Ang)
        XX    -180.5213     XY      10.1124     YY    -177.5116
        XZ      -2.1512     YZ     -11.1676     ZZ    -204.6491

 Total job time:  334.76s(wall), 10325.51s(cpu)
        *  Thank you very much for using Q-Chem.  Have a nice day.  *
