 Q-Chem 5.4, Q-Chem, Inc., Pleasanton, CA (2021)
 Q-Chem 5.4.0 for Intel X86 EM64T Linux

User input:
--------------------------------------------------------------
$molecule
0 1
C	0.272104	-8.519741	0.000687
C	-0.779533	-7.635967	0.194476
S	1.799596	-7.651740	-0.287581
C	-0.399427	-6.261894	0.125787
H	-1.812314	-7.954738	0.383826
C	1.006762	-6.079985	-0.121989
C	1.564994	-4.798382	-0.247488
C	-1.284087	-5.153542	0.258303
C	-0.726260	-3.869626	0.128493
C	0.681918	-3.688927	-0.116725
O	-2.580622	-5.481075	0.517104
O	2.867144	-4.479871	-0.508622
C	3.900814	-5.356026	-0.075811
H	4.847002	-4.790496	-0.173640
H	3.971794	-6.268513	-0.707354
H	3.763397	-5.658187	0.984963
C	-3.621225	-4.546999	0.257016
H	-4.569828	-5.107564	0.357864
H	-3.551910	-4.131473	-0.771211
H	-3.626592	-3.712085	0.990913
C	1.058088	-2.314326	-0.187034
S	-1.523035	-2.295487	0.281899
C	0.000000	-1.435180	0.000000
H	2.090565	-1.993211	-0.373653
C	0.000000	0.000000	0.000000
S	0.234946	0.868203	1.510732
C	0.641630	2.390125	0.727629
C	0.235036	0.877284	-1.064665
C	0.593019	2.219143	-0.678287
C	0.219452	0.812732	-2.486150
C	0.546689	2.034501	-3.106916
S	0.866345	3.240357	-1.965735
C	0.617067	2.279095	-4.559972
O	0.378342	1.376631	-5.350277
O	0.952308	3.517725	-5.004375
F	-0.065123	-0.264443	-3.246290
C	1.054950	3.861577	-6.334976
H	1.341516	4.928732	-6.370268
H	0.093573	3.716085	-6.875609
H	1.822303	3.252232	-6.861878
H	0.879812	3.278780	1.321510
H	0.105910	-9.146471	-0.883319
H	0.431555	-9.150570	0.883019
H	-0.195861	-1.444158	-1.062054
$end

$rem
JOBTYPE		SP
EXCHANGE	HF
CORRELATION	pRIMP2
BASIS		cc-pvtz
METHOD		rimp2
AUX_BASIS	rimp2-cc-pvtz
SOLVENT_METHOD	PCM
PURECART	11111
SYMMETRY	false
MEM_TOTAL	110000
SCF_CONVERGENCE = 6
THRESH=10
GUI = 2
$end

$solvent
dielectric 4.90
$end
--------------------------------------------------------------

             Standard Nuclear Orientation (Angstroms)
    I     Atom           X                Y                Z
 ----------------------------------------------------------------
    1      C       0.2721040000    -8.5197410000     0.0006870000
    2      C      -0.7795330000    -7.6359670000     0.1944760000
    3      S       1.7995960000    -7.6517400000    -0.2875810000
    4      C      -0.3994270000    -6.2618940000     0.1257870000
    5      H      -1.8123140000    -7.9547380000     0.3838260000
    6      C       1.0067620000    -6.0799850000    -0.1219890000
    7      C       1.5649940000    -4.7983820000    -0.2474880000
    8      C      -1.2840870000    -5.1535420000     0.2583030000
    9      C      -0.7262600000    -3.8696260000     0.1284930000
   10      C       0.6819180000    -3.6889270000    -0.1167250000
   11      O      -2.5806220000    -5.4810750000     0.5171040000
   12      O       2.8671440000    -4.4798710000    -0.5086220000
   13      C       3.9008140000    -5.3560260000    -0.0758110000
   14      H       4.8470020000    -4.7904960000    -0.1736400000
   15      H       3.9717940000    -6.2685130000    -0.7073540000
   16      H       3.7633970000    -5.6581870000     0.9849630000
   17      C      -3.6212250000    -4.5469990000     0.2570160000
   18      H      -4.5698280000    -5.1075640000     0.3578640000
   19      H      -3.5519100000    -4.1314730000    -0.7712110000
   20      H      -3.6265920000    -3.7120850000     0.9909130000
   21      C       1.0580880000    -2.3143260000    -0.1870340000
   22      S      -1.5230350000    -2.2954870000     0.2818990000
   23      C       0.0000000000    -1.4351800000     0.0000000000
   24      H       2.0905650000    -1.9932110000    -0.3736530000
   25      C       0.0000000000     0.0000000000     0.0000000000
   26      S       0.2349460000     0.8682030000     1.5107320000
   27      C       0.6416300000     2.3901250000     0.7276290000
   28      C       0.2350360000     0.8772840000    -1.0646650000
   29      C       0.5930190000     2.2191430000    -0.6782870000
   30      C       0.2194520000     0.8127320000    -2.4861500000
   31      C       0.5466890000     2.0345010000    -3.1069160000
   32      S       0.8663450000     3.2403570000    -1.9657350000
   33      C       0.6170670000     2.2790950000    -4.5599720000
   34      O       0.3783420000     1.3766310000    -5.3502770000
   35      O       0.9523080000     3.5177250000    -5.0043750000
   36      F      -0.0651230000    -0.2644430000    -3.2462900000
   37      C       1.0549500000     3.8615770000    -6.3349760000
   38      H       1.3415160000     4.9287320000    -6.3702680000
   39      H       0.0935730000     3.7160850000    -6.8756090000
   40      H       1.8223030000     3.2522320000    -6.8618780000
   41      H       0.8798120000     3.2787800000     1.3215100000
   42      H       0.1059100000    -9.1464710000    -0.8833190000
   43      H       0.4315550000    -9.1505700000     0.8830190000
   44      H      -0.1958610000    -1.4441580000    -1.0620540000
 ----------------------------------------------------------------

   11   -2755.3255424787      6.89e-07  Convergence criterion met
 Total energy in the final basis set =    -2755.3255424787
        RIMP2         total energy =     -2760.4179147373 a.u.

                    Orbital Energies (a.u.)
 --------------------------------------------------------------

 Alpha MOs
 -- Occupied --
-92.0127 -91.9974 -91.9765 -91.9579 -26.3390 -20.6138 -20.5870 -20.5865
-20.5526 -11.4127 -11.3797 -11.3108 -11.3088 -11.3067 -11.3018 -11.2988
-11.2976 -11.2894 -11.2874 -11.2840 -11.2826 -11.2824 -11.2800 -11.2727
-11.2725 -11.2579 -11.2577 -11.2494 -11.2366  -9.0114  -9.0014  -8.9788
 -8.9605  -6.6921  -6.6915  -6.6911  -6.6827  -6.6820  -6.6807  -6.6599
 -6.6590  -6.6577  -6.6418  -6.6409  -6.6398  -1.6522  -1.4736  -1.4100
 -1.4086  -1.3692  -1.2396  -1.2081  -1.1748  -1.1437  -1.0998  -1.0524
 -1.0455  -1.0299  -1.0087  -0.9973  -0.9731  -0.9594  -0.9485  -0.9410
 -0.8929  -0.8747  -0.8625  -0.8091  -0.7944  -0.7848  -0.7810  -0.7712
 -0.7623  -0.7337  -0.7203  -0.7195  -0.6977  -0.6923  -0.6874  -0.6801
 -0.6761  -0.6741  -0.6552  -0.6482  -0.6325  -0.6276  -0.6198  -0.6147
 -0.6109  -0.6081  -0.5970  -0.5934  -0.5835  -0.5659  -0.5576  -0.5538
 -0.5485  -0.5330  -0.5289  -0.5224  -0.5126  -0.5073  -0.5031  -0.5014
 -0.4875  -0.4854  -0.4760  -0.4694  -0.4633  -0.4627  -0.4602  -0.4458
 -0.4215  -0.4047  -0.3850  -0.3698  -0.3501  -0.2935  -0.2890  -0.2206

          Ground-State Mulliken Net Atomic Charges

     Atom                 Charge (a.u.)
  ----------------------------------------
      1 C                    -0.070296
      2 C                    -0.259969
      3 S                    -0.135386
      4 C                    -0.044934
      5 H                     0.193368
      6 C                    -0.052391
      7 C                     0.223486
      8 C                     0.230358
      9 C                    -0.086496
     10 C                    -0.050499
     11 O                    -0.335422
     12 O                    -0.343289
     13 C                    -0.082502
     14 H                     0.119896
     15 H                     0.092125
     16 H                     0.092521
     17 C                    -0.086357
     18 H                     0.122782
     19 H                     0.092861
     20 H                     0.089989
     21 C                    -0.245583
     22 S                    -0.069918
     23 C                     0.054128
     24 H                     0.206459
     25 C                    -0.080119
     26 S                     0.098839
     27 C                    -0.226423
     28 C                    -0.098898
     29 C                    -0.005282
     30 C                     0.379342
     31 C                    -0.132065
     32 S                     0.044056
     33 C                     0.459354
     34 O                    -0.447400
     35 O                    -0.297309
     36 F                    -0.214513
     37 C                    -0.055041
     38 H                     0.117016
     39 H                     0.085024
     40 H                     0.084907
     41 H                     0.215454
     42 H                     0.117450
     43 H                     0.114880
     44 H                     0.185797
  ----------------------------------------
  Sum of atomic charges =     0.000000

                    Cartesian Multipole Moments
 -----------------------------------------------------------------
    Charge (ESU x 10^10)
                -0.0000
    Dipole Moment (Debye)
         X       0.8093      Y       3.8030      Z       2.4545
       Tot       4.5981
    Quadrupole Moments (Debye-Ang)
        XX    -182.3646     XY       7.8274     YY    -175.0803
        XZ      -0.1784     YZ     -11.6816     ZZ    -205.1484

 Total job time:  327.89s(wall), 10617.94s(cpu)
        *  Thank you very much for using Q-Chem.  Have a nice day.  *
