 Q-Chem 5.4, Q-Chem, Inc., Pleasanton, CA (2021)
 Q-Chem 5.4.0 for Intel X86 EM64T Linux

User input:
--------------------------------------------------------------
$molecule
0 1
C	-0.272104	-8.519741	-0.000687
C	0.779533	-7.635967	-0.194476
S	-1.799596	-7.651740	0.287581
C	0.399427	-6.261894	-0.125787
H	1.812314	-7.954738	-0.383826
C	-1.006762	-6.079985	0.121989
C	-1.564994	-4.798382	0.247488
C	1.284087	-5.153542	-0.258303
C	0.726260	-3.869626	-0.128493
C	-0.681918	-3.688927	0.116725
O	2.580622	-5.481075	-0.517104
O	-2.867144	-4.479871	0.508622
C	-3.900814	-5.356026	0.075811
H	-4.847002	-4.790496	0.173640
H	-3.971794	-6.268513	0.707354
H	-3.763397	-5.658187	-0.984963
C	3.621225	-4.546999	-0.257016
H	4.569828	-5.107564	-0.357864
H	3.551910	-4.131473	0.771211
H	3.626592	-3.712085	-0.990913
C	-1.058088	-2.314326	0.187034
S	1.523035	-2.295487	-0.281899
C	-0.000000	-1.435180	-0.000000
H	-2.090565	-1.993211	0.373653
C	0.000000	0.000000	0.000000
S	0.158383	0.885376	1.510732
C	0.430876	2.436951	0.727629
C	0.157682	0.894430	-1.064665
C	0.397351	2.262384	-0.678287
C	0.147783	0.828765	-2.486150
C	0.367291	2.074406	-3.106916
S	0.580633	3.303533	-1.965735
C	0.416083	2.324204	-4.559972
O	0.256921	1.404367	-5.350277
O	0.642094	3.587338	-5.004375
F	-0.041828	-0.269113	-3.246290
C	0.714377	3.938827	-6.334976
H	0.906844	5.026898	-6.370268
H	-0.230661	3.710099	-6.875609
H	1.531918	3.398681	-6.861878
H	0.590699	3.342984	1.321510
H	-0.105910	-9.146471	0.883319
H	-0.431555	-9.150570	-0.883019
H	0.195861	-1.444158	1.062054
$end

$rem
JOBTYPE		SP
EXCHANGE	HF
CORRELATION	pRIMP2
BASIS		cc-pvtz
METHOD		rimp2
AUX_BASIS	rimp2-cc-pvtz
SOLVENT_METHOD	PCM
PURECART	11111
SYMMETRY	false
MEM_TOTAL	110000
SCF_CONVERGENCE = 6
THRESH=10
GUI = 2
$end

$solvent
dielectric 4.90
$end
--------------------------------------------------------------

             Standard Nuclear Orientation (Angstroms)
    I     Atom           X                Y                Z
 ----------------------------------------------------------------
    1      C      -0.2721040000    -8.5197410000    -0.0006870000
    2      C       0.7795330000    -7.6359670000    -0.1944760000
    3      S      -1.7995960000    -7.6517400000     0.2875810000
    4      C       0.3994270000    -6.2618940000    -0.1257870000
    5      H       1.8123140000    -7.9547380000    -0.3838260000
    6      C      -1.0067620000    -6.0799850000     0.1219890000
    7      C      -1.5649940000    -4.7983820000     0.2474880000
    8      C       1.2840870000    -5.1535420000    -0.2583030000
    9      C       0.7262600000    -3.8696260000    -0.1284930000
   10      C      -0.6819180000    -3.6889270000     0.1167250000
   11      O       2.5806220000    -5.4810750000    -0.5171040000
   12      O      -2.8671440000    -4.4798710000     0.5086220000
   13      C      -3.9008140000    -5.3560260000     0.0758110000
   14      H      -4.8470020000    -4.7904960000     0.1736400000
   15      H      -3.9717940000    -6.2685130000     0.7073540000
   16      H      -3.7633970000    -5.6581870000    -0.9849630000
   17      C       3.6212250000    -4.5469990000    -0.2570160000
   18      H       4.5698280000    -5.1075640000    -0.3578640000
   19      H       3.5519100000    -4.1314730000     0.7712110000
   20      H       3.6265920000    -3.7120850000    -0.9909130000
   21      C      -1.0580880000    -2.3143260000     0.1870340000
   22      S       1.5230350000    -2.2954870000    -0.2818990000
   23      C       0.0000000000    -1.4351800000     0.0000000000
   24      H      -2.0905650000    -1.9932110000     0.3736530000
   25      C       0.0000000000     0.0000000000     0.0000000000
   26      S       0.1583830000     0.8853760000     1.5107320000
   27      C       0.4308760000     2.4369510000     0.7276290000
   28      C       0.1576820000     0.8944300000    -1.0646650000
   29      C       0.3973510000     2.2623840000    -0.6782870000
   30      C       0.1477830000     0.8287650000    -2.4861500000
   31      C       0.3672910000     2.0744060000    -3.1069160000
   32      S       0.5806330000     3.3035330000    -1.9657350000
   33      C       0.4160830000     2.3242040000    -4.5599720000
   34      O       0.2569210000     1.4043670000    -5.3502770000
   35      O       0.6420940000     3.5873380000    -5.0043750000
   36      F      -0.0418280000    -0.2691130000    -3.2462900000
   37      C       0.7143770000     3.9388270000    -6.3349760000
   38      H       0.9068440000     5.0268980000    -6.3702680000
   39      H      -0.2306610000     3.7100990000    -6.8756090000
   40      H       1.5319180000     3.3986810000    -6.8618780000
   41      H       0.5906990000     3.3429840000     1.3215100000
   42      H      -0.1059100000    -9.1464710000     0.8833190000
   43      H      -0.4315550000    -9.1505700000    -0.8830190000
   44      H       0.1958610000    -1.4441580000     1.0620540000
 ----------------------------------------------------------------

   11   -2755.3248964613      7.58e-07  Convergence criterion met
 Total energy in the final basis set =    -2755.3248964613
        RIMP2         total energy =     -2760.4152578313 a.u.

                    Orbital Energies (a.u.)
 --------------------------------------------------------------

 Alpha MOs
 -- Occupied --
-92.0193 -91.9958 -91.9778 -91.9577 -26.3351 -20.6128 -20.5870 -20.5865
-20.5512 -11.4113 -11.3777 -11.3113 -11.3088 -11.3068 -11.2994 -11.2980
-11.2968 -11.2888 -11.2842 -11.2827 -11.2825 -11.2815 -11.2808 -11.2724
-11.2723 -11.2578 -11.2570 -11.2492 -11.2361  -9.0176  -8.9998  -8.9799
 -8.9603  -6.6983  -6.6977  -6.6973  -6.6811  -6.6804  -6.6791  -6.6610
 -6.6601  -6.6588  -6.6415  -6.6406  -6.6396  -1.6480  -1.4726  -1.4100
 -1.4087  -1.3680  -1.2382  -1.2088  -1.1750  -1.1441  -1.0990  -1.0503
 -1.0454  -1.0315  -1.0083  -0.9973  -0.9727  -0.9595  -0.9483  -0.9404
 -0.8930  -0.8715  -0.8645  -0.8090  -0.7930  -0.7848  -0.7768  -0.7745
 -0.7653  -0.7331  -0.7212  -0.7162  -0.6969  -0.6924  -0.6814  -0.6791
 -0.6726  -0.6642  -0.6560  -0.6483  -0.6334  -0.6292  -0.6196  -0.6146
 -0.6108  -0.6072  -0.5959  -0.5925  -0.5825  -0.5642  -0.5602  -0.5556
 -0.5492  -0.5348  -0.5279  -0.5218  -0.5126  -0.5072  -0.5035  -0.5014
 -0.4875  -0.4859  -0.4772  -0.4699  -0.4622  -0.4618  -0.4609  -0.4461
 -0.4231  -0.4030  -0.3853  -0.3699  -0.3511  -0.2924  -0.2891  -0.2206

          Ground-State Mulliken Net Atomic Charges

     Atom                 Charge (a.u.)
  ----------------------------------------
      1 C                    -0.070103
      2 C                    -0.261035
      3 S                    -0.136499
      4 C                    -0.043320
      5 H                     0.193244
      6 C                    -0.052730
      7 C                     0.228309
      8 C                     0.224220
      9 C                    -0.075220
     10 C                    -0.051218
     11 O                    -0.334825
     12 O                    -0.343506
     13 C                    -0.082489
     14 H                     0.119804
     15 H                     0.091790
     16 H                     0.093336
     17 C                    -0.086627
     18 H                     0.123081
     19 H                     0.091720
     20 H                     0.090962
     21 C                    -0.261199
     22 S                    -0.071550
     23 C                     0.069779
     24 H                     0.203002
     25 C                    -0.069050
     26 S                     0.102423
     27 C                    -0.238248
     28 C                    -0.101336
     29 C                    -0.000030
     30 C                     0.394972
     31 C                    -0.155962
     32 S                     0.040337
     33 C                     0.460360
     34 O                    -0.448214
     35 O                    -0.297612
     36 F                    -0.211888
     37 C                    -0.055026
     38 H                     0.116655
     39 H                     0.084782
     40 H                     0.084791
     41 H                     0.216737
     42 H                     0.116971
     43 H                     0.114950
     44 H                     0.185462
  ----------------------------------------
  Sum of atomic charges =     0.000000

                    Cartesian Multipole Moments
 -----------------------------------------------------------------
    Charge (ESU x 10^10)
                 0.0000
    Dipole Moment (Debye)
         X       0.8804      Y       3.8627      Z       3.6937
       Tot       5.4165
    Quadrupole Moments (Debye-Ang)
        XX    -182.9684     XY      -0.9103     YY    -175.5949
        XZ       0.8140     YZ      -9.9542     ZZ    -205.3653

 Total job time:  347.45s(wall), 10702.21s(cpu)
        *  Thank you very much for using Q-Chem.  Have a nice day.  *
