 Q-Chem 5.4, Q-Chem, Inc., Pleasanton, CA (2021)
 Q-Chem 5.4.0 for Intel X86 EM64T Linux

User input:
--------------------------------------------------------------
$molecule
0 1
C	0.135457	-8.519741	0.235993
C	-0.558188	-7.635967	-0.577858
S	1.148850	-7.651740	1.414705
C	-0.308648	-6.261894	-0.283020
H	-1.238560	-7.954738	-1.377597
C	0.609026	-6.079985	0.810887
C	0.996828	-4.798382	1.231581
C	-0.865740	-5.153542	-0.982901
C	-0.474408	-3.869626	-0.564713
C	0.442046	-3.688927	0.532196
O	-1.738137	-5.481075	-1.976332
O	1.874052	-4.479871	2.228709
C	2.016062	-5.356026	3.340298
H	2.573877	-4.790496	4.110807
H	2.598484	-6.268513	3.085998
H	1.028695	-5.658187	3.751679
C	-2.033195	-4.546999	-3.007565
H	-2.594833	-5.107564	-3.778655
H	-1.108067	-4.131473	-3.461650
H	-2.671451	-3.712085	-2.645264
C	0.691020	-2.314326	0.822814
S	-1.005649	-2.295487	-1.178037
C	0.000000	-1.435180	0.000000
H	1.368875	-1.993211	1.623656
C	0.000000	0.000000	0.000000
S	0.780044	0.447780	1.510732
C	2.143774	1.236372	0.727629
C	0.786529	0.454137	-1.064665
C	1.988499	1.149844	-0.678287
C	0.729864	0.419512	-2.486150
C	1.825177	1.052041	-3.106916
S	2.903877	1.678680	-1.965735
C	2.047896	1.175232	-4.559972
O	1.240953	0.705897	-5.350277
O	3.160791	1.814024	-5.004375
F	-0.233039	-0.140940	-3.246290
C	3.476510	1.984585	-6.334976
H	4.433735	2.536545	-6.370268
H	2.693835	2.561503	-6.875609
H	3.588239	1.011113	-6.861878
H	2.940569	1.696327	1.321510
H	0.817932	-9.146471	-0.349939
H	-0.548939	-9.150570	0.815247
H	0.821835	-1.444158	-0.700647
$end

$rem
JOBTYPE		SP
EXCHANGE	HF
CORRELATION	pRIMP2
BASIS		cc-pvtz
METHOD		rimp2
AUX_BASIS	rimp2-cc-pvtz
SOLVENT_METHOD	PCM
PURECART	11111
SYMMETRY	false
MEM_TOTAL	110000
SCF_CONVERGENCE = 6
THRESH=10
GUI = 2
$end

$solvent
dielectric 4.90
$end
--------------------------------------------------------------

             Standard Nuclear Orientation (Angstroms)
    I     Atom           X                Y                Z
 ----------------------------------------------------------------
    1      C       0.1354570000    -8.5197410000     0.2359930000
    2      C      -0.5581880000    -7.6359670000    -0.5778580000
    3      S       1.1488500000    -7.6517400000     1.4147050000
    4      C      -0.3086480000    -6.2618940000    -0.2830200000
    5      H      -1.2385600000    -7.9547380000    -1.3775970000
    6      C       0.6090260000    -6.0799850000     0.8108870000
    7      C       0.9968280000    -4.7983820000     1.2315810000
    8      C      -0.8657400000    -5.1535420000    -0.9829010000
    9      C      -0.4744080000    -3.8696260000    -0.5647130000
   10      C       0.4420460000    -3.6889270000     0.5321960000
   11      O      -1.7381370000    -5.4810750000    -1.9763320000
   12      O       1.8740520000    -4.4798710000     2.2287090000
   13      C       2.0160620000    -5.3560260000     3.3402980000
   14      H       2.5738770000    -4.7904960000     4.1108070000
   15      H       2.5984840000    -6.2685130000     3.0859980000
   16      H       1.0286950000    -5.6581870000     3.7516790000
   17      C      -2.0331950000    -4.5469990000    -3.0075650000
   18      H      -2.5948330000    -5.1075640000    -3.7786550000
   19      H      -1.1080670000    -4.1314730000    -3.4616500000
   20      H      -2.6714510000    -3.7120850000    -2.6452640000
   21      C       0.6910200000    -2.3143260000     0.8228140000
   22      S      -1.0056490000    -2.2954870000    -1.1780370000
   23      C       0.0000000000    -1.4351800000     0.0000000000
   24      H       1.3688750000    -1.9932110000     1.6236560000
   25      C       0.0000000000     0.0000000000     0.0000000000
   26      S       0.7800440000     0.4477800000     1.5107320000
   27      C       2.1437740000     1.2363720000     0.7276290000
   28      C       0.7865290000     0.4541370000    -1.0646650000
   29      C       1.9884990000     1.1498440000    -0.6782870000
   30      C       0.7298640000     0.4195120000    -2.4861500000
   31      C       1.8251770000     1.0520410000    -3.1069160000
   32      S       2.9038770000     1.6786800000    -1.9657350000
   33      C       2.0478960000     1.1752320000    -4.5599720000
   34      O       1.2409530000     0.7058970000    -5.3502770000
   35      O       3.1607910000     1.8140240000    -5.0043750000
   36      F      -0.2330390000    -0.1409400000    -3.2462900000
   37      C       3.4765100000     1.9845850000    -6.3349760000
   38      H       4.4337350000     2.5365450000    -6.3702680000
   39      H       2.6938350000     2.5615030000    -6.8756090000
   40      H       3.5882390000     1.0111130000    -6.8618780000
   41      H       2.9405690000     1.6963270000     1.3215100000
   42      H       0.8179320000    -9.1464710000    -0.3499390000
   43      H      -0.5489390000    -9.1505700000     0.8152470000
   44      H       0.8218350000    -1.4441580000    -0.7006470000
 ----------------------------------------------------------------

   11   -2755.2409346288      9.26e-07  Convergence criterion met
 Total energy in the final basis set =    -2755.2409346288
        RIMP2         total energy =     -2760.3597251532 a.u.

                    Orbital Energies (a.u.)
 --------------------------------------------------------------

 Alpha MOs
 -- Occupied --
-92.0213 -92.0088 -91.9679 -91.9546 -26.3349 -20.6163 -20.5862 -20.5819
-20.5571 -11.4166 -11.3779 -11.3234 -11.3119 -11.3071 -11.3041 -11.2995
-11.2912 -11.2909 -11.2834 -11.2822 -11.2806 -11.2787 -11.2750 -11.2717
-11.2676 -11.2543 -11.2500 -11.2458 -11.2278  -9.0202  -9.0121  -8.9707
 -8.9573  -6.7007  -6.6999  -6.6999  -6.6933  -6.6927  -6.6914  -6.6518
 -6.6509  -6.6497  -6.6385  -6.6376  -6.6366  -1.6489  -1.4765  -1.4082
 -1.4051  -1.3726  -1.2540  -1.2074  -1.1739  -1.1472  -1.0977  -1.0570
 -1.0424  -1.0355  -1.0051  -0.9945  -0.9773  -0.9580  -0.9468  -0.9402
 -0.8900  -0.8805  -0.8545  -0.8139  -0.7964  -0.7859  -0.7786  -0.7641
 -0.7574  -0.7319  -0.7204  -0.7179  -0.6994  -0.6914  -0.6903  -0.6823
 -0.6788  -0.6757  -0.6527  -0.6461  -0.6323  -0.6285  -0.6163  -0.6143
 -0.6121  -0.6088  -0.6051  -0.5933  -0.5743  -0.5629  -0.5598  -0.5548
 -0.5504  -0.5342  -0.5261  -0.5217  -0.5099  -0.5062  -0.5058  -0.4967
 -0.4906  -0.4848  -0.4728  -0.4673  -0.4650  -0.4597  -0.4531  -0.4422
 -0.4290  -0.3934  -0.3781  -0.3662  -0.3501  -0.3023  -0.2847  -0.2105

          Ground-State Mulliken Net Atomic Charges

     Atom                 Charge (a.u.)
  ----------------------------------------
      1 C                    -0.068304
      2 C                    -0.285195
      3 S                    -0.144931
      4 C                    -0.037562
      5 H                     0.190457
      6 C                    -0.054189
      7 C                     0.224616
      8 C                     0.212879
      9 C                    -0.063276
     10 C                    -0.064319
     11 O                    -0.336815
     12 O                    -0.345404
     13 C                    -0.082616
     14 H                     0.118597
     15 H                     0.092359
     16 H                     0.092774
     17 C                    -0.086842
     18 H                     0.121613
     19 H                     0.091389
     20 H                     0.089834
     21 C                    -0.259008
     22 S                    -0.098787
     23 C                     0.069963
     24 H                     0.202325
     25 C                    -0.158180
     26 S                     0.129396
     27 C                    -0.177208
     28 C                    -0.040067
     29 C                    -0.019852
     30 C                     0.335254
     31 C                    -0.115568
     32 S                     0.081359
     33 C                     0.457730
     34 O                    -0.439509
     35 O                    -0.297070
     36 F                    -0.206687
     37 C                    -0.054745
     38 H                     0.117542
     39 H                     0.085767
     40 H                     0.085756
     41 H                     0.222653
     42 H                     0.113973
     43 H                     0.111495
     44 H                     0.188402
  ----------------------------------------
  Sum of atomic charges =     0.000000

                    Cartesian Multipole Moments
 -----------------------------------------------------------------
    Charge (ESU x 10^10)
                -0.0000
    Dipole Moment (Debye)
         X       5.4457      Y       4.7482      Z       2.4460
       Tot       7.6278
    Quadrupole Moments (Debye-Ang)
        XX    -184.0010     XY      11.0779     YY    -199.9681
        XZ      -5.1234     YZ      -3.8874     ZZ    -186.2860

 Total job time:  333.64s(wall), 10871.20s(cpu)
        *  Thank you very much for using Q-Chem.  Have a nice day.  *
