 Q-Chem 5.4, Q-Chem, Inc., Pleasanton, CA (2021)
 Q-Chem 5.4.0 for Intel X86 EM64T Linux

User input:
--------------------------------------------------------------
$molecule
0 1
C	-0.174379	-8.519741	-0.208886
C	0.650052	-7.635967	0.472151
S	-1.377058	-7.651740	-1.193717
C	0.353105	-6.261894	0.225125
H	1.458961	-7.954738	1.141594
C	-0.740583	-6.079985	-0.692811
C	-1.195546	-4.798382	-1.039773
C	1.023267	-5.153542	0.817634
C	0.565262	-3.869626	0.473754
C	-0.527745	-3.688927	-0.447350
O	2.054917	-5.481075	1.644483
O	-2.232592	-4.479871	-1.869424
C	-2.565470	-5.356026	-2.939466
H	-3.248608	-4.790496	-3.601405
H	-3.094885	-6.268513	-2.587892
H	-1.664539	-5.658187	-3.516052
C	2.524564	-4.546999	2.608813
H	3.211568	-5.107564	3.270661
H	1.692342	-4.131473	3.216646
H	3.090211	-3.712085	2.141184
C	-0.823402	-2.314326	-0.690319
S	1.194935	-2.295487	0.985511
C	-0.000000	-1.435180	-0.000000
H	-1.630024	-1.993211	-1.361286
C	0.000000	0.000000	0.000000
S	0.690437	0.576430	1.510732
C	1.896512	1.589852	0.727629
C	0.695720	0.583817	-1.064665
C	1.758621	1.477674	-0.678287
C	0.645928	0.539878	-2.486150
C	1.614763	1.352997	-3.106916
S	2.568261	2.157430	-1.965735
C	1.812707	1.512991	-4.559972
O	1.099523	0.910662	-5.350277
O	2.797769	2.335330	-5.004375
F	-0.205024	-0.179266	-3.246290
C	3.079074	2.558124	-6.334976
H	3.925910	3.267919	-6.370268
H	2.208109	2.990367	-6.875609
H	3.358147	1.618843	-6.861878
H	2.601331	2.181180	1.321510
H	-0.744739	-9.146471	0.486655
H	0.399033	-9.150570	-0.898184
H	-0.687683	-1.444158	0.832713
$end

$rem
JOBTYPE		SP
EXCHANGE	HF
CORRELATION	pRIMP2
BASIS		cc-pvtz
METHOD		rimp2
AUX_BASIS	rimp2-cc-pvtz
SOLVENT_METHOD	PCM
PURECART	11111
SYMMETRY	false
MEM_TOTAL	110000
SCF_CONVERGENCE = 6
THRESH=10
GUI = 2
$end

$solvent
dielectric 4.90
$end
--------------------------------------------------------------

             Standard Nuclear Orientation (Angstroms)
    I     Atom           X                Y                Z
 ----------------------------------------------------------------
    1      C      -0.1743790000    -8.5197410000    -0.2088860000
    2      C       0.6500520000    -7.6359670000     0.4721510000
    3      S      -1.3770580000    -7.6517400000    -1.1937170000
    4      C       0.3531050000    -6.2618940000     0.2251250000
    5      H       1.4589610000    -7.9547380000     1.1415940000
    6      C      -0.7405830000    -6.0799850000    -0.6928110000
    7      C      -1.1955460000    -4.7983820000    -1.0397730000
    8      C       1.0232670000    -5.1535420000     0.8176340000
    9      C       0.5652620000    -3.8696260000     0.4737540000
   10      C      -0.5277450000    -3.6889270000    -0.4473500000
   11      O       2.0549170000    -5.4810750000     1.6444830000
   12      O      -2.2325920000    -4.4798710000    -1.8694240000
   13      C      -2.5654700000    -5.3560260000    -2.9394660000
   14      H      -3.2486080000    -4.7904960000    -3.6014050000
   15      H      -3.0948850000    -6.2685130000    -2.5878920000
   16      H      -1.6645390000    -5.6581870000    -3.5160520000
   17      C       2.5245640000    -4.5469990000     2.6088130000
   18      H       3.2115680000    -5.1075640000     3.2706610000
   19      H       1.6923420000    -4.1314730000     3.2166460000
   20      H       3.0902110000    -3.7120850000     2.1411840000
   21      C      -0.8234020000    -2.3143260000    -0.6903190000
   22      S       1.1949350000    -2.2954870000     0.9855110000
   23      C       0.0000000000    -1.4351800000     0.0000000000
   24      H      -1.6300240000    -1.9932110000    -1.3612860000
   25      C       0.0000000000     0.0000000000     0.0000000000
   26      S       0.6904370000     0.5764300000     1.5107320000
   27      C       1.8965120000     1.5898520000     0.7276290000
   28      C       0.6957200000     0.5838170000    -1.0646650000
   29      C       1.7586210000     1.4776740000    -0.6782870000
   30      C       0.6459280000     0.5398780000    -2.4861500000
   31      C       1.6147630000     1.3529970000    -3.1069160000
   32      S       2.5682610000     2.1574300000    -1.9657350000
   33      C       1.8127070000     1.5129910000    -4.5599720000
   34      O       1.0995230000     0.9106620000    -5.3502770000
   35      O       2.7977690000     2.3353300000    -5.0043750000
   36      F      -0.2050240000    -0.1792660000    -3.2462900000
   37      C       3.0790740000     2.5581240000    -6.3349760000
   38      H       3.9259100000     3.2679190000    -6.3702680000
   39      H       2.2081090000     2.9903670000    -6.8756090000
   40      H       3.3581470000     1.6188430000    -6.8618780000
   41      H       2.6013310000     2.1811800000     1.3215100000
   42      H      -0.7447390000    -9.1464710000     0.4866550000
   43      H       0.3990330000    -9.1505700000    -0.8981840000
   44      H      -0.6876830000    -1.4441580000     0.8327130000
 ----------------------------------------------------------------

   11   -2755.2749605840      7.53e-07  Convergence criterion met
 Total energy in the final basis set =    -2755.2749605840
        RIMP2         total energy =     -2760.3822753637 a.u.

                    Orbital Energies (a.u.)
 --------------------------------------------------------------

 Alpha MOs
 -- Occupied --
-92.0176 -92.0034 -91.9733 -91.9549 -26.3362 -20.6156 -20.5851 -20.5838
-20.5561 -11.4155 -11.3771 -11.3186 -11.3094 -11.3068 -11.3014 -11.3004
-11.2903 -11.2891 -11.2843 -11.2832 -11.2809 -11.2789 -11.2735 -11.2707
-11.2683 -11.2551 -11.2515 -11.2463 -11.2295  -9.0168  -9.0071  -8.9759
 -8.9576  -6.6974  -6.6966  -6.6964  -6.6883  -6.6877  -6.6864  -6.6568
 -6.6560  -6.6546  -6.6388  -6.6379  -6.6369  -1.6493  -1.4757  -1.4076
 -1.4065  -1.3717  -1.2447  -1.2067  -1.1731  -1.1460  -1.0961  -1.0538
 -1.0431  -1.0337  -1.0063  -0.9948  -0.9756  -0.9594  -0.9462  -0.9389
 -0.8917  -0.8755  -0.8595  -0.8072  -0.7978  -0.7840  -0.7774  -0.7722
 -0.7615  -0.7324  -0.7211  -0.7183  -0.6963  -0.6938  -0.6815  -0.6798
 -0.6768  -0.6641  -0.6541  -0.6465  -0.6339  -0.6278  -0.6168  -0.6124
 -0.6110  -0.6106  -0.6020  -0.5911  -0.5738  -0.5646  -0.5573  -0.5535
 -0.5409  -0.5372  -0.5300  -0.5226  -0.5130  -0.5070  -0.5054  -0.4983
 -0.4892  -0.4831  -0.4746  -0.4691  -0.4659  -0.4639  -0.4535  -0.4430
 -0.4240  -0.3956  -0.3826  -0.3662  -0.3498  -0.2992  -0.2852  -0.2144

          Ground-State Mulliken Net Atomic Charges

     Atom                 Charge (a.u.)
  ----------------------------------------
      1 C                    -0.068978
      2 C                    -0.280757
      3 S                    -0.141941
      4 C                    -0.039454
      5 H                     0.190543
      6 C                    -0.054752
      7 C                     0.223509
      8 C                     0.215548
      9 C                    -0.079972
     10 C                    -0.053932
     11 O                    -0.336251
     12 O                    -0.343278
     13 C                    -0.082179
     14 H                     0.119901
     15 H                     0.091332
     16 H                     0.092770
     17 C                    -0.086938
     18 H                     0.122748
     19 H                     0.090507
     20 H                     0.088726
     21 C                    -0.271891
     22 S                    -0.082156
     23 C                     0.029713
     24 H                     0.205961
     25 C                    -0.146678
     26 S                     0.108622
     27 C                    -0.168027
     28 C                    -0.003101
     29 C                    -0.023512
     30 C                     0.358776
     31 C                    -0.121889
     32 S                     0.063324
     33 C                     0.457481
     34 O                    -0.440676
     35 O                    -0.296758
     36 F                    -0.211004
     37 C                    -0.054675
     38 H                     0.117429
     39 H                     0.085416
     40 H                     0.085695
     41 H                     0.221102
     42 H                     0.114357
     43 H                     0.112180
     44 H                     0.193160
  ----------------------------------------
  Sum of atomic charges =     0.000000

                    Cartesian Multipole Moments
 -----------------------------------------------------------------
    Charge (ESU x 10^10)
                 0.0000
    Dipole Moment (Debye)
         X       3.7314      Y       4.9795      Z       3.2050
       Tot       6.9993
    Quadrupole Moments (Debye-Ang)
        XX    -185.3219     XY       7.4843     YY    -194.1377
        XZ      -1.3932     YZ      -9.5255     ZZ    -189.4178

 Total job time:  349.41s(wall), 11890.06s(cpu)
        *  Thank you very much for using Q-Chem.  Have a nice day.  *
