 Q-Chem 5.4, Q-Chem, Inc., Pleasanton, CA (2021)
 Q-Chem 5.4.0 for Intel X86 EM64T Linux

User input:
--------------------------------------------------------------
$molecule
0 1
C	-0.255929	-8.519741	0.092419
C	0.666007	-7.635967	-0.449364
S	-1.592708	-7.651740	0.885736
C	0.332317	-6.261894	-0.254813
H	1.571741	-7.954738	-0.980526
C	-0.904324	-6.079985	0.458965
C	-1.385968	-4.798382	0.767823
C	1.118303	-5.153542	-0.681909
C	0.638514	-3.869626	-0.369139
C	-0.600871	-3.688927	0.342916
O	2.248132	-5.481075	-1.368544
O	-2.520275	-4.479871	1.458570
C	-3.639637	-5.356026	1.405396
H	-4.495304	-4.790496	1.820940
H	-3.490336	-6.268513	2.023129
H	-3.873314	-5.658187	0.361595
C	3.314934	-4.546999	-1.480048
H	4.171837	-5.107564	-1.899255
H	3.601473	-4.131473	-0.490123
H	3.068969	-3.712085	-2.171521
C	-0.930308	-2.314326	0.537642
S	1.334769	-2.295487	-0.785807
C	-0.000000	-1.435180	-0.000000
H	-1.836691	-1.993211	1.066134
C	0.000000	0.000000	0.000000
S	0.579852	0.687566	1.510732
C	1.591625	1.895024	0.727629
C	0.583771	0.695758	-1.064665
C	1.475308	1.760606	-0.678287
C	0.542366	0.643841	-2.486150
C	1.355286	1.612843	-3.106916
S	2.154609	2.570627	-1.965735
C	1.522440	1.804778	-4.559972
O	0.924684	1.087757	-5.350277
O	2.349739	2.785679	-5.004375
F	-0.170780	-0.212144	-3.246290
C	2.588082	3.053936	-6.334976
H	3.298799	3.899999	-6.370268
H	1.655291	3.328371	-6.875609
H	3.026021	2.177385	-6.861878
H	2.183053	2.599759	1.321510
H	0.202590	-9.146471	0.866272
H	-0.707539	-9.150570	-0.682165
H	0.547293	-1.444158	0.931016
$end

$rem
JOBTYPE		SP
EXCHANGE	HF
CORRELATION	pRIMP2
BASIS		cc-pvtz
METHOD		rimp2
AUX_BASIS	rimp2-cc-pvtz
SOLVENT_METHOD	PCM
PURECART	11111
SYMMETRY	false
MEM_TOTAL	110000
SCF_CONVERGENCE = 6
THRESH=10
GUI = 2
$end

$solvent
dielectric 4.90
$end
--------------------------------------------------------------

             Standard Nuclear Orientation (Angstroms)
    I     Atom           X                Y                Z
 ----------------------------------------------------------------
    1      C      -0.2559290000    -8.5197410000     0.0924190000
    2      C       0.6660070000    -7.6359670000    -0.4493640000
    3      S      -1.5927080000    -7.6517400000     0.8857360000
    4      C       0.3323170000    -6.2618940000    -0.2548130000
    5      H       1.5717410000    -7.9547380000    -0.9805260000
    6      C      -0.9043240000    -6.0799850000     0.4589650000
    7      C      -1.3859680000    -4.7983820000     0.7678230000
    8      C       1.1183030000    -5.1535420000    -0.6819090000
    9      C       0.6385140000    -3.8696260000    -0.3691390000
   10      C      -0.6008710000    -3.6889270000     0.3429160000
   11      O       2.2481320000    -5.4810750000    -1.3685440000
   12      O      -2.5202750000    -4.4798710000     1.4585700000
   13      C      -3.6396370000    -5.3560260000     1.4053960000
   14      H      -4.4953040000    -4.7904960000     1.8209400000
   15      H      -3.4903360000    -6.2685130000     2.0231290000
   16      H      -3.8733140000    -5.6581870000     0.3615950000
   17      C       3.3149340000    -4.5469990000    -1.4800480000
   18      H       4.1718370000    -5.1075640000    -1.8992550000
   19      H       3.6014730000    -4.1314730000    -0.4901230000
   20      H       3.0689690000    -3.7120850000    -2.1715210000
   21      C      -0.9303080000    -2.3143260000     0.5376420000
   22      S       1.3347690000    -2.2954870000    -0.7858070000
   23      C       0.0000000000    -1.4351800000     0.0000000000
   24      H      -1.8366910000    -1.9932110000     1.0661340000
   25      C       0.0000000000     0.0000000000     0.0000000000
   26      S       0.5798520000     0.6875660000     1.5107320000
   27      C       1.5916250000     1.8950240000     0.7276290000
   28      C       0.5837710000     0.6957580000    -1.0646650000
   29      C       1.4753080000     1.7606060000    -0.6782870000
   30      C       0.5423660000     0.6438410000    -2.4861500000
   31      C       1.3552860000     1.6128430000    -3.1069160000
   32      S       2.1546090000     2.5706270000    -1.9657350000
   33      C       1.5224400000     1.8047780000    -4.5599720000
   34      O       0.9246840000     1.0877570000    -5.3502770000
   35      O       2.3497390000     2.7856790000    -5.0043750000
   36      F      -0.1707800000    -0.2121440000    -3.2462900000
   37      C       2.5880820000     3.0539360000    -6.3349760000
   38      H       3.2987990000     3.8999990000    -6.3702680000
   39      H       1.6552910000     3.3283710000    -6.8756090000
   40      H       3.0260210000     2.1773850000    -6.8618780000
   41      H       2.1830530000     2.5997590000     1.3215100000
   42      H       0.2025900000    -9.1464710000     0.8662720000
   43      H      -0.7075390000    -9.1505700000    -0.6821650000
   44      H       0.5472930000    -1.4441580000     0.9310160000
 ----------------------------------------------------------------

   11   -2755.2922372317      8.20e-07  Convergence criterion met
 Total energy in the final basis set =    -2755.2922372317
        RIMP2         total energy =     -2760.3926042525 a.u.

                    Orbital Energies (a.u.)
 --------------------------------------------------------------

 Alpha MOs
 -- Occupied --
-92.0137 -91.9992 -91.9771 -91.9563 -26.3353 -20.6145 -20.5865 -20.5853
-20.5541 -11.4138 -11.3782 -11.3080 -11.3075 -11.3055 -11.3047 -11.3013
-11.2989 -11.2897 -11.2879 -11.2836 -11.2822 -11.2818 -11.2762 -11.2707
-11.2701 -11.2566 -11.2539 -11.2478 -11.2328  -9.0132  -9.0032  -8.9793
 -8.9590  -6.6939  -6.6931  -6.6927  -6.6844  -6.6838  -6.6824  -6.6604
 -6.6595  -6.6582  -6.6402  -6.6393  -6.6382  -1.6482  -1.4744  -1.4090
 -1.4079  -1.3702  -1.2439  -1.2081  -1.1745  -1.1458  -1.0974  -1.0531
 -1.0440  -1.0340  -1.0071  -0.9960  -0.9746  -0.9594  -0.9476  -0.9404
 -0.8922  -0.8739  -0.8609  -0.8104  -0.7942  -0.7844  -0.7764  -0.7735
 -0.7636  -0.7335  -0.7208  -0.7167  -0.6962  -0.6941  -0.6808  -0.6804
 -0.6747  -0.6660  -0.6553  -0.6477  -0.6354  -0.6276  -0.6182  -0.6142
 -0.6112  -0.6093  -0.5995  -0.5926  -0.5796  -0.5645  -0.5617  -0.5558
 -0.5459  -0.5342  -0.5294  -0.5212  -0.5118  -0.5066  -0.5047  -0.5001
 -0.4891  -0.4836  -0.4746  -0.4679  -0.4642  -0.4631  -0.4598  -0.4451
 -0.4232  -0.4021  -0.3840  -0.3696  -0.3508  -0.2957  -0.2872  -0.2161

          Ground-State Mulliken Net Atomic Charges

     Atom                 Charge (a.u.)
  ----------------------------------------
      1 C                    -0.069501
      2 C                    -0.271274
      3 S                    -0.139948
      4 C                    -0.043240
      5 H                     0.191935
      6 C                    -0.051053
      7 C                     0.219771
      8 C                     0.220570
      9 C                    -0.071061
     10 C                    -0.041400
     11 O                    -0.335091
     12 O                    -0.343616
     13 C                    -0.082462
     14 H                     0.119471
     15 H                     0.091844
     16 H                     0.093182
     17 C                    -0.087941
     18 H                     0.123353
     19 H                     0.091317
     20 H                     0.090381
     21 C                    -0.280919
     22 S                    -0.091574
     23 C                     0.065924
     24 H                     0.204058
     25 C                    -0.055476
     26 S                     0.097914
     27 C                    -0.197310
     28 C                    -0.133944
     29 C                    -0.006566
     30 C                     0.395405
     31 C                    -0.139058
     32 S                     0.051340
     33 C                     0.459496
     34 O                    -0.443132
     35 O                    -0.297176
     36 F                    -0.209921
     37 C                    -0.054723
     38 H                     0.117097
     39 H                     0.085347
     40 H                     0.085246
     41 H                     0.217610
     42 H                     0.115660
     43 H                     0.113592
     44 H                     0.195871
  ----------------------------------------
  Sum of atomic charges =     0.000000

                    Cartesian Multipole Moments
 -----------------------------------------------------------------
    Charge (ESU x 10^10)
                 0.0000
    Dipole Moment (Debye)
         X       3.2229      Y       4.2069      Z       3.2721
       Tot       6.2283
    Quadrupole Moments (Debye-Ang)
        XX    -176.5237     XY       5.6817     YY    -186.3711
        XZ     -11.0993     YZ      -7.0227     ZZ    -203.3940

 Total job time:  338.48s(wall), 11293.33s(cpu)
        *  Thank you very much for using Q-Chem.  Have a nice day.  *
