 Q-Chem 5.4, Q-Chem, Inc., Pleasanton, CA (2021)
 Q-Chem 5.4.0 for Intel X86 EM64T Linux

User input:
--------------------------------------------------------------
$molecule
0 1
C	0.255459	-8.519741	0.093711
C	-0.799036	-7.635967	-0.083869
S	1.789425	-7.651740	0.345260
C	-0.418360	-6.261894	-0.018411
H	-1.834294	-7.954738	-0.259169
C	0.987769	-6.079985	0.229701
C	1.555260	-4.798382	0.302697
C	-1.294992	-5.153542	-0.196459
C	-0.726408	-3.869626	-0.127651
C	0.680716	-3.688927	0.123544
O	-2.601852	-5.481075	-0.396706
O	2.868193	-4.479871	0.502673
C	3.691495	-5.356026	1.262918
H	4.614080	-4.790496	1.494604
H	3.974195	-6.268513	0.693738
H	3.199559	-5.658187	2.212720
C	-3.490743	-4.546999	-0.997016
H	-4.416630	-5.107564	-1.226691
H	-3.073934	-4.131473	-1.939526
H	-3.746794	-3.712085	-0.309214
C	1.058247	-2.314326	0.186133
S	-1.527599	-2.295487	-0.256010
C	-0.000000	-1.435180	-0.000000
H	2.092285	-1.993211	0.363896
C	0.000000	0.000000	0.000000
S	0.158383	0.885376	1.510732
C	0.430876	2.436951	0.727629
C	0.157682	0.894430	-1.064665
C	0.397351	2.262384	-0.678287
C	0.147783	0.828765	-2.486150
C	0.367291	2.074406	-3.106916
S	0.580633	3.303533	-1.965735
C	0.416083	2.324204	-4.559972
O	0.256921	1.404367	-5.350277
O	0.642094	3.587338	-5.004375
F	-0.041828	-0.269113	-3.246290
C	0.714377	3.938827	-6.334976
H	0.906844	5.026898	-6.370268
H	-0.230661	3.710099	-6.875609
H	1.531918	3.398681	-6.861878
H	0.590699	3.342984	1.321510
H	0.401636	-9.146471	-0.793825
H	0.103519	-9.150570	0.977367
H	0.179195	-1.444158	-1.064992
$end

$rem
JOBTYPE		SP
EXCHANGE	HF
CORRELATION	pRIMP2
BASIS		cc-pvtz
METHOD		rimp2
AUX_BASIS	rimp2-cc-pvtz
SOLVENT_METHOD	PCM
PURECART	11111
SYMMETRY	false
MEM_TOTAL	110000
SCF_CONVERGENCE = 6
THRESH=10
GUI = 2
$end

$solvent
dielectric 4.90
$end
--------------------------------------------------------------

             Standard Nuclear Orientation (Angstroms)
    I     Atom           X                Y                Z
 ----------------------------------------------------------------
    1      C       0.2554590000    -8.5197410000     0.0937110000
    2      C      -0.7990360000    -7.6359670000    -0.0838690000
    3      S       1.7894250000    -7.6517400000     0.3452600000
    4      C      -0.4183600000    -6.2618940000    -0.0184110000
    5      H      -1.8342940000    -7.9547380000    -0.2591690000
    6      C       0.9877690000    -6.0799850000     0.2297010000
    7      C       1.5552600000    -4.7983820000     0.3026970000
    8      C      -1.2949920000    -5.1535420000    -0.1964590000
    9      C      -0.7264080000    -3.8696260000    -0.1276510000
   10      C       0.6807160000    -3.6889270000     0.1235440000
   11      O      -2.6018520000    -5.4810750000    -0.3967060000
   12      O       2.8681930000    -4.4798710000     0.5026730000
   13      C       3.6914950000    -5.3560260000     1.2629180000
   14      H       4.6140800000    -4.7904960000     1.4946040000
   15      H       3.9741950000    -6.2685130000     0.6937380000
   16      H       3.1995590000    -5.6581870000     2.2127200000
   17      C      -3.4907430000    -4.5469990000    -0.9970160000
   18      H      -4.4166300000    -5.1075640000    -1.2266910000
   19      H      -3.0739340000    -4.1314730000    -1.9395260000
   20      H      -3.7467940000    -3.7120850000    -0.3092140000
   21      C       1.0582470000    -2.3143260000     0.1861330000
   22      S      -1.5275990000    -2.2954870000    -0.2560100000
   23      C       0.0000000000    -1.4351800000     0.0000000000
   24      H       2.0922850000    -1.9932110000     0.3638960000
   25      C       0.0000000000     0.0000000000     0.0000000000
   26      S       0.1583830000     0.8853760000     1.5107320000
   27      C       0.4308760000     2.4369510000     0.7276290000
   28      C       0.1576820000     0.8944300000    -1.0646650000
   29      C       0.3973510000     2.2623840000    -0.6782870000
   30      C       0.1477830000     0.8287650000    -2.4861500000
   31      C       0.3672910000     2.0744060000    -3.1069160000
   32      S       0.5806330000     3.3035330000    -1.9657350000
   33      C       0.4160830000     2.3242040000    -4.5599720000
   34      O       0.2569210000     1.4043670000    -5.3502770000
   35      O       0.6420940000     3.5873380000    -5.0043750000
   36      F      -0.0418280000    -0.2691130000    -3.2462900000
   37      C       0.7143770000     3.9388270000    -6.3349760000
   38      H       0.9068440000     5.0268980000    -6.3702680000
   39      H      -0.2306610000     3.7100990000    -6.8756090000
   40      H       1.5319180000     3.3986810000    -6.8618780000
   41      H       0.5906990000     3.3429840000     1.3215100000
   42      H       0.4016360000    -9.1464710000    -0.7938250000
   43      H       0.1035190000    -9.1505700000     0.9773670000
   44      H       0.1791950000    -1.4441580000    -1.0649920000
 ----------------------------------------------------------------

   11   -2755.3274013548      6.98e-07  Convergence criterion met
 Total energy in the final basis set =    -2755.3274013548
        RIMP2         total energy =     -2760.4191198802 a.u.

                    Orbital Energies (a.u.)
 --------------------------------------------------------------

 Alpha MOs
 -- Occupied --
-92.0133 -91.9970 -91.9764 -91.9582 -26.3389 -20.6136 -20.5871 -20.5865
-20.5523 -11.4124 -11.3796 -11.3124 -11.3089 -11.3068 -11.3012 -11.2980
-11.2966 -11.2893 -11.2866 -11.2838 -11.2828 -11.2824 -11.2803 -11.2731
-11.2725 -11.2581 -11.2580 -11.2496 -11.2369  -9.0119  -9.0010  -8.9786
 -8.9608  -6.6926  -6.6920  -6.6916  -6.6823  -6.6816  -6.6803  -6.6597
 -6.6588  -6.6575  -6.6420  -6.6411  -6.6401  -1.6520  -1.4734  -1.4100
 -1.4088  -1.3690  -1.2394  -1.2082  -1.1750  -1.1436  -1.0999  -1.0522
 -1.0456  -1.0298  -1.0087  -0.9974  -0.9730  -0.9595  -0.9485  -0.9410
 -0.8929  -0.8746  -0.8628  -0.8101  -0.7937  -0.7850  -0.7814  -0.7697
 -0.7627  -0.7337  -0.7200  -0.7195  -0.6977  -0.6922  -0.6876  -0.6799
 -0.6762  -0.6739  -0.6552  -0.6483  -0.6312  -0.6288  -0.6199  -0.6148
 -0.6107  -0.6078  -0.5967  -0.5934  -0.5835  -0.5651  -0.5578  -0.5546
 -0.5504  -0.5324  -0.5283  -0.5219  -0.5129  -0.5074  -0.5033  -0.5008
 -0.4879  -0.4856  -0.4774  -0.4690  -0.4632  -0.4625  -0.4602  -0.4458
 -0.4228  -0.4039  -0.3853  -0.3699  -0.3500  -0.2929  -0.2890  -0.2208

          Ground-State Mulliken Net Atomic Charges

     Atom                 Charge (a.u.)
  ----------------------------------------
      1 C                    -0.070310
      2 C                    -0.258669
      3 S                    -0.135133
      4 C                    -0.045036
      5 H                     0.193578
      6 C                    -0.051751
      7 C                     0.224278
      8 C                     0.230060
      9 C                    -0.084555
     10 C                    -0.058176
     11 O                    -0.335446
     12 O                    -0.343508
     13 C                    -0.082445
     14 H                     0.119881
     15 H                     0.092084
     16 H                     0.092545
     17 C                    -0.086456
     18 H                     0.122712
     19 H                     0.093387
     20 H                     0.089775
     21 C                    -0.235431
     22 S                    -0.069749
     23 C                     0.047492
     24 H                     0.206874
     25 C                    -0.085222
     26 S                     0.099154
     27 C                    -0.230734
     28 C                    -0.084536
     29 C                    -0.007039
     30 C                     0.372906
     31 C                    -0.128534
     32 S                     0.042681
     33 C                     0.458981
     34 O                    -0.447964
     35 O                    -0.297315
     36 F                    -0.214344
     37 C                    -0.055069
     38 H                     0.116992
     39 H                     0.084925
     40 H                     0.084850
     41 H                     0.215228
     42 H                     0.117605
     43 H                     0.115048
     44 H                     0.186386
  ----------------------------------------
  Sum of atomic charges =     0.000000

                    Cartesian Multipole Moments
 -----------------------------------------------------------------
    Charge (ESU x 10^10)
                -0.0000
    Dipole Moment (Debye)
         X       0.6434      Y       3.7094      Z       2.4652
       Tot       4.5001
    Quadrupole Moments (Debye-Ang)
        XX    -186.8807     XY       6.5074     YY    -174.0757
        XZ       5.8377     YZ     -10.5549     ZZ    -201.3918

 Total job time:  332.09s(wall), 10467.59s(cpu)
        *  Thank you very much for using Q-Chem.  Have a nice day.  *
