 Q-Chem 5.4, Q-Chem, Inc., Pleasanton, CA (2021)
 Q-Chem 5.4.0 for Intel X86 EM64T Linux

User input:
--------------------------------------------------------------
$molecule
0 1
C	0.235306	-8.519741	0.136647
C	-0.772334	-7.635967	-0.221346
S	1.702286	-7.651740	0.650746
C	-0.408807	-6.261894	-0.090779
H	-1.761423	-7.954738	-0.573754
C	0.932876	-6.079985	0.397735
C	1.479069	-4.798382	0.568166
C	-1.241204	-5.153542	-0.418347
C	-0.693206	-3.869626	-0.251852
C	0.648921	-3.688927	0.239872
O	-2.493437	-5.481075	-0.842486
O	2.737331	-4.479871	0.993092
C	3.416110	-5.356026	1.884752
H	4.284447	-4.790496	2.273124
H	3.793352	-6.268513	1.373310
H	2.766716	-5.658187	2.734702
C	-3.264581	-4.546999	-1.588030
H	-4.136519	-5.107564	-1.974995
H	-2.690439	-4.131473	-2.443843
H	-3.636177	-3.712085	-0.955140
C	1.009848	-2.314326	0.367068
S	-1.459936	-2.295487	-0.517386
C	-0.000000	-1.435180	-0.000000
H	1.997308	-1.993211	0.721689
C	0.000000	0.000000	0.000000
S	0.451648	0.777811	1.510732
C	1.238377	2.142617	0.727629
C	0.454085	0.786559	-1.064665
C	1.147169	1.990043	-0.678287
C	0.422325	0.728240	-2.486150
C	1.054629	1.823683	-3.106916
S	1.675491	2.905718	-1.965735
C	1.185914	2.041729	-4.559972
O	0.721749	1.231802	-5.350277
O	1.830313	3.151386	-5.004375
F	-0.131347	-0.238577	-3.246290
C	2.018453	3.456956	-6.334976
H	2.571455	4.413580	-6.370268
H	1.052178	3.565244	-6.875609
H	2.601950	2.669768	-6.861878
H	1.698444	2.939346	1.321510
H	0.533380	-9.146471	-0.712022
H	-0.067771	-9.150570	0.980494
H	0.361406	-1.444158	-1.017696
$end

$rem
JOBTYPE		SP
EXCHANGE	HF
CORRELATION	pRIMP2
BASIS		cc-pvtz
METHOD		rimp2
AUX_BASIS	rimp2-cc-pvtz
SOLVENT_METHOD	PCM
PURECART	11111
SYMMETRY	false
MEM_TOTAL	110000
SCF_CONVERGENCE = 6
THRESH=10
GUI = 2
$end

$solvent
dielectric 4.90
$end
--------------------------------------------------------------

             Standard Nuclear Orientation (Angstroms)
    I     Atom           X                Y                Z
 ----------------------------------------------------------------
    1      C       0.2353060000    -8.5197410000     0.1366470000
    2      C      -0.7723340000    -7.6359670000    -0.2213460000
    3      S       1.7022860000    -7.6517400000     0.6507460000
    4      C      -0.4088070000    -6.2618940000    -0.0907790000
    5      H      -1.7614230000    -7.9547380000    -0.5737540000
    6      C       0.9328760000    -6.0799850000     0.3977350000
    7      C       1.4790690000    -4.7983820000     0.5681660000
    8      C      -1.2412040000    -5.1535420000    -0.4183470000
    9      C      -0.6932060000    -3.8696260000    -0.2518520000
   10      C       0.6489210000    -3.6889270000     0.2398720000
   11      O      -2.4934370000    -5.4810750000    -0.8424860000
   12      O       2.7373310000    -4.4798710000     0.9930920000
   13      C       3.4161100000    -5.3560260000     1.8847520000
   14      H       4.2844470000    -4.7904960000     2.2731240000
   15      H       3.7933520000    -6.2685130000     1.3733100000
   16      H       2.7667160000    -5.6581870000     2.7347020000
   17      C      -3.2645810000    -4.5469990000    -1.5880300000
   18      H      -4.1365190000    -5.1075640000    -1.9749950000
   19      H      -2.6904390000    -4.1314730000    -2.4438430000
   20      H      -3.6361770000    -3.7120850000    -0.9551400000
   21      C       1.0098480000    -2.3143260000     0.3670680000
   22      S      -1.4599360000    -2.2954870000    -0.5173860000
   23      C       0.0000000000    -1.4351800000     0.0000000000
   24      H       1.9973080000    -1.9932110000     0.7216890000
   25      C       0.0000000000     0.0000000000     0.0000000000
   26      S       0.4516480000     0.7778110000     1.5107320000
   27      C       1.2383770000     2.1426170000     0.7276290000
   28      C       0.4540850000     0.7865590000    -1.0646650000
   29      C       1.1471690000     1.9900430000    -0.6782870000
   30      C       0.4223250000     0.7282400000    -2.4861500000
   31      C       1.0546290000     1.8236830000    -3.1069160000
   32      S       1.6754910000     2.9057180000    -1.9657350000
   33      C       1.1859140000     2.0417290000    -4.5599720000
   34      O       0.7217490000     1.2318020000    -5.3502770000
   35      O       1.8303130000     3.1513860000    -5.0043750000
   36      F      -0.1313470000    -0.2385770000    -3.2462900000
   37      C       2.0184530000     3.4569560000    -6.3349760000
   38      H       2.5714550000     4.4135800000    -6.3702680000
   39      H       1.0521780000     3.5652440000    -6.8756090000
   40      H       2.6019500000     2.6697680000    -6.8618780000
   41      H       1.6984440000     2.9393460000     1.3215100000
   42      H       0.5333800000    -9.1464710000    -0.7120220000
   43      H      -0.0677710000    -9.1505700000     0.9804940000
   44      H       0.3614060000    -1.4441580000    -1.0176960000
 ----------------------------------------------------------------

   11   -2755.3107127321      6.98e-07  Convergence criterion met
 Total energy in the final basis set =    -2755.3107127321
        RIMP2         total energy =     -2760.4081836108 a.u.

                    Orbital Energies (a.u.)
 --------------------------------------------------------------

 Alpha MOs
 -- Occupied --
-92.0149 -91.9994 -91.9729 -91.9577 -26.3382 -20.6143 -20.5870 -20.5853
-20.5535 -11.4134 -11.3790 -11.3086 -11.3057 -11.3051 -11.3037 -11.3021
-11.2987 -11.2897 -11.2871 -11.2828 -11.2828 -11.2812 -11.2785 -11.2724
-11.2721 -11.2573 -11.2572 -11.2490 -11.2356  -9.0134  -9.0032  -8.9753
 -8.9603  -6.6941  -6.6935  -6.6932  -6.6845  -6.6838  -6.6825  -6.6565
 -6.6555  -6.6543  -6.6416  -6.6407  -6.6396  -1.6513  -1.4742  -1.4094
 -1.4082  -1.3699  -1.2416  -1.2074  -1.1747  -1.1445  -1.0992  -1.0532
 -1.0447  -1.0309  -1.0076  -0.9965  -0.9738  -0.9589  -0.9481  -0.9410
 -0.8920  -0.8754  -0.8610  -0.8107  -0.7940  -0.7846  -0.7812  -0.7688
 -0.7616  -0.7331  -0.7200  -0.7191  -0.6975  -0.6920  -0.6880  -0.6805
 -0.6762  -0.6744  -0.6545  -0.6478  -0.6302  -0.6285  -0.6194  -0.6146
 -0.6103  -0.6087  -0.5982  -0.5946  -0.5807  -0.5646  -0.5569  -0.5539
 -0.5530  -0.5313  -0.5274  -0.5212  -0.5123  -0.5070  -0.5040  -0.5001
 -0.4889  -0.4860  -0.4757  -0.4671  -0.4640  -0.4629  -0.4589  -0.4450
 -0.4243  -0.4008  -0.3839  -0.3691  -0.3500  -0.2952  -0.2877  -0.2190

          Ground-State Mulliken Net Atomic Charges

     Atom                 Charge (a.u.)
  ----------------------------------------
      1 C                    -0.070067
      2 C                    -0.262749
      3 S                    -0.136241
      4 C                    -0.044214
      5 H                     0.193135
      6 C                    -0.052157
      7 C                     0.223186
      8 C                     0.226438
      9 C                    -0.078520
     10 C                    -0.043676
     11 O                    -0.335969
     12 O                    -0.343859
     13 C                    -0.082415
     14 H                     0.119600
     15 H                     0.092025
     16 H                     0.092664
     17 C                    -0.086341
     18 H                     0.122313
     19 H                     0.093139
     20 H                     0.089671
     21 C                    -0.270101
     22 S                    -0.077500
     23 C                     0.045099
     24 H                     0.209427
     25 C                    -0.068768
     26 S                     0.102850
     27 C                    -0.218120
     28 C                    -0.082233
     29 C                    -0.005218
     30 C                     0.347371
     31 C                    -0.127316
     32 S                     0.052693
     33 C                     0.457716
     34 O                    -0.445757
     35 O                    -0.297346
     36 F                    -0.211702
     37 C                    -0.054926
     38 H                     0.117136
     39 H                     0.085103
     40 H                     0.085115
     41 H                     0.216092
     42 H                     0.117119
     43 H                     0.114495
     44 H                     0.192808
  ----------------------------------------
  Sum of atomic charges =     0.000000

                    Cartesian Multipole Moments
 -----------------------------------------------------------------
    Charge (ESU x 10^10)
                -0.0000
    Dipole Moment (Debye)
         X       2.2460      Y       3.9189      Z       2.4090
       Tot       5.1192
    Quadrupole Moments (Debye-Ang)
        XX    -186.2605     XY      10.7179     YY    -179.2958
        XZ       3.0527     YZ      -8.9022     ZZ    -197.6143

 Total job time:  351.31s(wall), 10503.83s(cpu)
        *  Thank you very much for using Q-Chem.  Have a nice day.  *
