 Q-Chem 5.4, Q-Chem, Inc., Pleasanton, CA (2021)
 Q-Chem 5.4.0 for Intel X86 EM64T Linux

User input:
--------------------------------------------------------------
$molecule
0 1
C	-0.136647	-8.519741	0.235306
C	0.221346	-7.635967	-0.772334
S	-0.650746	-7.651740	1.702286
C	0.090779	-6.261894	-0.408807
H	0.573754	-7.954738	-1.761423
C	-0.397735	-6.079985	0.932876
C	-0.568166	-4.798382	1.479069
C	0.418347	-5.153542	-1.241204
C	0.251852	-3.869626	-0.693206
C	-0.239872	-3.688927	0.648921
O	0.842486	-5.481075	-2.493437
O	-0.993092	-4.479871	2.737331
C	-1.884752	-5.356026	3.416110
H	-2.273124	-4.790496	4.284447
H	-1.373310	-6.268513	3.793352
H	-2.734702	-5.658187	2.766716
C	1.588030	-4.546999	-3.264581
H	1.974995	-5.107564	-4.136519
H	2.443843	-4.131473	-2.690439
H	0.955140	-3.712085	-3.636177
C	-0.367068	-2.314326	1.009848
S	0.517386	-2.295487	-1.459936
C	0.000000	-1.435180	0.000000
H	-0.721689	-1.993211	1.997308
C	0.000000	0.000000	0.000000
S	0.234946	0.868203	1.510732
C	0.641630	2.390125	0.727629
C	0.235036	0.877284	-1.064665
C	0.593019	2.219143	-0.678287
C	0.219452	0.812732	-2.486150
C	0.546689	2.034501	-3.106916
S	0.866345	3.240357	-1.965735
C	0.617067	2.279095	-4.559972
O	0.378342	1.376631	-5.350277
O	0.952308	3.517725	-5.004375
F	-0.065123	-0.264443	-3.246290
C	1.054950	3.861577	-6.334976
H	1.341516	4.928732	-6.370268
H	0.093573	3.716085	-6.875609
H	1.822303	3.252232	-6.861878
H	0.879812	3.278780	1.321510
H	0.712022	-9.146471	0.533380
H	-0.980494	-9.150570	-0.067771
H	1.017696	-1.444158	0.361406
$end

$rem
JOBTYPE		SP
EXCHANGE	HF
CORRELATION	pRIMP2
BASIS		cc-pvtz
METHOD		rimp2
AUX_BASIS	rimp2-cc-pvtz
SOLVENT_METHOD	PCM
PURECART	11111
SYMMETRY	false
MEM_TOTAL	110000
SCF_CONVERGENCE = 6
THRESH=10
GUI = 2
$end

$solvent
dielectric 4.90
$end
--------------------------------------------------------------

             Standard Nuclear Orientation (Angstroms)
    I     Atom           X                Y                Z
 ----------------------------------------------------------------
    1      C      -0.1366470000    -8.5197410000     0.2353060000
    2      C       0.2213460000    -7.6359670000    -0.7723340000
    3      S      -0.6507460000    -7.6517400000     1.7022860000
    4      C       0.0907790000    -6.2618940000    -0.4088070000
    5      H       0.5737540000    -7.9547380000    -1.7614230000
    6      C      -0.3977350000    -6.0799850000     0.9328760000
    7      C      -0.5681660000    -4.7983820000     1.4790690000
    8      C       0.4183470000    -5.1535420000    -1.2412040000
    9      C       0.2518520000    -3.8696260000    -0.6932060000
   10      C      -0.2398720000    -3.6889270000     0.6489210000
   11      O       0.8424860000    -5.4810750000    -2.4934370000
   12      O      -0.9930920000    -4.4798710000     2.7373310000
   13      C      -1.8847520000    -5.3560260000     3.4161100000
   14      H      -2.2731240000    -4.7904960000     4.2844470000
   15      H      -1.3733100000    -6.2685130000     3.7933520000
   16      H      -2.7347020000    -5.6581870000     2.7667160000
   17      C       1.5880300000    -4.5469990000    -3.2645810000
   18      H       1.9749950000    -5.1075640000    -4.1365190000
   19      H       2.4438430000    -4.1314730000    -2.6904390000
   20      H       0.9551400000    -3.7120850000    -3.6361770000
   21      C      -0.3670680000    -2.3143260000     1.0098480000
   22      S       0.5173860000    -2.2954870000    -1.4599360000
   23      C       0.0000000000    -1.4351800000     0.0000000000
   24      H      -0.7216890000    -1.9932110000     1.9973080000
   25      C       0.0000000000     0.0000000000     0.0000000000
   26      S       0.2349460000     0.8682030000     1.5107320000
   27      C       0.6416300000     2.3901250000     0.7276290000
   28      C       0.2350360000     0.8772840000    -1.0646650000
   29      C       0.5930190000     2.2191430000    -0.6782870000
   30      C       0.2194520000     0.8127320000    -2.4861500000
   31      C       0.5466890000     2.0345010000    -3.1069160000
   32      S       0.8663450000     3.2403570000    -1.9657350000
   33      C       0.6170670000     2.2790950000    -4.5599720000
   34      O       0.3783420000     1.3766310000    -5.3502770000
   35      O       0.9523080000     3.5177250000    -5.0043750000
   36      F      -0.0651230000    -0.2644430000    -3.2462900000
   37      C       1.0549500000     3.8615770000    -6.3349760000
   38      H       1.3415160000     4.9287320000    -6.3702680000
   39      H       0.0935730000     3.7160850000    -6.8756090000
   40      H       1.8223030000     3.2522320000    -6.8618780000
   41      H       0.8798120000     3.2787800000     1.3215100000
   42      H       0.7120220000    -9.1464710000     0.5333800000
   43      H      -0.9804940000    -9.1505700000    -0.0677710000
   44      H       1.0176960000    -1.4441580000     0.3614060000
 ----------------------------------------------------------------

   11   -2755.3202496075      7.16e-07  Convergence criterion met
 Total energy in the final basis set =    -2755.3202496075
        RIMP2         total energy =     -2760.4118764767 a.u.

                    Orbital Energies (a.u.)
 --------------------------------------------------------------

 Alpha MOs
 -- Occupied --
-92.0119 -91.9912 -91.9766 -91.9609 -26.3346 -20.6107 -20.5884 -20.5882
-20.5472 -11.4080 -11.3790 -11.3253 -11.3108 -11.3099 -11.2961 -11.2918
-11.2878 -11.2867 -11.2843 -11.2842 -11.2838 -11.2831 -11.2769 -11.2768
-11.2711 -11.2633 -11.2602 -11.2524 -11.2432  -9.0109  -8.9955  -8.9792
 -8.9635  -6.6917  -6.6911  -6.6905  -6.6768  -6.6761  -6.6747  -6.6601
 -6.6593  -6.6579  -6.6447  -6.6438  -6.6428  -1.6496  -1.4702  -1.4118
 -1.4101  -1.3651  -1.2384  -1.2101  -1.1783  -1.1434  -1.1006  -1.0506
 -1.0471  -1.0298  -1.0084  -1.0002  -0.9711  -0.9602  -0.9498  -0.9404
 -0.8952  -0.8711  -0.8639  -0.8123  -0.7947  -0.7861  -0.7763  -0.7665
 -0.7648  -0.7337  -0.7211  -0.7166  -0.6978  -0.6947  -0.6841  -0.6774
 -0.6714  -0.6709  -0.6569  -0.6495  -0.6387  -0.6295  -0.6226  -0.6160
 -0.6109  -0.6045  -0.5966  -0.5916  -0.5780  -0.5679  -0.5647  -0.5594
 -0.5490  -0.5339  -0.5284  -0.5212  -0.5137  -0.5089  -0.5044  -0.5002
 -0.4846  -0.4822  -0.4798  -0.4670  -0.4621  -0.4602  -0.4587  -0.4486
 -0.4301  -0.4009  -0.3848  -0.3730  -0.3511  -0.2936  -0.2834  -0.2192

          Ground-State Mulliken Net Atomic Charges

     Atom                 Charge (a.u.)
  ----------------------------------------
      1 C                    -0.071122
      2 C                    -0.241552
      3 S                    -0.129560
      4 C                    -0.053138
      5 H                     0.196045
      6 C                    -0.046013
      7 C                     0.216781
      8 C                     0.233928
      9 C                    -0.078915
     10 C                    -0.005804
     11 O                    -0.334153
     12 O                    -0.343767
     13 C                    -0.082738
     14 H                     0.120190
     15 H                     0.091936
     16 H                     0.093245
     17 C                    -0.090292
     18 H                     0.124697
     19 H                     0.092442
     20 H                     0.093555
     21 C                    -0.351286
     22 S                    -0.090317
     23 C                     0.152829
     24 H                     0.197586
     25 C                     0.006736
     26 S                     0.081638
     27 C                    -0.268427
     28 C                    -0.162487
     29 C                    -0.009444
     30 C                     0.382376
     31 C                    -0.148464
     32 S                     0.029566
     33 C                     0.460416
     34 O                    -0.455352
     35 O                    -0.298738
     36 F                    -0.207102
     37 C                    -0.055075
     38 H                     0.116323
     39 H                     0.084211
     40 H                     0.083829
     41 H                     0.213499
     42 H                     0.119941
     43 H                     0.117780
     44 H                     0.214198
  ----------------------------------------
  Sum of atomic charges =     0.000000

                    Cartesian Multipole Moments
 -----------------------------------------------------------------
    Charge (ESU x 10^10)
                -0.0000
    Dipole Moment (Debye)
         X       1.4115      Y       1.1671      Z       3.1736
       Tot       3.6642
    Quadrupole Moments (Debye-Ang)
        XX    -193.3242     XY       2.1009     YY    -167.0921
        XZ     -11.8140     YZ      -5.1845     ZZ    -196.1440

 Total job time:  326.11s(wall), 10515.21s(cpu)
        *  Thank you very much for using Q-Chem.  Have a nice day.  *
