 Q-Chem 5.4, Q-Chem, Inc., Pleasanton, CA (2021)
 Q-Chem 5.4.0 for Intel X86 EM64T Linux

User input:
--------------------------------------------------------------
$molecule
0 1
C	0.093711	-8.519741	-0.255459
C	-0.083869	-7.635967	0.799036
S	0.345260	-7.651740	-1.789425
C	-0.018411	-6.261894	0.418360
H	-0.259169	-7.954738	1.834294
C	0.229701	-6.079985	-0.987769
C	0.302697	-4.798382	-1.555260
C	-0.196459	-5.153542	1.294992
C	-0.127651	-3.869626	0.726408
C	0.123544	-3.688927	-0.680716
O	-0.396706	-5.481075	2.601852
O	0.502673	-4.479871	-2.868193
C	1.262918	-5.356026	-3.691495
H	1.494604	-4.790496	-4.614080
H	0.693738	-6.268513	-3.974195
H	2.212720	-5.658187	-3.199559
C	-0.997016	-4.546999	3.490743
H	-1.226691	-5.107564	4.416630
H	-1.939526	-4.131473	3.073934
H	-0.309214	-3.712085	3.746794
C	0.186133	-2.314326	-1.058247
S	-0.256010	-2.295487	1.527599
C	-0.000000	-1.435180	-0.000000
H	0.363896	-1.993211	-2.092285
C	0.000000	0.000000	0.000000
S	0.690437	0.576430	1.510732
C	1.896512	1.589852	0.727629
C	0.695720	0.583817	-1.064665
C	1.758621	1.477674	-0.678287
C	0.645928	0.539878	-2.486150
C	1.614763	1.352997	-3.106916
S	2.568261	2.157430	-1.965735
C	1.812707	1.512991	-4.559972
O	1.099523	0.910662	-5.350277
O	2.797769	2.335330	-5.004375
F	-0.205024	-0.179266	-3.246290
C	3.079074	2.558124	-6.334976
H	3.925910	3.267919	-6.370268
H	2.208109	2.990367	-6.875609
H	3.358147	1.618843	-6.861878
H	2.601331	2.181180	1.321510
H	-0.793825	-9.146471	-0.401636
H	0.977367	-9.150570	-0.103519
H	-1.064992	-1.444158	-0.179195
$end

$rem
JOBTYPE		SP
EXCHANGE	HF
CORRELATION	pRIMP2
BASIS		cc-pvtz
METHOD		rimp2
AUX_BASIS	rimp2-cc-pvtz
SOLVENT_METHOD	PCM
PURECART	11111
SYMMETRY	false
MEM_TOTAL	110000
SCF_CONVERGENCE = 6
THRESH=10
GUI = 2
$end

$solvent
dielectric 4.90
$end
--------------------------------------------------------------

             Standard Nuclear Orientation (Angstroms)
    I     Atom           X                Y                Z
 ----------------------------------------------------------------
    1      C       0.0937110000    -8.5197410000    -0.2554590000
    2      C      -0.0838690000    -7.6359670000     0.7990360000
    3      S       0.3452600000    -7.6517400000    -1.7894250000
    4      C      -0.0184110000    -6.2618940000     0.4183600000
    5      H      -0.2591690000    -7.9547380000     1.8342940000
    6      C       0.2297010000    -6.0799850000    -0.9877690000
    7      C       0.3026970000    -4.7983820000    -1.5552600000
    8      C      -0.1964590000    -5.1535420000     1.2949920000
    9      C      -0.1276510000    -3.8696260000     0.7264080000
   10      C       0.1235440000    -3.6889270000    -0.6807160000
   11      O      -0.3967060000    -5.4810750000     2.6018520000
   12      O       0.5026730000    -4.4798710000    -2.8681930000
   13      C       1.2629180000    -5.3560260000    -3.6914950000
   14      H       1.4946040000    -4.7904960000    -4.6140800000
   15      H       0.6937380000    -6.2685130000    -3.9741950000
   16      H       2.2127200000    -5.6581870000    -3.1995590000
   17      C      -0.9970160000    -4.5469990000     3.4907430000
   18      H      -1.2266910000    -5.1075640000     4.4166300000
   19      H      -1.9395260000    -4.1314730000     3.0739340000
   20      H      -0.3092140000    -3.7120850000     3.7467940000
   21      C       0.1861330000    -2.3143260000    -1.0582470000
   22      S      -0.2560100000    -2.2954870000     1.5275990000
   23      C       0.0000000000    -1.4351800000     0.0000000000
   24      H       0.3638960000    -1.9932110000    -2.0922850000
   25      C       0.0000000000     0.0000000000     0.0000000000
   26      S       0.6904370000     0.5764300000     1.5107320000
   27      C       1.8965120000     1.5898520000     0.7276290000
   28      C       0.6957200000     0.5838170000    -1.0646650000
   29      C       1.7586210000     1.4776740000    -0.6782870000
   30      C       0.6459280000     0.5398780000    -2.4861500000
   31      C       1.6147630000     1.3529970000    -3.1069160000
   32      S       2.5682610000     2.1574300000    -1.9657350000
   33      C       1.8127070000     1.5129910000    -4.5599720000
   34      O       1.0995230000     0.9106620000    -5.3502770000
   35      O       2.7977690000     2.3353300000    -5.0043750000
   36      F      -0.2050240000    -0.1792660000    -3.2462900000
   37      C       3.0790740000     2.5581240000    -6.3349760000
   38      H       3.9259100000     3.2679190000    -6.3702680000
   39      H       2.2081090000     2.9903670000    -6.8756090000
   40      H       3.3581470000     1.6188430000    -6.8618780000
   41      H       2.6013310000     2.1811800000     1.3215100000
   42      H      -0.7938250000    -9.1464710000    -0.4016360000
   43      H       0.9773670000    -9.1505700000    -0.1035190000
   44      H      -1.0649920000    -1.4441580000    -0.1791950000
 ----------------------------------------------------------------

   11   -2755.2669462476      7.03e-07  Convergence criterion met
 Total energy in the final basis set =    -2755.2669462476
        RIMP2         total energy =     -2760.3799251806 a.u.

                    Orbital Energies (a.u.)
 --------------------------------------------------------------

 Alpha MOs
 -- Occupied --
-92.0132 -92.0016 -91.9791 -91.9565 -26.3397 -20.6143 -20.5870 -20.5861
-20.5537 -11.4136 -11.3783 -11.3085 -11.3079 -11.3071 -11.3046 -11.3000
-11.2943 -11.2898 -11.2873 -11.2847 -11.2830 -11.2816 -11.2757 -11.2726
-11.2701 -11.2573 -11.2546 -11.2483 -11.2344  -9.0125  -9.0053  -8.9814
 -8.9591  -6.6932  -6.6923  -6.6920  -6.6865  -6.6858  -6.6846  -6.6624
 -6.6616  -6.6603  -6.6404  -6.6395  -6.6384  -1.6539  -1.4743  -1.4102
 -1.4079  -1.3701  -1.2442  -1.2083  -1.1749  -1.1455  -1.0982  -1.0542
 -1.0458  -1.0318  -1.0078  -0.9978  -0.9742  -0.9598  -0.9483  -0.9407
 -0.8942  -0.8751  -0.8602  -0.8081  -0.7998  -0.7866  -0.7757  -0.7731
 -0.7610  -0.7350  -0.7252  -0.7184  -0.6973  -0.6939  -0.6839  -0.6804
 -0.6762  -0.6689  -0.6563  -0.6480  -0.6399  -0.6274  -0.6187  -0.6136
 -0.6100  -0.6093  -0.6004  -0.5936  -0.5773  -0.5690  -0.5575  -0.5563
 -0.5401  -0.5350  -0.5298  -0.5229  -0.5136  -0.5101  -0.5066  -0.5003
 -0.4884  -0.4817  -0.4738  -0.4678  -0.4634  -0.4605  -0.4561  -0.4452
 -0.4311  -0.3930  -0.3867  -0.3684  -0.3485  -0.2966  -0.2860  -0.2125

          Ground-State Mulliken Net Atomic Charges

     Atom                 Charge (a.u.)
  ----------------------------------------
      1 C                    -0.069664
      2 C                    -0.267981
      3 S                    -0.139236
      4 C                    -0.045877
      5 H                     0.192360
      6 C                    -0.054316
      7 C                     0.230096
      8 C                     0.230502
      9 C                    -0.075133
     10 C                    -0.049925
     11 O                    -0.334391
     12 O                    -0.344063
     13 C                    -0.083311
     14 H                     0.121124
     15 H                     0.092496
     16 H                     0.092240
     17 C                    -0.088083
     18 H                     0.124371
     19 H                     0.092680
     20 H                     0.089167
     21 C                    -0.274329
     22 S                    -0.103587
     23 C                     0.069733
     24 H                     0.212151
     25 C                    -0.103749
     26 S                     0.110656
     27 C                    -0.201097
     28 C                    -0.064344
     29 C                    -0.021837
     30 C                     0.339623
     31 C                    -0.127919
     32 S                     0.063202
     33 C                     0.460199
     34 O                    -0.446316
     35 O                    -0.297573
     36 F                    -0.215525
     37 C                    -0.054656
     38 H                     0.117168
     39 H                     0.085097
     40 H                     0.084973
     41 H                     0.217708
     42 H                     0.116363
     43 H                     0.113976
     44 H                     0.207025
  ----------------------------------------
  Sum of atomic charges =     0.000000

                    Cartesian Multipole Moments
 -----------------------------------------------------------------
    Charge (ESU x 10^10)
                 0.0000
    Dipole Moment (Debye)
         X       2.8856      Y       3.3400      Z       3.0713
       Tot       5.3772
    Quadrupole Moments (Debye-Ang)
        XX    -186.4750     XY       9.6677     YY    -186.9893
        XZ     -16.7861     YZ     -11.3191     ZZ    -190.4695

 Total job time:  333.31s(wall), 10741.71s(cpu)
        *  Thank you very much for using Q-Chem.  Have a nice day.  *
