 Q-Chem 5.4, Q-Chem, Inc., Pleasanton, CA (2021)
 Q-Chem 5.4.0 for Intel X86 EM64T Linux

User input:
--------------------------------------------------------------
$molecule
0 1
C	-0.208886	-8.519741	0.174379
C	0.472151	-7.635967	-0.650052
S	-1.193717	-7.651740	1.377058
C	0.225125	-6.261894	-0.353105
H	1.141594	-7.954738	-1.458961
C	-0.692811	-6.079985	0.740583
C	-1.039773	-4.798382	1.195546
C	0.817634	-5.153542	-1.023267
C	0.473754	-3.869626	-0.565262
C	-0.447350	-3.688927	0.527745
O	1.644483	-5.481075	-2.054917
O	-1.869424	-4.479871	2.232592
C	-2.939466	-5.356026	2.565470
H	-3.601405	-4.790496	3.248608
H	-2.587892	-6.268513	3.094885
H	-3.516052	-5.658187	1.664539
C	2.608813	-4.546999	-2.524564
H	3.270661	-5.107564	-3.211568
H	3.216646	-4.131473	-1.692342
H	2.141184	-3.712085	-3.090211
C	-0.690319	-2.314326	0.823402
S	0.985511	-2.295487	-1.194935
C	0.000000	-1.435180	0.000000
H	-1.361286	-1.993211	1.630024
C	0.000000	0.000000	0.000000
S	0.309721	0.844422	1.510732
C	0.847502	2.325108	0.727629
C	0.310602	0.853460	-1.064665
C	0.784173	2.159014	-0.678287
C	0.289451	0.790512	-2.486150
C	0.721927	1.979112	-3.106916
S	1.145464	3.152519	-1.965735
C	0.813355	2.216642	-4.559972
O	0.496884	1.338418	-5.350277
O	1.255274	3.421340	-5.004375
F	-0.087923	-0.257761	-3.246290
C	1.387494	3.754937	-6.334976
H	1.765978	4.793056	-6.370268
H	0.417095	3.693789	-6.875609
H	2.098820	3.081033	-6.861878
H	1.162229	3.189623	1.321510
H	0.486655	-9.146471	0.744739
H	-0.898184	-9.150570	-0.399033
H	0.832713	-1.444158	0.687683
$end

$rem
JOBTYPE		SP
EXCHANGE	HF
CORRELATION	pRIMP2
BASIS		cc-pvtz
METHOD		rimp2
AUX_BASIS	rimp2-cc-pvtz
SOLVENT_METHOD	PCM
PURECART	11111
SYMMETRY	false
MEM_TOTAL	110000
SCF_CONVERGENCE = 6
THRESH=10
GUI = 2
$end

$solvent
dielectric 4.90
$end
--------------------------------------------------------------

             Standard Nuclear Orientation (Angstroms)
    I     Atom           X                Y                Z
 ----------------------------------------------------------------
    1      C      -0.2088860000    -8.5197410000     0.1743790000
    2      C       0.4721510000    -7.6359670000    -0.6500520000
    3      S      -1.1937170000    -7.6517400000     1.3770580000
    4      C       0.2251250000    -6.2618940000    -0.3531050000
    5      H       1.1415940000    -7.9547380000    -1.4589610000
    6      C      -0.6928110000    -6.0799850000     0.7405830000
    7      C      -1.0397730000    -4.7983820000     1.1955460000
    8      C       0.8176340000    -5.1535420000    -1.0232670000
    9      C       0.4737540000    -3.8696260000    -0.5652620000
   10      C      -0.4473500000    -3.6889270000     0.5277450000
   11      O       1.6444830000    -5.4810750000    -2.0549170000
   12      O      -1.8694240000    -4.4798710000     2.2325920000
   13      C      -2.9394660000    -5.3560260000     2.5654700000
   14      H      -3.6014050000    -4.7904960000     3.2486080000
   15      H      -2.5878920000    -6.2685130000     3.0948850000
   16      H      -3.5160520000    -5.6581870000     1.6645390000
   17      C       2.6088130000    -4.5469990000    -2.5245640000
   18      H       3.2706610000    -5.1075640000    -3.2115680000
   19      H       3.2166460000    -4.1314730000    -1.6923420000
   20      H       2.1411840000    -3.7120850000    -3.0902110000
   21      C      -0.6903190000    -2.3143260000     0.8234020000
   22      S       0.9855110000    -2.2954870000    -1.1949350000
   23      C       0.0000000000    -1.4351800000     0.0000000000
   24      H      -1.3612860000    -1.9932110000     1.6300240000
   25      C       0.0000000000     0.0000000000     0.0000000000
   26      S       0.3097210000     0.8444220000     1.5107320000
   27      C       0.8475020000     2.3251080000     0.7276290000
   28      C       0.3106020000     0.8534600000    -1.0646650000
   29      C       0.7841730000     2.1590140000    -0.6782870000
   30      C       0.2894510000     0.7905120000    -2.4861500000
   31      C       0.7219270000     1.9791120000    -3.1069160000
   32      S       1.1454640000     3.1525190000    -1.9657350000
   33      C       0.8133550000     2.2166420000    -4.5599720000
   34      O       0.4968840000     1.3384180000    -5.3502770000
   35      O       1.2552740000     3.4213400000    -5.0043750000
   36      F      -0.0879230000    -0.2577610000    -3.2462900000
   37      C       1.3874940000     3.7549370000    -6.3349760000
   38      H       1.7659780000     4.7930560000    -6.3702680000
   39      H       0.4170950000     3.6937890000    -6.8756090000
   40      H       2.0988200000     3.0810330000    -6.8618780000
   41      H       1.1622290000     3.1896230000     1.3215100000
   42      H       0.4866550000    -9.1464710000     0.7447390000
   43      H      -0.8981840000    -9.1505700000    -0.3990330000
   44      H       0.8327130000    -1.4441580000     0.6876830000
 ----------------------------------------------------------------

   11   -2755.3179955461      7.92e-07  Convergence criterion met
 Total energy in the final basis set =    -2755.3179955461
        RIMP2         total energy =     -2760.4101609519 a.u.

                    Orbital Energies (a.u.)
 --------------------------------------------------------------

 Alpha MOs
 -- Occupied --
-92.0129 -91.9932 -91.9778 -91.9594 -26.3340 -20.6118 -20.5877 -20.5873
-20.5492 -11.4097 -11.3787 -11.3195 -11.3095 -11.3086 -11.2967 -11.2958
-11.2908 -11.2883 -11.2842 -11.2836 -11.2836 -11.2833 -11.2802 -11.2747
-11.2718 -11.2605 -11.2590 -11.2507 -11.2393  -9.0119  -8.9974  -8.9801
 -8.9620  -6.6928  -6.6921  -6.6916  -6.6787  -6.6780  -6.6766  -6.6612
 -6.6603  -6.6590  -6.6432  -6.6423  -6.6412  -1.6476  -1.4714  -1.4108
 -1.4095  -1.3666  -1.2394  -1.2097  -1.1768  -1.1441  -1.0997  -1.0508
 -1.0463  -1.0309  -1.0082  -0.9988  -0.9718  -0.9600  -0.9491  -0.9406
 -0.8942  -0.8708  -0.8640  -0.8110  -0.7930  -0.7857  -0.7762  -0.7691
 -0.7659  -0.7332  -0.7208  -0.7155  -0.6972  -0.6931  -0.6832  -0.6782
 -0.6714  -0.6683  -0.6566  -0.6490  -0.6382  -0.6287  -0.6210  -0.6153
 -0.6110  -0.6059  -0.5958  -0.5929  -0.5800  -0.5660  -0.5638  -0.5583
 -0.5487  -0.5343  -0.5281  -0.5213  -0.5132  -0.5082  -0.5035  -0.5014
 -0.4856  -0.4838  -0.4783  -0.4686  -0.4621  -0.4610  -0.4603  -0.4475
 -0.4276  -0.4013  -0.3852  -0.3718  -0.3515  -0.2936  -0.2851  -0.2186

          Ground-State Mulliken Net Atomic Charges

     Atom                 Charge (a.u.)
  ----------------------------------------
      1 C                    -0.070416
      2 C                    -0.252875
      3 S                    -0.133316
      4 C                    -0.048666
      5 H                     0.194592
      6 C                    -0.045913
      7 C                     0.215318
      8 C                     0.226807
      9 C                    -0.074382
     10 C                    -0.012894
     11 O                    -0.334602
     12 O                    -0.343705
     13 C                    -0.082656
     14 H                     0.119969
     15 H                     0.091981
     16 H                     0.093261
     17 C                    -0.088832
     18 H                     0.124044
     19 H                     0.092087
     20 H                     0.092118
     21 C                    -0.321999
     22 S                    -0.084922
     23 C                     0.117852
     24 H                     0.201739
     25 C                    -0.010744
     26 S                     0.090887
     27 C                    -0.248856
     28 C                    -0.160713
     29 C                    -0.002404
     30 C                     0.385990
     31 C                    -0.149825
     32 S                     0.034147
     33 C                     0.460489
     34 O                    -0.451202
     35 O                    -0.298248
     36 F                    -0.207991
     37 C                    -0.054950
     38 H                     0.116518
     39 H                     0.084602
     40 H                     0.084251
     41 H                     0.214245
     42 H                     0.118345
     43 H                     0.116288
     44 H                     0.204582
  ----------------------------------------
  Sum of atomic charges =     0.000000

                    Cartesian Multipole Moments
 -----------------------------------------------------------------
    Charge (ESU x 10^10)
                -0.0000
    Dipole Moment (Debye)
         X       1.7124      Y       2.3528      Z       3.3692
       Tot       4.4519
    Quadrupole Moments (Debye-Ang)
        XX    -186.1552     XY       2.2935     YY    -172.7867
        XZ     -12.0159     YZ      -6.4776     ZZ    -201.6241

 Total job time:  324.51s(wall), 10561.95s(cpu)
        *  Thank you very much for using Q-Chem.  Have a nice day.  *
