 Q-Chem 5.4, Q-Chem, Inc., Pleasanton, CA (2021)
 Q-Chem 5.4.0 for Intel X86 EM64T Linux

User input:
--------------------------------------------------------------
$molecule
0 1
C	0.175432	-8.519741	-0.208002
C	-0.352097	-7.635967	0.722164
S	0.936458	-7.651740	-1.563424
C	-0.160388	-6.261894	0.386833
H	-0.870905	-7.954738	1.635031
C	0.553685	-6.079985	-0.849637
C	0.816372	-4.798382	-1.357938
C	-0.627524	-5.153542	1.149702
C	-0.368399	-3.869626	0.638941
C	0.348912	-3.688927	-0.597409
O	-1.262667	-5.481075	2.309260
O	1.453338	-4.479871	-2.523296
C	2.449320	-5.356026	-3.036927
H	2.982577	-4.790496	-3.824632
H	2.011155	-6.268513	-3.497250
H	3.173591	-5.658187	-2.249807
C	-2.130793	-4.546999	2.939226
H	-2.663289	-5.107564	3.730721
H	-2.873906	-4.131473	2.225196
H	-1.572045	-3.712085	3.415077
C	0.536849	-2.314326	-0.930765
S	-0.763041	-2.295487	1.347913
C	0.000000	-1.435180	0.000000
H	1.057554	-1.993211	-1.841645
C	0.000000	0.000000	0.000000
S	0.234946	0.868203	1.510732
C	0.641630	2.390125	0.727629
C	0.235036	0.877284	-1.064665
C	0.593019	2.219143	-0.678287
C	0.219452	0.812732	-2.486150
C	0.546689	2.034501	-3.106916
S	0.866345	3.240357	-1.965735
C	0.617067	2.279095	-4.559972
O	0.378342	1.376631	-5.350277
O	0.952308	3.517725	-5.004375
F	-0.065123	-0.264443	-3.246290
C	1.054950	3.861577	-6.334976
H	1.341516	4.928732	-6.370268
H	0.093573	3.716085	-6.875609
H	1.822303	3.252232	-6.861878
H	0.879812	3.278780	1.321510
H	-0.608584	-9.146471	-0.648918
H	0.953830	-9.150570	0.237003
H	-0.939477	-1.444158	-0.532637
$end

$rem
JOBTYPE		SP
EXCHANGE	HF
CORRELATION	pRIMP2
BASIS		cc-pvtz
METHOD		rimp2
AUX_BASIS	rimp2-cc-pvtz
SOLVENT_METHOD	PCM
PURECART	11111
SYMMETRY	false
MEM_TOTAL	110000
SCF_CONVERGENCE = 6
THRESH=10
GUI = 2
$end

$solvent
dielectric 4.90
$end
--------------------------------------------------------------

             Standard Nuclear Orientation (Angstroms)
    I     Atom           X                Y                Z
 ----------------------------------------------------------------
    1      C       0.1754320000    -8.5197410000    -0.2080020000
    2      C      -0.3520970000    -7.6359670000     0.7221640000
    3      S       0.9364580000    -7.6517400000    -1.5634240000
    4      C      -0.1603880000    -6.2618940000     0.3868330000
    5      H      -0.8709050000    -7.9547380000     1.6350310000
    6      C       0.5536850000    -6.0799850000    -0.8496370000
    7      C       0.8163720000    -4.7983820000    -1.3579380000
    8      C      -0.6275240000    -5.1535420000     1.1497020000
    9      C      -0.3683990000    -3.8696260000     0.6389410000
   10      C       0.3489120000    -3.6889270000    -0.5974090000
   11      O      -1.2626670000    -5.4810750000     2.3092600000
   12      O       1.4533380000    -4.4798710000    -2.5232960000
   13      C       2.4493200000    -5.3560260000    -3.0369270000
   14      H       2.9825770000    -4.7904960000    -3.8246320000
   15      H       2.0111550000    -6.2685130000    -3.4972500000
   16      H       3.1735910000    -5.6581870000    -2.2498070000
   17      C      -2.1307930000    -4.5469990000     2.9392260000
   18      H      -2.6632890000    -5.1075640000     3.7307210000
   19      H      -2.8739060000    -4.1314730000     2.2251960000
   20      H      -1.5720450000    -3.7120850000     3.4150770000
   21      C       0.5368490000    -2.3143260000    -0.9307650000
   22      S      -0.7630410000    -2.2954870000     1.3479130000
   23      C       0.0000000000    -1.4351800000     0.0000000000
   24      H       1.0575540000    -1.9932110000    -1.8416450000
   25      C       0.0000000000     0.0000000000     0.0000000000
   26      S       0.2349460000     0.8682030000     1.5107320000
   27      C       0.6416300000     2.3901250000     0.7276290000
   28      C       0.2350360000     0.8772840000    -1.0646650000
   29      C       0.5930190000     2.2191430000    -0.6782870000
   30      C       0.2194520000     0.8127320000    -2.4861500000
   31      C       0.5466890000     2.0345010000    -3.1069160000
   32      S       0.8663450000     3.2403570000    -1.9657350000
   33      C       0.6170670000     2.2790950000    -4.5599720000
   34      O       0.3783420000     1.3766310000    -5.3502770000
   35      O       0.9523080000     3.5177250000    -5.0043750000
   36      F      -0.0651230000    -0.2644430000    -3.2462900000
   37      C       1.0549500000     3.8615770000    -6.3349760000
   38      H       1.3415160000     4.9287320000    -6.3702680000
   39      H       0.0935730000     3.7160850000    -6.8756090000
   40      H       1.8223030000     3.2522320000    -6.8618780000
   41      H       0.8798120000     3.2787800000     1.3215100000
   42      H      -0.6085840000    -9.1464710000    -0.6489180000
   43      H       0.9538300000    -9.1505700000     0.2370030000
   44      H      -0.9394770000    -1.4441580000    -0.5326370000
 ----------------------------------------------------------------

   11   -2755.3228294602      7.18e-07  Convergence criterion met
 Total energy in the final basis set =    -2755.3228294602
        RIMP2         total energy =     -2760.4157435778 a.u.

                    Orbital Energies (a.u.)
 --------------------------------------------------------------

 Alpha MOs
 -- Occupied --
-92.0147 -91.9941 -91.9825 -91.9594 -26.3387 -20.6116 -20.5892 -20.5872
-20.5488 -11.4094 -11.3795 -11.3216 -11.3111 -11.3099 -11.2976 -11.2947
-11.2884 -11.2869 -11.2860 -11.2856 -11.2854 -11.2825 -11.2796 -11.2746
-11.2733 -11.2608 -11.2597 -11.2510 -11.2404  -9.0132  -8.9982  -8.9846
 -8.9619  -6.6940  -6.6934  -6.6929  -6.6795  -6.6788  -6.6775  -6.6658
 -6.6649  -6.6636  -6.6431  -6.6422  -6.6412  -1.6521  -1.4713  -1.4125
 -1.4092  -1.3664  -1.2387  -1.2107  -1.1771  -1.1436  -1.1011  -1.0510
 -1.0480  -1.0286  -1.0102  -1.0000  -0.9718  -0.9603  -0.9500  -0.9411
 -0.8956  -0.8738  -0.8628  -0.8090  -0.7958  -0.7873  -0.7768  -0.7721
 -0.7626  -0.7346  -0.7211  -0.7190  -0.6989  -0.6943  -0.6856  -0.6783
 -0.6745  -0.6721  -0.6573  -0.6493  -0.6386  -0.6291  -0.6213  -0.6156
 -0.6104  -0.6058  -0.5954  -0.5928  -0.5800  -0.5698  -0.5600  -0.5532
 -0.5465  -0.5363  -0.5308  -0.5231  -0.5139  -0.5088  -0.5062  -0.5024
 -0.4854  -0.4845  -0.4784  -0.4700  -0.4629  -0.4611  -0.4598  -0.4478
 -0.4310  -0.3989  -0.3877  -0.3716  -0.3508  -0.2939  -0.2859  -0.2190

          Ground-State Mulliken Net Atomic Charges

     Atom                 Charge (a.u.)
  ----------------------------------------
      1 C                    -0.070865
      2 C                    -0.250616
      3 S                    -0.131975
      4 C                    -0.050188
      5 H                     0.194549
      6 C                    -0.050927
      7 C                     0.221364
      8 C                     0.236073
      9 C                    -0.077201
     10 C                    -0.031599
     11 O                    -0.333855
     12 O                    -0.342395
     13 C                    -0.082985
     14 H                     0.121025
     15 H                     0.092223
     16 H                     0.092552
     17 C                    -0.087729
     18 H                     0.124714
     19 H                     0.093507
     20 H                     0.090192
     21 C                    -0.322457
     22 S                    -0.088476
     23 C                     0.135570
     24 H                     0.202783
     25 C                    -0.074263
     26 S                     0.101344
     27 C                    -0.263628
     28 C                    -0.093269
     29 C                    -0.002563
     30 C                     0.385452
     31 C                    -0.150334
     32 S                     0.035760
     33 C                     0.462971
     34 O                    -0.453688
     35 O                    -0.298422
     36 F                    -0.215907
     37 C                    -0.055028
     38 H                     0.116539
     39 H                     0.084391
     40 H                     0.084219
     41 H                     0.213484
     42 H                     0.118778
     43 H                     0.116351
     44 H                     0.204528
  ----------------------------------------
  Sum of atomic charges =     0.000000

                    Cartesian Multipole Moments
 -----------------------------------------------------------------
    Charge (ESU x 10^10)
                 0.0000
    Dipole Moment (Debye)
         X       0.0981      Y       2.0592      Z       3.2563
       Tot       3.8540
    Quadrupole Moments (Debye-Ang)
        XX    -189.8763     XY       5.9425     YY    -170.4702
        XZ     -12.2375     YZ     -13.7255     ZZ    -199.1549

 Total job time:  327.26s(wall), 10671.11s(cpu)
        *  Thank you very much for using Q-Chem.  Have a nice day.  *
