 Q-Chem 5.4, Q-Chem, Inc., Pleasanton, CA (2021)
 Q-Chem 5.4.0 for Intel X86 EM64T Linux

User input:
--------------------------------------------------------------
$molecule
0 1
C	0.175432	-8.519741	-0.208002
C	-0.352097	-7.635967	0.722164
S	0.936458	-7.651740	-1.563424
C	-0.160388	-6.261894	0.386833
H	-0.870905	-7.954738	1.635031
C	0.553685	-6.079985	-0.849637
C	0.816372	-4.798382	-1.357938
C	-0.627524	-5.153542	1.149702
C	-0.368399	-3.869626	0.638941
C	0.348912	-3.688927	-0.597409
O	-1.262667	-5.481075	2.309260
O	1.453338	-4.479871	-2.523296
C	2.449320	-5.356026	-3.036927
H	2.982577	-4.790496	-3.824632
H	2.011155	-6.268513	-3.497250
H	3.173591	-5.658187	-2.249807
C	-2.130793	-4.546999	2.939226
H	-2.663289	-5.107564	3.730721
H	-2.873906	-4.131473	2.225196
H	-1.572045	-3.712085	3.415077
C	0.536849	-2.314326	-0.930765
S	-0.763041	-2.295487	1.347913
C	-0.000000	-1.435180	-0.000000
H	1.057554	-1.993211	-1.841645
C	0.000000	0.000000	0.000000
S	0.382139	0.814215	1.510732
C	1.046923	2.242395	0.727629
C	0.383804	0.823142	-1.064665
C	0.969360	2.082453	-0.678287
C	0.357247	0.762277	-2.486150
C	0.891671	1.908660	-3.106916
S	1.415865	3.040689	-1.965735
C	1.003453	2.137318	-4.559972
O	0.611644	1.290019	-5.350277
O	1.548687	3.298916	-5.004375
F	-0.110054	-0.249117	-3.246290
C	1.709479	3.619721	-6.334976
H	2.177001	4.620902	-6.370268
H	0.737443	3.643380	-6.875609
H	2.359363	2.886384	-6.861878
H	1.435800	3.076190	1.321510
H	-0.608584	-9.146471	-0.648918
H	0.953830	-9.150570	0.237003
H	-0.939477	-1.444158	-0.532637
$end

$rem
JOBTYPE		SP
EXCHANGE	HF
CORRELATION	pRIMP2
BASIS		cc-pvtz
METHOD		rimp2
AUX_BASIS	rimp2-cc-pvtz
SOLVENT_METHOD	PCM
PURECART	11111
SYMMETRY	false
MEM_TOTAL	110000
SCF_CONVERGENCE = 6
THRESH=10
GUI = 2
$end

$solvent
dielectric 4.90
$end
--------------------------------------------------------------

             Standard Nuclear Orientation (Angstroms)
    I     Atom           X                Y                Z
 ----------------------------------------------------------------
    1      C       0.1754320000    -8.5197410000    -0.2080020000
    2      C      -0.3520970000    -7.6359670000     0.7221640000
    3      S       0.9364580000    -7.6517400000    -1.5634240000
    4      C      -0.1603880000    -6.2618940000     0.3868330000
    5      H      -0.8709050000    -7.9547380000     1.6350310000
    6      C       0.5536850000    -6.0799850000    -0.8496370000
    7      C       0.8163720000    -4.7983820000    -1.3579380000
    8      C      -0.6275240000    -5.1535420000     1.1497020000
    9      C      -0.3683990000    -3.8696260000     0.6389410000
   10      C       0.3489120000    -3.6889270000    -0.5974090000
   11      O      -1.2626670000    -5.4810750000     2.3092600000
   12      O       1.4533380000    -4.4798710000    -2.5232960000
   13      C       2.4493200000    -5.3560260000    -3.0369270000
   14      H       2.9825770000    -4.7904960000    -3.8246320000
   15      H       2.0111550000    -6.2685130000    -3.4972500000
   16      H       3.1735910000    -5.6581870000    -2.2498070000
   17      C      -2.1307930000    -4.5469990000     2.9392260000
   18      H      -2.6632890000    -5.1075640000     3.7307210000
   19      H      -2.8739060000    -4.1314730000     2.2251960000
   20      H      -1.5720450000    -3.7120850000     3.4150770000
   21      C       0.5368490000    -2.3143260000    -0.9307650000
   22      S      -0.7630410000    -2.2954870000     1.3479130000
   23      C       0.0000000000    -1.4351800000     0.0000000000
   24      H       1.0575540000    -1.9932110000    -1.8416450000
   25      C       0.0000000000     0.0000000000     0.0000000000
   26      S       0.3821390000     0.8142150000     1.5107320000
   27      C       1.0469230000     2.2423950000     0.7276290000
   28      C       0.3838040000     0.8231420000    -1.0646650000
   29      C       0.9693600000     2.0824530000    -0.6782870000
   30      C       0.3572470000     0.7622770000    -2.4861500000
   31      C       0.8916710000     1.9086600000    -3.1069160000
   32      S       1.4158650000     3.0406890000    -1.9657350000
   33      C       1.0034530000     2.1373180000    -4.5599720000
   34      O       0.6116440000     1.2900190000    -5.3502770000
   35      O       1.5486870000     3.2989160000    -5.0043750000
   36      F      -0.1100540000    -0.2491170000    -3.2462900000
   37      C       1.7094790000     3.6197210000    -6.3349760000
   38      H       2.1770010000     4.6209020000    -6.3702680000
   39      H       0.7374430000     3.6433800000    -6.8756090000
   40      H       2.3593630000     2.8863840000    -6.8618780000
   41      H       1.4358000000     3.0761900000     1.3215100000
   42      H      -0.6085840000    -9.1464710000    -0.6489180000
   43      H       0.9538300000    -9.1505700000     0.2370030000
   44      H      -0.9394770000    -1.4441580000    -0.5326370000
 ----------------------------------------------------------------

   11   -2755.3142958393      7.24e-07  Convergence criterion met
 Total energy in the final basis set =    -2755.3142958393
        RIMP2         total energy =     -2760.4107868664 a.u.

                    Orbital Energies (a.u.)
 --------------------------------------------------------------

 Alpha MOs
 -- Occupied --
-92.0140 -91.9956 -91.9816 -91.9588 -26.3387 -20.6122 -20.5887 -20.5871
-20.5499 -11.4104 -11.3793 -11.3165 -11.3102 -11.3097 -11.2982 -11.2969
-11.2912 -11.2887 -11.2856 -11.2850 -11.2837 -11.2824 -11.2817 -11.2738
-11.2737 -11.2598 -11.2592 -11.2504 -11.2392  -9.0127  -8.9996  -8.9837
 -8.9614  -6.6934  -6.6928  -6.6923  -6.6809  -6.6802  -6.6789  -6.6649
 -6.6640  -6.6627  -6.6426  -6.6417  -6.6407  -1.6520  -1.4719  -1.4119
 -1.4090  -1.3672  -1.2396  -1.2102  -1.1765  -1.1439  -1.1006  -1.0517
 -1.0475  -1.0292  -1.0097  -0.9996  -0.9722  -0.9601  -0.9497  -0.9412
 -0.8952  -0.8739  -0.8624  -0.8085  -0.7962  -0.7870  -0.7771  -0.7724
 -0.7623  -0.7343  -0.7216  -0.7188  -0.6986  -0.6937  -0.6856  -0.6788
 -0.6740  -0.6726  -0.6570  -0.6490  -0.6385  -0.6286  -0.6208  -0.6152
 -0.6107  -0.6065  -0.5958  -0.5940  -0.5800  -0.5694  -0.5595  -0.5543
 -0.5448  -0.5353  -0.5306  -0.5232  -0.5135  -0.5085  -0.5063  -0.5022
 -0.4858  -0.4845  -0.4773  -0.4695  -0.4623  -0.4613  -0.4605  -0.4472
 -0.4302  -0.3985  -0.3872  -0.3710  -0.3507  -0.2940  -0.2866  -0.2180

          Ground-State Mulliken Net Atomic Charges

     Atom                 Charge (a.u.)
  ----------------------------------------
      1 C                    -0.070665
      2 C                    -0.254197
      3 S                    -0.133315
      4 C                    -0.049290
      5 H                     0.194113
      6 C                    -0.051367
      7 C                     0.222883
      8 C                     0.234532
      9 C                    -0.074398
     10 C                    -0.034638
     11 O                    -0.333991
     12 O                    -0.342722
     13 C                    -0.082900
     14 H                     0.120870
     15 H                     0.092249
     16 H                     0.092538
     17 C                    -0.087763
     18 H                     0.124696
     19 H                     0.093342
     20 H                     0.090019
     21 C                    -0.316516
     22 S                    -0.091190
     23 C                     0.122368
     24 H                     0.202684
     25 C                    -0.054503
     26 S                     0.106436
     27 C                    -0.252296
     28 C                    -0.107959
     29 C                    -0.003272
     30 C                     0.367636
     31 C                    -0.146710
     32 S                     0.042384
     33 C                     0.461237
     34 O                    -0.451767
     35 O                    -0.298298
     36 F                    -0.215042
     37 C                    -0.054882
     38 H                     0.116697
     39 H                     0.084531
     40 H                     0.084406
     41 H                     0.213913
     42 H                     0.118294
     43 H                     0.115866
     44 H                     0.205989
  ----------------------------------------
  Sum of atomic charges =     0.000000

                    Cartesian Multipole Moments
 -----------------------------------------------------------------
    Charge (ESU x 10^10)
                 0.0000
    Dipole Moment (Debye)
         X       0.7503      Y       2.4181      Z       3.1390
       Tot       4.0328
    Quadrupole Moments (Debye-Ang)
        XX    -188.1050     XY       8.0948     YY    -173.5722
        XZ     -14.0499     YZ     -13.2541     ZZ    -198.6720

 Total job time:  368.61s(wall), 10832.16s(cpu)
        *  Thank you very much for using Q-Chem.  Have a nice day.  *
