 Q-Chem 5.4, Q-Chem, Inc., Pleasanton, CA (2021)
 Q-Chem 5.4.0 for Intel X86 EM64T Linux

User input:
--------------------------------------------------------------
$molecule
0 1
C	0.208002	-8.519741	0.175432
C	-0.722164	-7.635967	-0.352097
S	1.563424	-7.651740	0.936458
C	-0.386833	-6.261894	-0.160388
H	-1.635031	-7.954738	-0.870905
C	0.849637	-6.079985	0.553685
C	1.357938	-4.798382	0.816372
C	-1.149702	-5.153542	-0.627524
C	-0.638941	-3.869626	-0.368399
C	0.597409	-3.688927	0.348912
O	-2.309260	-5.481075	-1.262667
O	2.523296	-4.479871	1.453338
C	3.036927	-5.356026	2.449320
H	3.824632	-4.790496	2.982577
H	3.497250	-6.268513	2.011155
H	2.249807	-5.658187	3.173591
C	-2.939226	-4.546999	-2.130793
H	-3.730721	-5.107564	-2.663289
H	-2.225196	-4.131473	-2.873906
H	-3.415077	-3.712085	-1.572045
C	0.930765	-2.314326	0.536849
S	-1.347913	-2.295487	-0.763041
C	0.000000	-1.435180	0.000000
H	1.841645	-1.993211	1.057554
C	0.000000	0.000000	0.000000
S	0.080615	0.895811	1.510732
C	0.216842	2.465231	0.727629
C	0.079127	0.904769	-1.064665
C	0.198659	2.288406	-0.678287
C	0.074988	0.838492	-2.486150
C	0.185097	2.098524	-3.106916
S	0.290501	3.341568	-1.965735
C	0.211932	2.351623	-4.559972
O	0.133545	1.421416	-5.350277
O	0.326994	3.629649	-5.004375
F	-0.018214	-0.271734	-3.246290
C	0.368367	3.986101	-6.334976
H	0.465270	5.086806	-6.370268
H	-0.553140	3.675878	-6.875609
H	1.229874	3.519263	-6.861878
H	0.297091	3.381746	1.321510
H	0.648918	-9.146471	-0.608584
H	-0.237003	-9.150570	0.953830
H	0.532637	-1.444158	-0.939477
$end

$rem
JOBTYPE		SP
EXCHANGE	HF
CORRELATION	pRIMP2
BASIS		cc-pvtz
METHOD		rimp2
AUX_BASIS	rimp2-cc-pvtz
SOLVENT_METHOD	PCM
PURECART	11111
SYMMETRY	false
MEM_TOTAL	110000
SCF_CONVERGENCE = 6
THRESH=10
GUI = 2
$end

$solvent
dielectric 4.90
$end
--------------------------------------------------------------

             Standard Nuclear Orientation (Angstroms)
    I     Atom           X                Y                Z
 ----------------------------------------------------------------
    1      C       0.2080020000    -8.5197410000     0.1754320000
    2      C      -0.7221640000    -7.6359670000    -0.3520970000
    3      S       1.5634240000    -7.6517400000     0.9364580000
    4      C      -0.3868330000    -6.2618940000    -0.1603880000
    5      H      -1.6350310000    -7.9547380000    -0.8709050000
    6      C       0.8496370000    -6.0799850000     0.5536850000
    7      C       1.3579380000    -4.7983820000     0.8163720000
    8      C      -1.1497020000    -5.1535420000    -0.6275240000
    9      C      -0.6389410000    -3.8696260000    -0.3683990000
   10      C       0.5974090000    -3.6889270000     0.3489120000
   11      O      -2.3092600000    -5.4810750000    -1.2626670000
   12      O       2.5232960000    -4.4798710000     1.4533380000
   13      C       3.0369270000    -5.3560260000     2.4493200000
   14      H       3.8246320000    -4.7904960000     2.9825770000
   15      H       3.4972500000    -6.2685130000     2.0111550000
   16      H       2.2498070000    -5.6581870000     3.1735910000
   17      C      -2.9392260000    -4.5469990000    -2.1307930000
   18      H      -3.7307210000    -5.1075640000    -2.6632890000
   19      H      -2.2251960000    -4.1314730000    -2.8739060000
   20      H      -3.4150770000    -3.7120850000    -1.5720450000
   21      C       0.9307650000    -2.3143260000     0.5368490000
   22      S      -1.3479130000    -2.2954870000    -0.7630410000
   23      C       0.0000000000    -1.4351800000     0.0000000000
   24      H       1.8416450000    -1.9932110000     1.0575540000
   25      C       0.0000000000     0.0000000000     0.0000000000
   26      S       0.0806150000     0.8958110000     1.5107320000
   27      C       0.2168420000     2.4652310000     0.7276290000
   28      C       0.0791270000     0.9047690000    -1.0646650000
   29      C       0.1986590000     2.2884060000    -0.6782870000
   30      C       0.0749880000     0.8384920000    -2.4861500000
   31      C       0.1850970000     2.0985240000    -3.1069160000
   32      S       0.2905010000     3.3415680000    -1.9657350000
   33      C       0.2119320000     2.3516230000    -4.5599720000
   34      O       0.1335450000     1.4214160000    -5.3502770000
   35      O       0.3269940000     3.6296490000    -5.0043750000
   36      F      -0.0182140000    -0.2717340000    -3.2462900000
   37      C       0.3683670000     3.9861010000    -6.3349760000
   38      H       0.4652700000     5.0868060000    -6.3702680000
   39      H      -0.5531400000     3.6758780000    -6.8756090000
   40      H       1.2298740000     3.5192630000    -6.8618780000
   41      H       0.2970910000     3.3817460000     1.3215100000
   42      H       0.6489180000    -9.1464710000    -0.6085840000
   43      H      -0.2370030000    -9.1505700000     0.9538300000
   44      H       0.5326370000    -1.4441580000    -0.9394770000
 ----------------------------------------------------------------

   11   -2755.3282974315      7.33e-07  Convergence criterion met
 Total energy in the final basis set =    -2755.3282974315
        RIMP2         total energy =     -2760.4197762494 a.u.

                    Orbital Energies (a.u.)
 --------------------------------------------------------------

 Alpha MOs
 -- Occupied --
-92.0144 -91.9958 -91.9772 -91.9587 -26.3376 -20.6128 -20.5875 -20.5868
-20.5509 -11.4112 -11.3793 -11.3168 -11.3092 -11.3077 -11.2985 -11.2977
-11.2926 -11.2890 -11.2838 -11.2836 -11.2831 -11.2831 -11.2822 -11.2738
-11.2727 -11.2593 -11.2585 -11.2501 -11.2380  -9.0128  -8.9998  -8.9795
 -8.9613  -6.6936  -6.6930  -6.6926  -6.6811  -6.6804  -6.6791  -6.6606
 -6.6597  -6.6584  -6.6426  -6.6416  -6.6406  -1.6507  -1.4726  -1.4104
 -1.4091  -1.3680  -1.2388  -1.2090  -1.1757  -1.1434  -1.1003  -1.0517
 -1.0461  -1.0295  -1.0089  -0.9982  -0.9724  -0.9597  -0.9487  -0.9409
 -0.8934  -0.8741  -0.8629  -0.8109  -0.7925  -0.7857  -0.7805  -0.7682
 -0.7630  -0.7337  -0.7192  -0.7187  -0.6978  -0.6926  -0.6872  -0.6792
 -0.6762  -0.6729  -0.6555  -0.6486  -0.6316  -0.6300  -0.6204  -0.6151
 -0.6107  -0.6070  -0.5958  -0.5934  -0.5826  -0.5651  -0.5585  -0.5570
 -0.5506  -0.5322  -0.5282  -0.5213  -0.5134  -0.5078  -0.5037  -0.5006
 -0.4881  -0.4849  -0.4789  -0.4691  -0.4623  -0.4619  -0.4606  -0.4462
 -0.4264  -0.4016  -0.3855  -0.3704  -0.3504  -0.2927  -0.2877  -0.2202

          Ground-State Mulliken Net Atomic Charges

     Atom                 Charge (a.u.)
  ----------------------------------------
      1 C                    -0.070413
      2 C                    -0.255521
      3 S                    -0.133990
      4 C                    -0.045750
      5 H                     0.194017
      6 C                    -0.050624
      7 C                     0.223533
      8 C                     0.231290
      9 C                    -0.082875
     10 C                    -0.058918
     11 O                    -0.335186
     12 O                    -0.343825
     13 C                    -0.082529
     14 H                     0.119919
     15 H                     0.092089
     16 H                     0.092722
     17 C                    -0.087114
     18 H                     0.122976
     19 H                     0.094109
     20 H                     0.089741
     21 C                    -0.243842
     22 S                    -0.067521
     23 C                     0.062981
     24 H                     0.208595
     25 C                    -0.083596
     26 S                     0.098729
     27 C                    -0.241933
     28 C                    -0.092576
     29 C                    -0.006196
     30 C                     0.380061
     31 C                    -0.136936
     32 S                     0.039088
     33 C                     0.459616
     34 O                    -0.450278
     35 O                    -0.297692
     36 F                    -0.213733
     37 C                    -0.055173
     38 H                     0.116814
     39 H                     0.084706
     40 H                     0.084601
     41 H                     0.214610
     42 H                     0.118023
     43 H                     0.115492
     44 H                     0.192510
  ----------------------------------------
  Sum of atomic charges =     0.000000

                    Cartesian Multipole Moments
 -----------------------------------------------------------------
    Charge (ESU x 10^10)
                -0.0000
    Dipole Moment (Debye)
         X       0.4529      Y       3.1660      Z       2.5654
       Tot       4.1000
    Quadrupole Moments (Debye-Ang)
        XX    -193.3720     XY       4.7602     YY    -172.5030
        XZ       8.2981     YZ      -8.9844     ZZ    -195.7795

 Total job time:  325.36s(wall), 10567.31s(cpu)
        *  Thank you very much for using Q-Chem.  Have a nice day.  *
