 Q-Chem 5.4, Q-Chem, Inc., Pleasanton, CA (2021)
 Q-Chem 5.4.0 for Intel X86 EM64T Linux

User input:
--------------------------------------------------------------
$molecule
0 1
C	-0.235306	-8.519741	-0.136647
C	0.772334	-7.635967	0.221346
S	-1.702286	-7.651740	-0.650746
C	0.408807	-6.261894	0.090779
H	1.761423	-7.954738	0.573754
C	-0.932876	-6.079985	-0.397735
C	-1.479069	-4.798382	-0.568166
C	1.241204	-5.153542	0.418347
C	0.693206	-3.869626	0.251852
C	-0.648921	-3.688927	-0.239872
O	2.493437	-5.481075	0.842486
O	-2.737331	-4.479871	-0.993092
C	-3.416110	-5.356026	-1.884752
H	-4.284447	-4.790496	-2.273124
H	-3.793352	-6.268513	-1.373310
H	-2.766716	-5.658187	-2.734702
C	3.264581	-4.546999	1.588030
H	4.136519	-5.107564	1.974995
H	2.690439	-4.131473	2.443843
H	3.636177	-3.712085	0.955140
C	-1.009848	-2.314326	-0.367068
S	1.459936	-2.295487	0.517386
C	-0.000000	-1.435180	-0.000000
H	-1.997308	-1.993211	-0.721689
C	0.000000	0.000000	0.000000
S	0.690437	0.576430	1.510732
C	1.896512	1.589852	0.727629
C	0.695720	0.583817	-1.064665
C	1.758621	1.477674	-0.678287
C	0.645928	0.539878	-2.486150
C	1.614763	1.352997	-3.106916
S	2.568261	2.157430	-1.965735
C	1.812707	1.512991	-4.559972
O	1.099523	0.910662	-5.350277
O	2.797769	2.335330	-5.004375
F	-0.205024	-0.179266	-3.246290
C	3.079074	2.558124	-6.334976
H	3.925910	3.267919	-6.370268
H	2.208109	2.990367	-6.875609
H	3.358147	1.618843	-6.861878
H	2.601331	2.181180	1.321510
H	-0.533380	-9.146471	0.712022
H	0.067771	-9.150570	-0.980494
H	-0.361406	-1.444158	1.017696
$end

$rem
JOBTYPE		SP
EXCHANGE	HF
CORRELATION	pRIMP2
BASIS		cc-pvtz
METHOD		rimp2
AUX_BASIS	rimp2-cc-pvtz
SOLVENT_METHOD	PCM
PURECART	11111
SYMMETRY	false
MEM_TOTAL	110000
SCF_CONVERGENCE = 6
THRESH=10
GUI = 2
$end

$solvent
dielectric 4.90
$end
--------------------------------------------------------------

             Standard Nuclear Orientation (Angstroms)
    I     Atom           X                Y                Z
 ----------------------------------------------------------------
    1      C      -0.2353060000    -8.5197410000    -0.1366470000
    2      C       0.7723340000    -7.6359670000     0.2213460000
    3      S      -1.7022860000    -7.6517400000    -0.6507460000
    4      C       0.4088070000    -6.2618940000     0.0907790000
    5      H       1.7614230000    -7.9547380000     0.5737540000
    6      C      -0.9328760000    -6.0799850000    -0.3977350000
    7      C      -1.4790690000    -4.7983820000    -0.5681660000
    8      C       1.2412040000    -5.1535420000     0.4183470000
    9      C       0.6932060000    -3.8696260000     0.2518520000
   10      C      -0.6489210000    -3.6889270000    -0.2398720000
   11      O       2.4934370000    -5.4810750000     0.8424860000
   12      O      -2.7373310000    -4.4798710000    -0.9930920000
   13      C      -3.4161100000    -5.3560260000    -1.8847520000
   14      H      -4.2844470000    -4.7904960000    -2.2731240000
   15      H      -3.7933520000    -6.2685130000    -1.3733100000
   16      H      -2.7667160000    -5.6581870000    -2.7347020000
   17      C       3.2645810000    -4.5469990000     1.5880300000
   18      H       4.1365190000    -5.1075640000     1.9749950000
   19      H       2.6904390000    -4.1314730000     2.4438430000
   20      H       3.6361770000    -3.7120850000     0.9551400000
   21      C      -1.0098480000    -2.3143260000    -0.3670680000
   22      S       1.4599360000    -2.2954870000     0.5173860000
   23      C       0.0000000000    -1.4351800000     0.0000000000
   24      H      -1.9973080000    -1.9932110000    -0.7216890000
   25      C       0.0000000000     0.0000000000     0.0000000000
   26      S       0.6904370000     0.5764300000     1.5107320000
   27      C       1.8965120000     1.5898520000     0.7276290000
   28      C       0.6957200000     0.5838170000    -1.0646650000
   29      C       1.7586210000     1.4776740000    -0.6782870000
   30      C       0.6459280000     0.5398780000    -2.4861500000
   31      C       1.6147630000     1.3529970000    -3.1069160000
   32      S       2.5682610000     2.1574300000    -1.9657350000
   33      C       1.8127070000     1.5129910000    -4.5599720000
   34      O       1.0995230000     0.9106620000    -5.3502770000
   35      O       2.7977690000     2.3353300000    -5.0043750000
   36      F      -0.2050240000    -0.1792660000    -3.2462900000
   37      C       3.0790740000     2.5581240000    -6.3349760000
   38      H       3.9259100000     3.2679190000    -6.3702680000
   39      H       2.2081090000     2.9903670000    -6.8756090000
   40      H       3.3581470000     1.6188430000    -6.8618780000
   41      H       2.6013310000     2.1811800000     1.3215100000
   42      H      -0.5333800000    -9.1464710000     0.7120220000
   43      H       0.0677710000    -9.1505700000    -0.9804940000
   44      H      -0.3614060000    -1.4441580000     1.0176960000
 ----------------------------------------------------------------

   11   -2755.2792765418      7.22e-07  Convergence criterion met
 Total energy in the final basis set =    -2755.2792765418
        RIMP2         total energy =     -2760.3847432280 a.u.

                    Orbital Energies (a.u.)
 --------------------------------------------------------------

 Alpha MOs
 -- Occupied --
-92.0176 -92.0037 -91.9716 -91.9551 -26.3354 -20.6156 -20.5853 -20.5843
-20.5563 -11.4156 -11.3765 -11.3199 -11.3099 -11.3070 -11.3025 -11.3001
-11.2903 -11.2892 -11.2832 -11.2823 -11.2811 -11.2800 -11.2739 -11.2693
-11.2683 -11.2555 -11.2510 -11.2467 -11.2309  -9.0168  -9.0074  -8.9743
 -8.9578  -6.6974  -6.6966  -6.6964  -6.6886  -6.6880  -6.6867  -6.6553
 -6.6544  -6.6532  -6.6390  -6.6381  -6.6370  -1.6484  -1.4757  -1.4079
 -1.4068  -1.3718  -1.2449  -1.2065  -1.1735  -1.1461  -1.0962  -1.0538
 -1.0428  -1.0341  -1.0062  -0.9943  -0.9757  -0.9595  -0.9466  -0.9391
 -0.8911  -0.8758  -0.8591  -0.8079  -0.7965  -0.7828  -0.7792  -0.7726
 -0.7622  -0.7332  -0.7204  -0.7175  -0.6964  -0.6940  -0.6815  -0.6790
 -0.6767  -0.6639  -0.6541  -0.6467  -0.6310  -0.6288  -0.6172  -0.6131
 -0.6112  -0.6107  -0.6021  -0.5913  -0.5746  -0.5627  -0.5585  -0.5533
 -0.5409  -0.5363  -0.5293  -0.5223  -0.5115  -0.5058  -0.5055  -0.4986
 -0.4900  -0.4841  -0.4741  -0.4680  -0.4661  -0.4638  -0.4564  -0.4436
 -0.4210  -0.3988  -0.3835  -0.3669  -0.3480  -0.3001  -0.2859  -0.2166

          Ground-State Mulliken Net Atomic Charges

     Atom                 Charge (a.u.)
  ----------------------------------------
      1 C                    -0.069363
      2 C                    -0.276119
      3 S                    -0.141648
      4 C                    -0.040988
      5 H                     0.191013
      6 C                    -0.055302
      7 C                     0.224584
      8 C                     0.220584
      9 C                    -0.077239
     10 C                    -0.054090
     11 O                    -0.335934
     12 O                    -0.343067
     13 C                    -0.082264
     14 H                     0.119594
     15 H                     0.091360
     16 H                     0.093010
     17 C                    -0.086615
     18 H                     0.122662
     19 H                     0.090502
     20 H                     0.089311
     21 C                    -0.268041
     22 S                    -0.084092
     23 C                     0.014375
     24 H                     0.205430
     25 C                    -0.124362
     26 S                     0.117174
     27 C                    -0.168730
     28 C                    -0.026876
     29 C                    -0.017672
     30 C                     0.354990
     31 C                    -0.125621
     32 S                     0.065715
     33 C                     0.457312
     34 O                    -0.439884
     35 O                    -0.296705
     36 F                    -0.210277
     37 C                    -0.054669
     38 H                     0.117386
     39 H                     0.085477
     40 H                     0.085768
     41 H                     0.221069
     42 H                     0.114808
     43 H                     0.112713
     44 H                     0.184722
  ----------------------------------------
  Sum of atomic charges =     0.000000

                    Cartesian Multipole Moments
 -----------------------------------------------------------------
    Charge (ESU x 10^10)
                 0.0000
    Dipole Moment (Debye)
         X       3.9722      Y       4.8446      Z       3.2467
       Tot       7.0562
    Quadrupole Moments (Debye-Ang)
        XX    -179.1498     XY       6.9018     YY    -192.2374
        XZ      -0.5549     YZ      -8.7121     ZZ    -195.4065

 Total job time:  327.11s(wall), 10538.93s(cpu)
        *  Thank you very much for using Q-Chem.  Have a nice day.  *
