 Q-Chem 5.4, Q-Chem, Inc., Pleasanton, CA (2021)
 Q-Chem 5.4.0 for Intel X86 EM64T Linux

User input:
--------------------------------------------------------------
$molecule
0 1
C	0.046574	-8.519741	0.268090
C	-0.326886	-7.635967	-0.733920
S	0.595708	-7.651740	1.722318
C	-0.193236	-6.261894	-0.371516
H	-0.692700	-7.954738	-1.718130
C	0.294958	-6.079985	0.970283
C	0.515487	-4.798382	1.498243
C	-0.477358	-5.153542	-1.219725
C	-0.252655	-3.869626	-0.692914
C	0.233366	-3.688927	0.651289
O	-0.957369	-5.481075	-2.451623
O	0.998769	-4.479871	2.735264
C	0.752029	-5.356026	3.828387
H	1.012675	-4.790496	4.743213
H	1.386303	-6.268513	3.788623
H	-0.316492	-5.658187	3.877260
C	-0.881930	-4.546999	-3.521580
H	-1.145969	-5.107564	-4.438260
H	0.142712	-4.131473	-3.631868
H	-1.605610	-3.712085	-3.399425
C	0.367928	-2.314326	1.009535
S	-0.542088	-2.295487	-1.450945
C	-0.000000	-1.435180	-0.000000
H	0.730999	-1.993211	1.993920
C	0.000000	0.000000	0.000000
S	0.158383	0.885376	1.510732
C	0.430876	2.436951	0.727629
C	0.157682	0.894430	-1.064665
C	0.397351	2.262384	-0.678287
C	0.147783	0.828765	-2.486150
C	0.367291	2.074406	-3.106916
S	0.580633	3.303533	-1.965735
C	0.416083	2.324204	-4.559972
O	0.256921	1.404367	-5.350277
O	0.642094	3.587338	-5.004375
F	-0.041828	-0.269113	-3.246290
C	0.714377	3.938827	-6.334976
H	0.906844	5.026898	-6.370268
H	-0.230661	3.710099	-6.875609
H	1.531918	3.398681	-6.861878
H	0.590699	3.342984	1.321510
H	0.888291	-9.146471	-0.049086
H	-0.794665	-9.150570	0.578334
H	1.011908	-1.444158	-0.377309
$end

$rem
JOBTYPE		SP
EXCHANGE	HF
CORRELATION	pRIMP2
BASIS		cc-pvtz
METHOD		rimp2
AUX_BASIS	rimp2-cc-pvtz
SOLVENT_METHOD	PCM
PURECART	11111
SYMMETRY	false
MEM_TOTAL	110000
SCF_CONVERGENCE = 6
THRESH=10
GUI = 2
$end

$solvent
dielectric 4.90
$end
--------------------------------------------------------------

             Standard Nuclear Orientation (Angstroms)
    I     Atom           X                Y                Z
 ----------------------------------------------------------------
    1      C       0.0465740000    -8.5197410000     0.2680900000
    2      C      -0.3268860000    -7.6359670000    -0.7339200000
    3      S       0.5957080000    -7.6517400000     1.7223180000
    4      C      -0.1932360000    -6.2618940000    -0.3715160000
    5      H      -0.6927000000    -7.9547380000    -1.7181300000
    6      C       0.2949580000    -6.0799850000     0.9702830000
    7      C       0.5154870000    -4.7983820000     1.4982430000
    8      C      -0.4773580000    -5.1535420000    -1.2197250000
    9      C      -0.2526550000    -3.8696260000    -0.6929140000
   10      C       0.2333660000    -3.6889270000     0.6512890000
   11      O      -0.9573690000    -5.4810750000    -2.4516230000
   12      O       0.9987690000    -4.4798710000     2.7352640000
   13      C       0.7520290000    -5.3560260000     3.8283870000
   14      H       1.0126750000    -4.7904960000     4.7432130000
   15      H       1.3863030000    -6.2685130000     3.7886230000
   16      H      -0.3164920000    -5.6581870000     3.8772600000
   17      C      -0.8819300000    -4.5469990000    -3.5215800000
   18      H      -1.1459690000    -5.1075640000    -4.4382600000
   19      H       0.1427120000    -4.1314730000    -3.6318680000
   20      H      -1.6056100000    -3.7120850000    -3.3994250000
   21      C       0.3679280000    -2.3143260000     1.0095350000
   22      S      -0.5420880000    -2.2954870000    -1.4509450000
   23      C       0.0000000000    -1.4351800000     0.0000000000
   24      H       0.7309990000    -1.9932110000     1.9939200000
   25      C       0.0000000000     0.0000000000     0.0000000000
   26      S       0.1583830000     0.8853760000     1.5107320000
   27      C       0.4308760000     2.4369510000     0.7276290000
   28      C       0.1576820000     0.8944300000    -1.0646650000
   29      C       0.3973510000     2.2623840000    -0.6782870000
   30      C       0.1477830000     0.8287650000    -2.4861500000
   31      C       0.3672910000     2.0744060000    -3.1069160000
   32      S       0.5806330000     3.3035330000    -1.9657350000
   33      C       0.4160830000     2.3242040000    -4.5599720000
   34      O       0.2569210000     1.4043670000    -5.3502770000
   35      O       0.6420940000     3.5873380000    -5.0043750000
   36      F      -0.0418280000    -0.2691130000    -3.2462900000
   37      C       0.7143770000     3.9388270000    -6.3349760000
   38      H       0.9068440000     5.0268980000    -6.3702680000
   39      H      -0.2306610000     3.7100990000    -6.8756090000
   40      H       1.5319180000     3.3986810000    -6.8618780000
   41      H       0.5906990000     3.3429840000     1.3215100000
   42      H       0.8882910000    -9.1464710000    -0.0490860000
   43      H      -0.7946650000    -9.1505700000     0.5783340000
   44      H       1.0119080000    -1.4441580000    -0.3773090000
 ----------------------------------------------------------------

   11   -2755.3219380606      6.91e-07  Convergence criterion met
 Total energy in the final basis set =    -2755.3219380606
        RIMP2         total energy =     -2760.4141188357 a.u.

                    Orbital Energies (a.u.)
 --------------------------------------------------------------

 Alpha MOs
 -- Occupied --
-92.0146 -91.9922 -91.9764 -91.9607 -26.3350 -20.6107 -20.5882 -20.5880
-20.5472 -11.4080 -11.3790 -11.3262 -11.3102 -11.3099 -11.2969 -11.2916
-11.2879 -11.2869 -11.2841 -11.2837 -11.2829 -11.2822 -11.2765 -11.2760
-11.2719 -11.2628 -11.2600 -11.2521 -11.2423  -9.0131  -8.9963  -8.9791
 -8.9632  -6.6939  -6.6933  -6.6928  -6.6776  -6.6769  -6.6756  -6.6600
 -6.6592  -6.6577  -6.6444  -6.6435  -6.6425  -1.6503  -1.4702  -1.4115
 -1.4100  -1.3651  -1.2381  -1.2100  -1.1779  -1.1431  -1.1008  -1.0506
 -1.0471  -1.0288  -1.0086  -1.0002  -0.9713  -0.9601  -0.9495  -0.9404
 -0.8949  -0.8728  -0.8630  -0.8128  -0.7944  -0.7862  -0.7770  -0.7664
 -0.7619  -0.7341  -0.7196  -0.7177  -0.6984  -0.6948  -0.6850  -0.6775
 -0.6749  -0.6716  -0.6565  -0.6493  -0.6367  -0.6303  -0.6223  -0.6157
 -0.6108  -0.6045  -0.5968  -0.5912  -0.5782  -0.5673  -0.5630  -0.5592
 -0.5497  -0.5326  -0.5287  -0.5209  -0.5138  -0.5089  -0.5047  -0.4995
 -0.4851  -0.4824  -0.4805  -0.4677  -0.4607  -0.4604  -0.4587  -0.4478
 -0.4318  -0.3993  -0.3852  -0.3722  -0.3509  -0.2930  -0.2839  -0.2190

          Ground-State Mulliken Net Atomic Charges

     Atom                 Charge (a.u.)
  ----------------------------------------
      1 C                    -0.071005
      2 C                    -0.243424
      3 S                    -0.130228
      4 C                    -0.049383
      5 H                     0.195735
      6 C                    -0.048188
      7 C                     0.220407
      8 C                     0.233958
      9 C                    -0.083276
     10 C                    -0.036897
     11 O                    -0.334714
     12 O                    -0.344081
     13 C                    -0.082640
     14 H                     0.120158
     15 H                     0.092072
     16 H                     0.092991
     17 C                    -0.087678
     18 H                     0.124108
     19 H                     0.093870
     20 H                     0.090782
     21 C                    -0.303437
     22 S                    -0.076200
     23 C                     0.100456
     24 H                     0.198936
     25 C                    -0.011902
     26 S                     0.083269
     27 C                    -0.267407
     28 C                    -0.123116
     29 C                    -0.011978
     30 C                     0.393099
     31 C                    -0.152681
     32 S                     0.030798
     33 C                     0.460334
     34 O                    -0.456193
     35 O                    -0.298702
     36 F                    -0.209391
     37 C                    -0.055121
     38 H                     0.116307
     39 H                     0.084025
     40 H                     0.083859
     41 H                     0.213738
     42 H                     0.119660
     43 H                     0.117348
     44 H                     0.211735
  ----------------------------------------
  Sum of atomic charges =     0.000000

                    Cartesian Multipole Moments
 -----------------------------------------------------------------
    Charge (ESU x 10^10)
                -0.0000
    Dipole Moment (Debye)
         X       0.9990      Y       1.3724      Z       2.8002
       Tot       3.2745
    Quadrupole Moments (Debye-Ang)
        XX    -201.1623     XY       3.8880     YY    -168.0259
        XZ      -1.3010     YZ      -5.4477     ZZ    -188.8915

 Total job time:  332.84s(wall), 10672.57s(cpu)
        *  Thank you very much for using Q-Chem.  Have a nice day.  *
