 Q-Chem 5.4, Q-Chem, Inc., Pleasanton, CA (2021)
 Q-Chem 5.4.0 for Intel X86 EM64T Linux

User input:
--------------------------------------------------------------
$molecule
0 1
C	-0.235306	-8.519741	-0.136647
C	0.772334	-7.635967	0.221346
S	-1.702286	-7.651740	-0.650746
C	0.408807	-6.261894	0.090779
H	1.761423	-7.954738	0.573754
C	-0.932876	-6.079985	-0.397735
C	-1.479069	-4.798382	-0.568166
C	1.241204	-5.153542	0.418347
C	0.693206	-3.869626	0.251852
C	-0.648921	-3.688927	-0.239872
O	2.493437	-5.481075	0.842486
O	-2.737331	-4.479871	-0.993092
C	-3.416110	-5.356026	-1.884752
H	-4.284447	-4.790496	-2.273124
H	-3.793352	-6.268513	-1.373310
H	-2.766716	-5.658187	-2.734702
C	3.264581	-4.546999	1.588030
H	4.136519	-5.107564	1.974995
H	2.690439	-4.131473	2.443843
H	3.636177	-3.712085	0.955140
C	-1.009848	-2.314326	-0.367068
S	1.459936	-2.295487	0.517386
C	0.000000	-1.435180	0.000000
H	-1.997308	-1.993211	-0.721689
C	0.000000	0.000000	0.000000
S	0.309721	0.844422	1.510732
C	0.847502	2.325108	0.727629
C	0.310602	0.853460	-1.064665
C	0.784173	2.159014	-0.678287
C	0.289451	0.790512	-2.486150
C	0.721927	1.979112	-3.106916
S	1.145464	3.152519	-1.965735
C	0.813355	2.216642	-4.559972
O	0.496884	1.338418	-5.350277
O	1.255274	3.421340	-5.004375
F	-0.087923	-0.257761	-3.246290
C	1.387494	3.754937	-6.334976
H	1.765978	4.793056	-6.370268
H	0.417095	3.693789	-6.875609
H	2.098820	3.081033	-6.861878
H	1.162229	3.189623	1.321510
H	-0.533380	-9.146471	0.712022
H	0.067771	-9.150570	-0.980494
H	-0.361406	-1.444158	1.017696
$end

$rem
JOBTYPE		SP
EXCHANGE	HF
CORRELATION	pRIMP2
BASIS		cc-pvtz
METHOD		rimp2
AUX_BASIS	rimp2-cc-pvtz
SOLVENT_METHOD	PCM
PURECART	11111
SYMMETRY	false
MEM_TOTAL	110000
SCF_CONVERGENCE = 6
THRESH=10
GUI = 2
$end

$solvent
dielectric 4.90
$end
--------------------------------------------------------------

             Standard Nuclear Orientation (Angstroms)
    I     Atom           X                Y                Z
 ----------------------------------------------------------------
    1      C      -0.2353060000    -8.5197410000    -0.1366470000
    2      C       0.7723340000    -7.6359670000     0.2213460000
    3      S      -1.7022860000    -7.6517400000    -0.6507460000
    4      C       0.4088070000    -6.2618940000     0.0907790000
    5      H       1.7614230000    -7.9547380000     0.5737540000
    6      C      -0.9328760000    -6.0799850000    -0.3977350000
    7      C      -1.4790690000    -4.7983820000    -0.5681660000
    8      C       1.2412040000    -5.1535420000     0.4183470000
    9      C       0.6932060000    -3.8696260000     0.2518520000
   10      C      -0.6489210000    -3.6889270000    -0.2398720000
   11      O       2.4934370000    -5.4810750000     0.8424860000
   12      O      -2.7373310000    -4.4798710000    -0.9930920000
   13      C      -3.4161100000    -5.3560260000    -1.8847520000
   14      H      -4.2844470000    -4.7904960000    -2.2731240000
   15      H      -3.7933520000    -6.2685130000    -1.3733100000
   16      H      -2.7667160000    -5.6581870000    -2.7347020000
   17      C       3.2645810000    -4.5469990000     1.5880300000
   18      H       4.1365190000    -5.1075640000     1.9749950000
   19      H       2.6904390000    -4.1314730000     2.4438430000
   20      H       3.6361770000    -3.7120850000     0.9551400000
   21      C      -1.0098480000    -2.3143260000    -0.3670680000
   22      S       1.4599360000    -2.2954870000     0.5173860000
   23      C       0.0000000000    -1.4351800000     0.0000000000
   24      H      -1.9973080000    -1.9932110000    -0.7216890000
   25      C       0.0000000000     0.0000000000     0.0000000000
   26      S       0.3097210000     0.8444220000     1.5107320000
   27      C       0.8475020000     2.3251080000     0.7276290000
   28      C       0.3106020000     0.8534600000    -1.0646650000
   29      C       0.7841730000     2.1590140000    -0.6782870000
   30      C       0.2894510000     0.7905120000    -2.4861500000
   31      C       0.7219270000     1.9791120000    -3.1069160000
   32      S       1.1454640000     3.1525190000    -1.9657350000
   33      C       0.8133550000     2.2166420000    -4.5599720000
   34      O       0.4968840000     1.3384180000    -5.3502770000
   35      O       1.2552740000     3.4213400000    -5.0043750000
   36      F      -0.0879230000    -0.2577610000    -3.2462900000
   37      C       1.3874940000     3.7549370000    -6.3349760000
   38      H       1.7659780000     4.7930560000    -6.3702680000
   39      H       0.4170950000     3.6937890000    -6.8756090000
   40      H       2.0988200000     3.0810330000    -6.8618780000
   41      H       1.1622290000     3.1896230000     1.3215100000
   42      H      -0.5333800000    -9.1464710000     0.7120220000
   43      H       0.0677710000    -9.1505700000    -0.9804940000
   44      H      -0.3614060000    -1.4441580000     1.0176960000
 ----------------------------------------------------------------

   11   -2755.3199355044      7.34e-07  Convergence criterion met
 Total energy in the final basis set =    -2755.3199355044
        RIMP2         total energy =     -2760.4126031030 a.u.

                    Orbital Energies (a.u.)
 --------------------------------------------------------------

 Alpha MOs
 -- Occupied --
-92.0191 -91.9966 -91.9775 -91.9573 -26.3356 -20.6131 -20.5865 -20.5864
-20.5518 -11.4118 -11.3776 -11.3085 -11.3078 -11.3064 -11.3005 -11.2999
-11.2977 -11.2890 -11.2844 -11.2826 -11.2820 -11.2820 -11.2799 -11.2720
-11.2718 -11.2576 -11.2563 -11.2488 -11.2354  -9.0175  -9.0006  -8.9797
 -8.9600  -6.6982  -6.6976  -6.6971  -6.6818  -6.6812  -6.6798  -6.6608
 -6.6599  -6.6586  -6.6412  -6.6403  -6.6392  -1.6485  -1.4729  -1.4099
 -1.4083  -1.3684  -1.2386  -1.2085  -1.1747  -1.1443  -1.0986  -1.0505
 -1.0453  -1.0314  -1.0082  -0.9970  -0.9731  -0.9595  -0.9481  -0.9401
 -0.8930  -0.8720  -0.8639  -0.8077  -0.7946  -0.7846  -0.7777  -0.7737
 -0.7648  -0.7329  -0.7214  -0.7168  -0.6969  -0.6927  -0.6812  -0.6794
 -0.6731  -0.6640  -0.6558  -0.6480  -0.6320  -0.6304  -0.6193  -0.6142
 -0.6112  -0.6077  -0.5965  -0.5925  -0.5802  -0.5651  -0.5585  -0.5536
 -0.5472  -0.5362  -0.5289  -0.5226  -0.5129  -0.5071  -0.5039  -0.5006
 -0.4877  -0.4858  -0.4765  -0.4717  -0.4628  -0.4621  -0.4602  -0.4455
 -0.4236  -0.4022  -0.3847  -0.3696  -0.3509  -0.2932  -0.2882  -0.2199

          Ground-State Mulliken Net Atomic Charges

     Atom                 Charge (a.u.)
  ----------------------------------------
      1 C                    -0.069994
      2 C                    -0.263739
      3 S                    -0.136773
      4 C                    -0.042687
      5 H                     0.192816
      6 C                    -0.052651
      7 C                     0.224786
      8 C                     0.223082
      9 C                    -0.075636
     10 C                    -0.049131
     11 O                    -0.334968
     12 O                    -0.343454
     13 C                    -0.082296
     14 H                     0.119977
     15 H                     0.091457
     16 H                     0.093380
     17 C                    -0.086816
     18 H                     0.123167
     19 H                     0.091590
     20 H                     0.090315
     21 C                    -0.253920
     22 S                    -0.068720
     23 C                     0.039433
     24 H                     0.204769
     25 C                    -0.067845
     26 S                     0.103301
     27 C                    -0.227373
     28 C                    -0.074728
     29 C                    -0.000520
     30 C                     0.368471
     31 C                    -0.147389
     32 S                     0.043916
     33 C                     0.458370
     34 O                    -0.447451
     35 O                    -0.297559
     36 F                    -0.211445
     37 C                    -0.054928
     38 H                     0.116785
     39 H                     0.084804
     40 H                     0.084886
     41 H                     0.217083
     42 H                     0.116639
     43 H                     0.114572
     44 H                     0.186424
  ----------------------------------------
  Sum of atomic charges =     0.000000

                    Cartesian Multipole Moments
 -----------------------------------------------------------------
    Charge (ESU x 10^10)
                -0.0000
    Dipole Moment (Debye)
         X       1.2558      Y       4.0030      Z       3.6931
       Tot       5.5893
    Quadrupole Moments (Debye-Ang)
        XX    -188.3941     XY       1.9241     YY    -177.8601
        XZ       5.1890     YZ     -11.4663     ZZ    -198.2173

 Total job time:  326.35s(wall), 10568.52s(cpu)
        *  Thank you very much for using Q-Chem.  Have a nice day.  *
