 Q-Chem 5.4, Q-Chem, Inc., Pleasanton, CA (2021)
 Q-Chem 5.4.0 for Intel X86 EM64T Linux

User input:
--------------------------------------------------------------
$molecule
0 1
C	0.268090	-8.519741	-0.046574
C	-0.733920	-7.635967	0.326886
S	1.722318	-7.651740	-0.595708
C	-0.371516	-6.261894	0.193236
H	-1.718130	-7.954738	0.692700
C	0.970283	-6.079985	-0.294958
C	1.498243	-4.798382	-0.515487
C	-1.219725	-5.153542	0.477358
C	-0.692914	-3.869626	0.252655
C	0.651289	-3.688927	-0.233366
O	-2.451623	-5.481075	0.957369
O	2.735264	-4.479871	-0.998769
C	3.828387	-5.356026	-0.752029
H	4.743213	-4.790496	-1.012675
H	3.788623	-6.268513	-1.386303
H	3.877260	-5.658187	0.316492
C	-3.521580	-4.546999	0.881930
H	-4.438260	-5.107564	1.145969
H	-3.631868	-4.131473	-0.142712
H	-3.399425	-3.712085	1.605610
C	1.009535	-2.314326	-0.367928
S	-1.450945	-2.295487	0.542088
C	0.000000	-1.435180	0.000000
H	1.993920	-1.993211	-0.730999
C	0.000000	0.000000	0.000000
S	0.080615	0.895811	1.510732
C	0.216842	2.465231	0.727629
C	0.079127	0.904769	-1.064665
C	0.198659	2.288406	-0.678287
C	0.074988	0.838492	-2.486150
C	0.185097	2.098524	-3.106916
S	0.290501	3.341568	-1.965735
C	0.211932	2.351623	-4.559972
O	0.133545	1.421416	-5.350277
O	0.326994	3.629649	-5.004375
F	-0.018214	-0.271734	-3.246290
C	0.368367	3.986101	-6.334976
H	0.465270	5.086806	-6.370268
H	-0.553140	3.675878	-6.875609
H	1.229874	3.519263	-6.861878
H	0.297091	3.381746	1.321510
H	-0.049086	-9.146471	-0.888291
H	0.578334	-9.150570	0.794665
H	-0.377309	-1.444158	-1.011908
$end

$rem
JOBTYPE		SP
EXCHANGE	HF
CORRELATION	pRIMP2
BASIS		cc-pvtz
METHOD		rimp2
AUX_BASIS	rimp2-cc-pvtz
SOLVENT_METHOD	PCM
PURECART	11111
SYMMETRY	false
MEM_TOTAL	110000
SCF_CONVERGENCE = 6
THRESH=10
GUI = 2
$end

$solvent
dielectric 4.90
$end
--------------------------------------------------------------

             Standard Nuclear Orientation (Angstroms)
    I     Atom           X                Y                Z
 ----------------------------------------------------------------
    1      C       0.2680900000    -8.5197410000    -0.0465740000
    2      C      -0.7339200000    -7.6359670000     0.3268860000
    3      S       1.7223180000    -7.6517400000    -0.5957080000
    4      C      -0.3715160000    -6.2618940000     0.1932360000
    5      H      -1.7181300000    -7.9547380000     0.6927000000
    6      C       0.9702830000    -6.0799850000    -0.2949580000
    7      C       1.4982430000    -4.7983820000    -0.5154870000
    8      C      -1.2197250000    -5.1535420000     0.4773580000
    9      C      -0.6929140000    -3.8696260000     0.2526550000
   10      C       0.6512890000    -3.6889270000    -0.2333660000
   11      O      -2.4516230000    -5.4810750000     0.9573690000
   12      O       2.7352640000    -4.4798710000    -0.9987690000
   13      C       3.8283870000    -5.3560260000    -0.7520290000
   14      H       4.7432130000    -4.7904960000    -1.0126750000
   15      H       3.7886230000    -6.2685130000    -1.3863030000
   16      H       3.8772600000    -5.6581870000     0.3164920000
   17      C      -3.5215800000    -4.5469990000     0.8819300000
   18      H      -4.4382600000    -5.1075640000     1.1459690000
   19      H      -3.6318680000    -4.1314730000    -0.1427120000
   20      H      -3.3994250000    -3.7120850000     1.6056100000
   21      C       1.0095350000    -2.3143260000    -0.3679280000
   22      S      -1.4509450000    -2.2954870000     0.5420880000
   23      C       0.0000000000    -1.4351800000     0.0000000000
   24      H       1.9939200000    -1.9932110000    -0.7309990000
   25      C       0.0000000000     0.0000000000     0.0000000000
   26      S       0.0806150000     0.8958110000     1.5107320000
   27      C       0.2168420000     2.4652310000     0.7276290000
   28      C       0.0791270000     0.9047690000    -1.0646650000
   29      C       0.1986590000     2.2884060000    -0.6782870000
   30      C       0.0749880000     0.8384920000    -2.4861500000
   31      C       0.1850970000     2.0985240000    -3.1069160000
   32      S       0.2905010000     3.3415680000    -1.9657350000
   33      C       0.2119320000     2.3516230000    -4.5599720000
   34      O       0.1335450000     1.4214160000    -5.3502770000
   35      O       0.3269940000     3.6296490000    -5.0043750000
   36      F      -0.0182140000    -0.2717340000    -3.2462900000
   37      C       0.3683670000     3.9861010000    -6.3349760000
   38      H       0.4652700000     5.0868060000    -6.3702680000
   39      H      -0.5531400000     3.6758780000    -6.8756090000
   40      H       1.2298740000     3.5192630000    -6.8618780000
   41      H       0.2970910000     3.3817460000     1.3215100000
   42      H      -0.0490860000    -9.1464710000    -0.8882910000
   43      H       0.5783340000    -9.1505700000     0.7946650000
   44      H      -0.3773090000    -1.4441580000    -1.0119080000
 ----------------------------------------------------------------

   11   -2755.3288264458      7.10e-07  Convergence criterion met
 Total energy in the final basis set =    -2755.3288264458
        RIMP2         total energy =     -2760.4198609584 a.u.

                    Orbital Energies (a.u.)
 --------------------------------------------------------------

 Alpha MOs
 -- Occupied --
-92.0133 -91.9964 -91.9787 -91.9582 -26.3389 -20.6133 -20.5872 -20.5870
-20.5518 -11.4120 -11.3797 -11.3146 -11.3091 -11.3077 -11.3001 -11.2978
-11.2950 -11.2892 -11.2857 -11.2846 -11.2832 -11.2826 -11.2816 -11.2730
-11.2729 -11.2583 -11.2582 -11.2497 -11.2372  -9.0119  -9.0005  -8.9808
 -8.9608  -6.6926  -6.6920  -6.6916  -6.6817  -6.6811  -6.6797  -6.6619
 -6.6610  -6.6598  -6.6420  -6.6411  -6.6401  -1.6519  -1.4731  -1.4105
 -1.4088  -1.3686  -1.2391  -1.2089  -1.1752  -1.1435  -1.1002  -1.0520
 -1.0461  -1.0295  -1.0092  -0.9980  -0.9727  -0.9598  -0.9488  -0.9410
 -0.8937  -0.8745  -0.8629  -0.8088  -0.7943  -0.7854  -0.7801  -0.7717
 -0.7625  -0.7339  -0.7200  -0.7195  -0.6980  -0.6928  -0.6874  -0.6797
 -0.6762  -0.6735  -0.6556  -0.6485  -0.6336  -0.6278  -0.6200  -0.6148
 -0.6113  -0.6076  -0.5961  -0.5932  -0.5834  -0.5665  -0.5582  -0.5533
 -0.5478  -0.5349  -0.5295  -0.5227  -0.5129  -0.5076  -0.5032  -0.5021
 -0.4869  -0.4853  -0.4766  -0.4705  -0.4627  -0.4623  -0.4610  -0.4463
 -0.4235  -0.4039  -0.3858  -0.3702  -0.3503  -0.2930  -0.2889  -0.2207

          Ground-State Mulliken Net Atomic Charges

     Atom                 Charge (a.u.)
  ----------------------------------------
      1 C                    -0.070316
      2 C                    -0.258323
      3 S                    -0.134843
      4 C                    -0.044867
      5 H                     0.193480
      6 C                    -0.052215
      7 C                     0.225155
      8 C                     0.229228
      9 C                    -0.082153
     10 C                    -0.056654
     11 O                    -0.335021
     12 O                    -0.343071
     13 C                    -0.082603
     14 H                     0.120087
     15 H                     0.092184
     16 H                     0.092498
     17 C                    -0.086600
     18 H                     0.123183
     19 H                     0.093016
     20 H                     0.090081
     21 C                    -0.243875
     22 S                    -0.069781
     23 C                     0.061333
     24 H                     0.206035
     25 C                    -0.096942
     26 S                     0.099872
     27 C                    -0.234385
     28 C                    -0.083149
     29 C                    -0.008207
     30 C                     0.388547
     31 C                    -0.137105
     32 S                     0.040020
     33 C                     0.460050
     34 O                    -0.449002
     35 O                    -0.297463
     36 F                    -0.215244
     37 C                    -0.055179
     38 H                     0.116935
     39 H                     0.084897
     40 H                     0.084774
     41 H                     0.215104
     42 H                     0.117586
     43 H                     0.115082
     44 H                     0.187852
  ----------------------------------------
  Sum of atomic charges =     0.000000

                    Cartesian Multipole Moments
 -----------------------------------------------------------------
    Charge (ESU x 10^10)
                -0.0000
    Dipole Moment (Debye)
         X      -0.0001      Y       3.5253      Z       2.5982
       Tot       4.3793
    Quadrupole Moments (Debye-Ang)
        XX    -182.7772     XY       5.0960     YY    -173.5816
        XZ      -1.4211     YZ     -12.4895     ZZ    -206.0450

 Total job time:  362.42s(wall), 10692.79s(cpu)
        *  Thank you very much for using Q-Chem.  Have a nice day.  *
