 Q-Chem 5.4, Q-Chem, Inc., Pleasanton, CA (2021)
 Q-Chem 5.4.0 for Intel X86 EM64T Linux

User input:
--------------------------------------------------------------
$molecule
0 1
C	0.175432	-8.519741	-0.208002
C	-0.352097	-7.635967	0.722164
S	0.936458	-7.651740	-1.563424
C	-0.160388	-6.261894	0.386833
H	-0.870905	-7.954738	1.635031
C	0.553685	-6.079985	-0.849637
C	0.816372	-4.798382	-1.357938
C	-0.627524	-5.153542	1.149702
C	-0.368399	-3.869626	0.638941
C	0.348912	-3.688927	-0.597409
O	-1.262667	-5.481075	2.309260
O	1.453338	-4.479871	-2.523296
C	2.449320	-5.356026	-3.036927
H	2.982577	-4.790496	-3.824632
H	2.011155	-6.268513	-3.497250
H	3.173591	-5.658187	-2.249807
C	-2.130793	-4.546999	2.939226
H	-2.663289	-5.107564	3.730721
H	-2.873906	-4.131473	2.225196
H	-1.572045	-3.712085	3.415077
C	0.536849	-2.314326	-0.930765
S	-0.763041	-2.295487	1.347913
C	-0.000000	-1.435180	-0.000000
H	1.057554	-1.993211	-1.841645
C	0.000000	0.000000	0.000000
S	0.690437	0.576430	1.510732
C	1.896512	1.589852	0.727629
C	0.695720	0.583817	-1.064665
C	1.758621	1.477674	-0.678287
C	0.645928	0.539878	-2.486150
C	1.614763	1.352997	-3.106916
S	2.568261	2.157430	-1.965735
C	1.812707	1.512991	-4.559972
O	1.099523	0.910662	-5.350277
O	2.797769	2.335330	-5.004375
F	-0.205024	-0.179266	-3.246290
C	3.079074	2.558124	-6.334976
H	3.925910	3.267919	-6.370268
H	2.208109	2.990367	-6.875609
H	3.358147	1.618843	-6.861878
H	2.601331	2.181180	1.321510
H	-0.608584	-9.146471	-0.648918
H	0.953830	-9.150570	0.237003
H	-0.939477	-1.444158	-0.532637
$end

$rem
JOBTYPE		SP
EXCHANGE	HF
CORRELATION	pRIMP2
BASIS		cc-pvtz
METHOD		rimp2
AUX_BASIS	rimp2-cc-pvtz
SOLVENT_METHOD	PCM
PURECART	11111
SYMMETRY	false
MEM_TOTAL	110000
SCF_CONVERGENCE = 6
THRESH=10
GUI = 2
$end

$solvent
dielectric 4.90
$end
--------------------------------------------------------------

             Standard Nuclear Orientation (Angstroms)
    I     Atom           X                Y                Z
 ----------------------------------------------------------------
    1      C       0.1754320000    -8.5197410000    -0.2080020000
    2      C      -0.3520970000    -7.6359670000     0.7221640000
    3      S       0.9364580000    -7.6517400000    -1.5634240000
    4      C      -0.1603880000    -6.2618940000     0.3868330000
    5      H      -0.8709050000    -7.9547380000     1.6350310000
    6      C       0.5536850000    -6.0799850000    -0.8496370000
    7      C       0.8163720000    -4.7983820000    -1.3579380000
    8      C      -0.6275240000    -5.1535420000     1.1497020000
    9      C      -0.3683990000    -3.8696260000     0.6389410000
   10      C       0.3489120000    -3.6889270000    -0.5974090000
   11      O      -1.2626670000    -5.4810750000     2.3092600000
   12      O       1.4533380000    -4.4798710000    -2.5232960000
   13      C       2.4493200000    -5.3560260000    -3.0369270000
   14      H       2.9825770000    -4.7904960000    -3.8246320000
   15      H       2.0111550000    -6.2685130000    -3.4972500000
   16      H       3.1735910000    -5.6581870000    -2.2498070000
   17      C      -2.1307930000    -4.5469990000     2.9392260000
   18      H      -2.6632890000    -5.1075640000     3.7307210000
   19      H      -2.8739060000    -4.1314730000     2.2251960000
   20      H      -1.5720450000    -3.7120850000     3.4150770000
   21      C       0.5368490000    -2.3143260000    -0.9307650000
   22      S      -0.7630410000    -2.2954870000     1.3479130000
   23      C       0.0000000000    -1.4351800000     0.0000000000
   24      H       1.0575540000    -1.9932110000    -1.8416450000
   25      C       0.0000000000     0.0000000000     0.0000000000
   26      S       0.6904370000     0.5764300000     1.5107320000
   27      C       1.8965120000     1.5898520000     0.7276290000
   28      C       0.6957200000     0.5838170000    -1.0646650000
   29      C       1.7586210000     1.4776740000    -0.6782870000
   30      C       0.6459280000     0.5398780000    -2.4861500000
   31      C       1.6147630000     1.3529970000    -3.1069160000
   32      S       2.5682610000     2.1574300000    -1.9657350000
   33      C       1.8127070000     1.5129910000    -4.5599720000
   34      O       1.0995230000     0.9106620000    -5.3502770000
   35      O       2.7977690000     2.3353300000    -5.0043750000
   36      F      -0.2050240000    -0.1792660000    -3.2462900000
   37      C       3.0790740000     2.5581240000    -6.3349760000
   38      H       3.9259100000     3.2679190000    -6.3702680000
   39      H       2.2081090000     2.9903670000    -6.8756090000
   40      H       3.3581470000     1.6188430000    -6.8618780000
   41      H       2.6013310000     2.1811800000     1.3215100000
   42      H      -0.6085840000    -9.1464710000    -0.6489180000
   43      H       0.9538300000    -9.1505700000     0.2370030000
   44      H      -0.9394770000    -1.4441580000    -0.5326370000
 ----------------------------------------------------------------

   11   -2755.2749694666      6.95e-07  Convergence criterion met
 Total energy in the final basis set =    -2755.2749694666
        RIMP2         total energy =     -2760.3852177647 a.u.

                    Orbital Energies (a.u.)
 --------------------------------------------------------------

 Alpha MOs
 -- Occupied --
-92.0122 -92.0032 -91.9775 -91.9563 -26.3387 -20.6151 -20.5863 -20.5861
-20.5550 -11.4147 -11.3788 -11.3116 -11.3084 -11.3070 -11.3058 -11.3012
-11.2921 -11.2902 -11.2901 -11.2840 -11.2827 -11.2819 -11.2763 -11.2738
-11.2700 -11.2569 -11.2545 -11.2479 -11.2334  -9.0115  -9.0068  -8.9797
 -8.9589  -6.6922  -6.6913  -6.6911  -6.6880  -6.6874  -6.6861  -6.6608
 -6.6600  -6.6587  -6.6402  -6.6393  -6.6382  -1.6521  -1.4752  -1.4095
 -1.4080  -1.3710  -1.2453  -1.2081  -1.1744  -1.1459  -1.0985  -1.0549
 -1.0452  -1.0322  -1.0074  -0.9973  -0.9747  -0.9599  -0.9482  -0.9412
 -0.8934  -0.8760  -0.8596  -0.8075  -0.7985  -0.7857  -0.7772  -0.7741
 -0.7603  -0.7341  -0.7231  -0.7176  -0.6975  -0.6940  -0.6846  -0.6812
 -0.6770  -0.6714  -0.6556  -0.6478  -0.6383  -0.6269  -0.6184  -0.6139
 -0.6113  -0.6101  -0.6013  -0.5939  -0.5793  -0.5682  -0.5574  -0.5564
 -0.5407  -0.5338  -0.5292  -0.5230  -0.5119  -0.5085  -0.5067  -0.5005
 -0.4894  -0.4823  -0.4727  -0.4680  -0.4639  -0.4626  -0.4573  -0.4446
 -0.4271  -0.3954  -0.3851  -0.3681  -0.3503  -0.2978  -0.2870  -0.2139

          Ground-State Mulliken Net Atomic Charges

     Atom                 Charge (a.u.)
  ----------------------------------------
      1 C                    -0.069489
      2 C                    -0.270384
      3 S                    -0.139676
      4 C                    -0.044301
      5 H                     0.192018
      6 C                    -0.054306
      7 C                     0.229643
      8 C                     0.229401
      9 C                    -0.072326
     10 C                    -0.049744
     11 O                    -0.334975
     12 O                    -0.343945
     13 C                    -0.082801
     14 H                     0.120137
     15 H                     0.092485
     16 H                     0.092357
     17 C                    -0.087249
     18 H                     0.123974
     19 H                     0.092559
     20 H                     0.089343
     21 C                    -0.284856
     22 S                    -0.104538
     23 C                     0.092912
     24 H                     0.199525
     25 C                    -0.125885
     26 S                     0.116523
     27 C                    -0.191399
     28 C                    -0.070221
     29 C                    -0.019717
     30 C                     0.348928
     31 C                    -0.129003
     32 S                     0.065465
     33 C                     0.459755
     34 O                    -0.443780
     35 O                    -0.297349
     36 F                    -0.215537
     37 C                    -0.054678
     38 H                     0.117320
     39 H                     0.085380
     40 H                     0.085271
     41 H                     0.217566
     42 H                     0.116035
     43 H                     0.113561
     44 H                     0.206000
  ----------------------------------------
  Sum of atomic charges =     0.000000

                    Cartesian Multipole Moments
 -----------------------------------------------------------------
    Charge (ESU x 10^10)
                 0.0000
    Dipole Moment (Debye)
         X       3.1507      Y       3.7517      Z       2.6162
       Tot       5.5540
    Quadrupole Moments (Debye-Ang)
        XX    -179.9762     XY      11.1899     YY    -188.0199
        XZ     -18.4706     YZ     -10.8829     ZZ    -196.2435

 Total job time:  328.47s(wall), 10627.21s(cpu)
        *  Thank you very much for using Q-Chem.  Have a nice day.  *
