 Q-Chem 5.4, Q-Chem, Inc., Pleasanton, CA (2021)
 Q-Chem 5.4.0 for Intel X86 EM64T Linux

User input:
--------------------------------------------------------------
$molecule
0 1
C	-0.135457	-8.519741	-0.235993
C	0.558188	-7.635967	0.577858
S	-1.148850	-7.651740	-1.414705
C	0.308648	-6.261894	0.283020
H	1.238560	-7.954738	1.377597
C	-0.609026	-6.079985	-0.810887
C	-0.996828	-4.798382	-1.231581
C	0.865740	-5.153542	0.982901
C	0.474408	-3.869626	0.564713
C	-0.442046	-3.688927	-0.532196
O	1.738137	-5.481075	1.976332
O	-1.874052	-4.479871	-2.228709
C	-2.016062	-5.356026	-3.340298
H	-2.573877	-4.790496	-4.110807
H	-2.598484	-6.268513	-3.085998
H	-1.028695	-5.658187	-3.751679
C	2.033195	-4.546999	3.007565
H	2.594833	-5.107564	3.778655
H	1.108067	-4.131473	3.461650
H	2.671451	-3.712085	2.645264
C	-0.691020	-2.314326	-0.822814
S	1.005649	-2.295487	1.178037
C	-0.000000	-1.435180	-0.000000
H	-1.368875	-1.993211	-1.623656
C	0.000000	0.000000	0.000000
S	0.690437	0.576430	1.510732
C	1.896512	1.589852	0.727629
C	0.695720	0.583817	-1.064665
C	1.758621	1.477674	-0.678287
C	0.645928	0.539878	-2.486150
C	1.614763	1.352997	-3.106916
S	2.568261	2.157430	-1.965735
C	1.812707	1.512991	-4.559972
O	1.099523	0.910662	-5.350277
O	2.797769	2.335330	-5.004375
F	-0.205024	-0.179266	-3.246290
C	3.079074	2.558124	-6.334976
H	3.925910	3.267919	-6.370268
H	2.208109	2.990367	-6.875609
H	3.358147	1.618843	-6.861878
H	2.601331	2.181180	1.321510
H	-0.817932	-9.146471	0.349939
H	0.548939	-9.150570	-0.815247
H	-0.821835	-1.444158	0.700647
$end

$rem
JOBTYPE		SP
EXCHANGE	HF
CORRELATION	pRIMP2
BASIS		cc-pvtz
METHOD		rimp2
AUX_BASIS	rimp2-cc-pvtz
SOLVENT_METHOD	PCM
PURECART	11111
SYMMETRY	false
MEM_TOTAL	110000
SCF_CONVERGENCE = 6
THRESH=10
GUI = 2
$end

$solvent
dielectric 4.90
$end
--------------------------------------------------------------

             Standard Nuclear Orientation (Angstroms)
    I     Atom           X                Y                Z
 ----------------------------------------------------------------
    1      C      -0.1354570000    -8.5197410000    -0.2359930000
    2      C       0.5581880000    -7.6359670000     0.5778580000
    3      S      -1.1488500000    -7.6517400000    -1.4147050000
    4      C       0.3086480000    -6.2618940000     0.2830200000
    5      H       1.2385600000    -7.9547380000     1.3775970000
    6      C      -0.6090260000    -6.0799850000    -0.8108870000
    7      C      -0.9968280000    -4.7983820000    -1.2315810000
    8      C       0.8657400000    -5.1535420000     0.9829010000
    9      C       0.4744080000    -3.8696260000     0.5647130000
   10      C      -0.4420460000    -3.6889270000    -0.5321960000
   11      O       1.7381370000    -5.4810750000     1.9763320000
   12      O      -1.8740520000    -4.4798710000    -2.2287090000
   13      C      -2.0160620000    -5.3560260000    -3.3402980000
   14      H      -2.5738770000    -4.7904960000    -4.1108070000
   15      H      -2.5984840000    -6.2685130000    -3.0859980000
   16      H      -1.0286950000    -5.6581870000    -3.7516790000
   17      C       2.0331950000    -4.5469990000     3.0075650000
   18      H       2.5948330000    -5.1075640000     3.7786550000
   19      H       1.1080670000    -4.1314730000     3.4616500000
   20      H       2.6714510000    -3.7120850000     2.6452640000
   21      C      -0.6910200000    -2.3143260000    -0.8228140000
   22      S       1.0056490000    -2.2954870000     1.1780370000
   23      C       0.0000000000    -1.4351800000     0.0000000000
   24      H      -1.3688750000    -1.9932110000    -1.6236560000
   25      C       0.0000000000     0.0000000000     0.0000000000
   26      S       0.6904370000     0.5764300000     1.5107320000
   27      C       1.8965120000     1.5898520000     0.7276290000
   28      C       0.6957200000     0.5838170000    -1.0646650000
   29      C       1.7586210000     1.4776740000    -0.6782870000
   30      C       0.6459280000     0.5398780000    -2.4861500000
   31      C       1.6147630000     1.3529970000    -3.1069160000
   32      S       2.5682610000     2.1574300000    -1.9657350000
   33      C       1.8127070000     1.5129910000    -4.5599720000
   34      O       1.0995230000     0.9106620000    -5.3502770000
   35      O       2.7977690000     2.3353300000    -5.0043750000
   36      F      -0.2050240000    -0.1792660000    -3.2462900000
   37      C       3.0790740000     2.5581240000    -6.3349760000
   38      H       3.9259100000     3.2679190000    -6.3702680000
   39      H       2.2081090000     2.9903670000    -6.8756090000
   40      H       3.3581470000     1.6188430000    -6.8618780000
   41      H       2.6013310000     2.1811800000     1.3215100000
   42      H      -0.8179320000    -9.1464710000     0.3499390000
   43      H       0.5489390000    -9.1505700000    -0.8152470000
   44      H      -0.8218350000    -1.4441580000     0.7006470000
 ----------------------------------------------------------------

   11   -2755.2715849905      7.50e-07  Convergence criterion met
 Total energy in the final basis set =    -2755.2715849905
        RIMP2         total energy =     -2760.3802705479 a.u.

                    Orbital Energies (a.u.)
 --------------------------------------------------------------

 Alpha MOs
 -- Occupied --
-92.0171 -92.0030 -91.9750 -91.9549 -26.3369 -20.6154 -20.5851 -20.5839
-20.5558 -11.4153 -11.3776 -11.3166 -11.3087 -11.3069 -11.3015 -11.3005
-11.2903 -11.2890 -11.2865 -11.2834 -11.2808 -11.2786 -11.2734 -11.2713
-11.2683 -11.2551 -11.2517 -11.2462 -11.2293  -9.0164  -9.0067  -8.9774
 -8.9575  -6.6970  -6.6962  -6.6960  -6.6879  -6.6873  -6.6860  -6.6583
 -6.6574  -6.6561  -6.6388  -6.6378  -6.6368  -1.6501  -1.4755  -1.4077
 -1.4065  -1.3715  -1.2447  -1.2071  -1.1731  -1.1459  -1.0962  -1.0539
 -1.0435  -1.0335  -1.0066  -0.9953  -0.9754  -0.9594  -0.9463  -0.9390
 -0.8922  -0.8753  -0.8598  -0.8072  -0.7985  -0.7847  -0.7766  -0.7718
 -0.7612  -0.7320  -0.7219  -0.7188  -0.6963  -0.6938  -0.6815  -0.6808
 -0.6766  -0.6644  -0.6543  -0.6466  -0.6356  -0.6276  -0.6167  -0.6122
 -0.6108  -0.6105  -0.6018  -0.5913  -0.5736  -0.5660  -0.5569  -0.5541
 -0.5409  -0.5375  -0.5303  -0.5227  -0.5141  -0.5078  -0.5054  -0.4983
 -0.4890  -0.4824  -0.4735  -0.4698  -0.4654  -0.4638  -0.4524  -0.4428
 -0.4259  -0.3944  -0.3823  -0.3662  -0.3505  -0.2987  -0.2850  -0.2131

          Ground-State Mulliken Net Atomic Charges

     Atom                 Charge (a.u.)
  ----------------------------------------
      1 C                    -0.068925
      2 C                    -0.281560
      3 S                    -0.141798
      4 C                    -0.039397
      5 H                     0.190471
      6 C                    -0.055381
      7 C                     0.224142
      8 C                     0.214641
      9 C                    -0.079391
     10 C                    -0.053322
     11 O                    -0.336093
     12 O                    -0.343340
     13 C                    -0.082283
     14 H                     0.120128
     15 H                     0.091511
     16 H                     0.092528
     17 C                    -0.087298
     18 H                     0.122992
     19 H                     0.090710
     20 H                     0.088595
     21 C                    -0.275118
     22 S                    -0.084737
     23 C                     0.041847
     24 H                     0.206914
     25 C                    -0.151858
     26 S                     0.102624
     27 C                    -0.169441
     28 C                    -0.002290
     29 C                    -0.026310
     30 C                     0.362277
     31 C                    -0.121575
     32 S                     0.061858
     33 C                     0.457486
     34 O                    -0.441535
     35 O                    -0.296841
     36 F                    -0.211581
     37 C                    -0.054677
     38 H                     0.117416
     39 H                     0.085356
     40 H                     0.085604
     41 H                     0.220753
     42 H                     0.114347
     43 H                     0.111990
     44 H                     0.200562
  ----------------------------------------
  Sum of atomic charges =     0.000000

                    Cartesian Multipole Moments
 -----------------------------------------------------------------
    Charge (ESU x 10^10)
                 0.0000
    Dipole Moment (Debye)
         X       3.5663      Y       4.8855      Z       3.1864
       Tot       6.8367
    Quadrupole Moments (Debye-Ang)
        XX    -187.8599     XY       7.6837     YY    -194.4376
        XZ      -3.2577     YZ      -9.9052     ZZ    -187.1722

 Total job time:  324.79s(wall), 10566.71s(cpu)
        *  Thank you very much for using Q-Chem.  Have a nice day.  *
