 Q-Chem 5.4, Q-Chem, Inc., Pleasanton, CA (2021)
 Q-Chem 5.4.0 for Intel X86 EM64T Linux

User input:
--------------------------------------------------------------
$molecule
0 1
C	-0.272104	-8.519741	-0.000687
C	0.779533	-7.635967	-0.194476
S	-1.799596	-7.651740	0.287581
C	0.399427	-6.261894	-0.125787
H	1.812314	-7.954738	-0.383826
C	-1.006762	-6.079985	0.121989
C	-1.564994	-4.798382	0.247488
C	1.284087	-5.153542	-0.258303
C	0.726260	-3.869626	-0.128493
C	-0.681918	-3.688927	0.116725
O	2.580622	-5.481075	-0.517104
O	-2.867144	-4.479871	0.508622
C	-3.900814	-5.356026	0.075811
H	-4.847002	-4.790496	0.173640
H	-3.971794	-6.268513	0.707354
H	-3.763397	-5.658187	-0.984963
C	3.621225	-4.546999	-0.257016
H	4.569828	-5.107564	-0.357864
H	3.551910	-4.131473	0.771211
H	3.626592	-3.712085	-0.990913
C	-1.058088	-2.314326	0.187034
S	1.523035	-2.295487	-0.281899
C	-0.000000	-1.435180	-0.000000
H	-2.090565	-1.993211	0.373653
C	0.000000	0.000000	0.000000
S	0.451648	0.777811	1.510732
C	1.238377	2.142617	0.727629
C	0.454085	0.786559	-1.064665
C	1.147169	1.990043	-0.678287
C	0.422325	0.728240	-2.486150
C	1.054629	1.823683	-3.106916
S	1.675491	2.905718	-1.965735
C	1.185914	2.041729	-4.559972
O	0.721749	1.231802	-5.350277
O	1.830313	3.151386	-5.004375
F	-0.131347	-0.238577	-3.246290
C	2.018453	3.456956	-6.334976
H	2.571455	4.413580	-6.370268
H	1.052178	3.565244	-6.875609
H	2.601950	2.669768	-6.861878
H	1.698444	2.939346	1.321510
H	-0.105910	-9.146471	0.883319
H	-0.431555	-9.150570	-0.883019
H	0.195861	-1.444158	1.062054
$end

$rem
JOBTYPE		SP
EXCHANGE	HF
CORRELATION	pRIMP2
BASIS		cc-pvtz
METHOD		rimp2
AUX_BASIS	rimp2-cc-pvtz
SOLVENT_METHOD	PCM
PURECART	11111
SYMMETRY	false
MEM_TOTAL	110000
SCF_CONVERGENCE = 6
THRESH=10
GUI = 2
$end

$solvent
dielectric 4.90
$end
--------------------------------------------------------------

             Standard Nuclear Orientation (Angstroms)
    I     Atom           X                Y                Z
 ----------------------------------------------------------------
    1      C      -0.2721040000    -8.5197410000    -0.0006870000
    2      C       0.7795330000    -7.6359670000    -0.1944760000
    3      S      -1.7995960000    -7.6517400000     0.2875810000
    4      C       0.3994270000    -6.2618940000    -0.1257870000
    5      H       1.8123140000    -7.9547380000    -0.3838260000
    6      C      -1.0067620000    -6.0799850000     0.1219890000
    7      C      -1.5649940000    -4.7983820000     0.2474880000
    8      C       1.2840870000    -5.1535420000    -0.2583030000
    9      C       0.7262600000    -3.8696260000    -0.1284930000
   10      C      -0.6819180000    -3.6889270000     0.1167250000
   11      O       2.5806220000    -5.4810750000    -0.5171040000
   12      O      -2.8671440000    -4.4798710000     0.5086220000
   13      C      -3.9008140000    -5.3560260000     0.0758110000
   14      H      -4.8470020000    -4.7904960000     0.1736400000
   15      H      -3.9717940000    -6.2685130000     0.7073540000
   16      H      -3.7633970000    -5.6581870000    -0.9849630000
   17      C       3.6212250000    -4.5469990000    -0.2570160000
   18      H       4.5698280000    -5.1075640000    -0.3578640000
   19      H       3.5519100000    -4.1314730000     0.7712110000
   20      H       3.6265920000    -3.7120850000    -0.9909130000
   21      C      -1.0580880000    -2.3143260000     0.1870340000
   22      S       1.5230350000    -2.2954870000    -0.2818990000
   23      C       0.0000000000    -1.4351800000     0.0000000000
   24      H      -2.0905650000    -1.9932110000     0.3736530000
   25      C       0.0000000000     0.0000000000     0.0000000000
   26      S       0.4516480000     0.7778110000     1.5107320000
   27      C       1.2383770000     2.1426170000     0.7276290000
   28      C       0.4540850000     0.7865590000    -1.0646650000
   29      C       1.1471690000     1.9900430000    -0.6782870000
   30      C       0.4223250000     0.7282400000    -2.4861500000
   31      C       1.0546290000     1.8236830000    -3.1069160000
   32      S       1.6754910000     2.9057180000    -1.9657350000
   33      C       1.1859140000     2.0417290000    -4.5599720000
   34      O       0.7217490000     1.2318020000    -5.3502770000
   35      O       1.8303130000     3.1513860000    -5.0043750000
   36      F      -0.1313470000    -0.2385770000    -3.2462900000
   37      C       2.0184530000     3.4569560000    -6.3349760000
   38      H       2.5714550000     4.4135800000    -6.3702680000
   39      H       1.0521780000     3.5652440000    -6.8756090000
   40      H       2.6019500000     2.6697680000    -6.8618780000
   41      H       1.6984440000     2.9393460000     1.3215100000
   42      H      -0.1059100000    -9.1464710000     0.8833190000
   43      H      -0.4315550000    -9.1505700000    -0.8830190000
   44      H       0.1958610000    -1.4441580000     1.0620540000
 ----------------------------------------------------------------

   11   -2755.3092716911      7.43e-07  Convergence criterion met
 Total energy in the final basis set =    -2755.3092716911
        RIMP2         total energy =     -2760.4047690854 a.u.

                    Orbital Energies (a.u.)
 --------------------------------------------------------------

 Alpha MOs
 -- Occupied --
-92.0178 -91.9982 -91.9769 -91.9566 -26.3353 -20.6138 -20.5865 -20.5858
-20.5530 -11.4128 -11.3775 -11.3082 -11.3056 -11.3041 -11.3031 -11.3031
-11.2984 -11.2894 -11.2847 -11.2839 -11.2821 -11.2820 -11.2782 -11.2712
-11.2706 -11.2570 -11.2544 -11.2482 -11.2340  -9.0166  -9.0021  -8.9791
 -8.9593  -6.6972  -6.6966  -6.6961  -6.6834  -6.6827  -6.6814  -6.6602
 -6.6593  -6.6580  -6.6405  -6.6396  -6.6385  -1.6482  -1.4737  -1.4094
 -1.4081  -1.3693  -1.2407  -1.2081  -1.1744  -1.1450  -1.0978  -1.0516
 -1.0444  -1.0327  -1.0075  -0.9962  -0.9738  -0.9594  -0.9477  -0.9402
 -0.8923  -0.8729  -0.8626  -0.8091  -0.7938  -0.7840  -0.7764  -0.7751
 -0.7643  -0.7332  -0.7210  -0.7166  -0.6964  -0.6933  -0.6806  -0.6799
 -0.6739  -0.6642  -0.6554  -0.6478  -0.6329  -0.6286  -0.6186  -0.6141
 -0.6113  -0.6085  -0.5979  -0.5925  -0.5803  -0.5630  -0.5608  -0.5554
 -0.5463  -0.5351  -0.5285  -0.5215  -0.5119  -0.5066  -0.5043  -0.5005
 -0.4886  -0.4851  -0.4747  -0.4699  -0.4636  -0.4626  -0.4602  -0.4453
 -0.4220  -0.4032  -0.3843  -0.3691  -0.3505  -0.2946  -0.2884  -0.2189

          Ground-State Mulliken Net Atomic Charges

     Atom                 Charge (a.u.)
  ----------------------------------------
      1 C                    -0.069760
      2 C                    -0.267320
      3 S                    -0.139001
      4 C                    -0.042316
      5 H                     0.192390
      6 C                    -0.054072
      7 C                     0.224248
      8 C                     0.222859
      9 C                    -0.073137
     10 C                    -0.047028
     11 O                    -0.335002
     12 O                    -0.343339
     13 C                    -0.082430
     14 H                     0.119612
     15 H                     0.091744
     16 H                     0.093267
     17 C                    -0.087021
     18 H                     0.123167
     19 H                     0.091476
     20 H                     0.090472
     21 C                    -0.261766
     22 S                    -0.075175
     23 C                     0.028215
     24 H                     0.204041
     25 C                    -0.024952
     26 S                     0.103760
     27 C                    -0.215467
     28 C                    -0.133474
     29 C                     0.004640
     30 C                     0.382050
     31 C                    -0.145998
     32 S                     0.049537
     33 C                     0.458684
     34 O                    -0.445033
     35 O                    -0.297386
     36 F                    -0.210555
     37 C                    -0.054947
     38 H                     0.116934
     39 H                     0.085057
     40 H                     0.085194
     41 H                     0.217838
     42 H                     0.116104
     43 H                     0.114069
     44 H                     0.189820
  ----------------------------------------
  Sum of atomic charges =     0.000000

                    Cartesian Multipole Moments
 -----------------------------------------------------------------
    Charge (ESU x 10^10)
                 0.0000
    Dipole Moment (Debye)
         X       2.3228      Y       4.3021      Z       3.5083
       Tot       6.0176
    Quadrupole Moments (Debye-Ang)
        XX    -179.2624     XY       3.8916     YY    -181.9380
        XZ      -3.0283     YZ      -9.0525     ZZ    -204.2616

 Total job time:  326.51s(wall), 10535.77s(cpu)
        *  Thank you very much for using Q-Chem.  Have a nice day.  *
