 Q-Chem 5.4, Q-Chem, Inc., Pleasanton, CA (2021)
 Q-Chem 5.4.0 for Intel X86 EM64T Linux

User input:
--------------------------------------------------------------
$molecule
0 1
C	0.046574	-8.519741	0.268090
C	-0.326886	-7.635967	-0.733920
S	0.595708	-7.651740	1.722318
C	-0.193236	-6.261894	-0.371516
H	-0.692700	-7.954738	-1.718130
C	0.294958	-6.079985	0.970283
C	0.515487	-4.798382	1.498243
C	-0.477358	-5.153542	-1.219725
C	-0.252655	-3.869626	-0.692914
C	0.233366	-3.688927	0.651289
O	-0.957369	-5.481075	-2.451623
O	0.998769	-4.479871	2.735264
C	0.752029	-5.356026	3.828387
H	1.012675	-4.790496	4.743213
H	1.386303	-6.268513	3.788623
H	-0.316492	-5.658187	3.877260
C	-0.881930	-4.546999	-3.521580
H	-1.145969	-5.107564	-4.438260
H	0.142712	-4.131473	-3.631868
H	-1.605610	-3.712085	-3.399425
C	0.367928	-2.314326	1.009535
S	-0.542088	-2.295487	-1.450945
C	-0.000000	-1.435180	-0.000000
H	0.730999	-1.993211	1.993920
C	0.000000	0.000000	0.000000
S	0.451648	0.777811	1.510732
C	1.238377	2.142617	0.727629
C	0.454085	0.786559	-1.064665
C	1.147169	1.990043	-0.678287
C	0.422325	0.728240	-2.486150
C	1.054629	1.823683	-3.106916
S	1.675491	2.905718	-1.965735
C	1.185914	2.041729	-4.559972
O	0.721749	1.231802	-5.350277
O	1.830313	3.151386	-5.004375
F	-0.131347	-0.238577	-3.246290
C	2.018453	3.456956	-6.334976
H	2.571455	4.413580	-6.370268
H	1.052178	3.565244	-6.875609
H	2.601950	2.669768	-6.861878
H	1.698444	2.939346	1.321510
H	0.888291	-9.146471	-0.049086
H	-0.794665	-9.150570	0.578334
H	1.011908	-1.444158	-0.377309
$end

$rem
JOBTYPE		SP
EXCHANGE	HF
CORRELATION	pRIMP2
BASIS		cc-pvtz
METHOD		rimp2
AUX_BASIS	rimp2-cc-pvtz
SOLVENT_METHOD	PCM
PURECART	11111
SYMMETRY	false
MEM_TOTAL	110000
SCF_CONVERGENCE = 6
THRESH=10
GUI = 2
$end

$solvent
dielectric 4.90
$end
--------------------------------------------------------------

             Standard Nuclear Orientation (Angstroms)
    I     Atom           X                Y                Z
 ----------------------------------------------------------------
    1      C       0.0465740000    -8.5197410000     0.2680900000
    2      C      -0.3268860000    -7.6359670000    -0.7339200000
    3      S       0.5957080000    -7.6517400000     1.7223180000
    4      C      -0.1932360000    -6.2618940000    -0.3715160000
    5      H      -0.6927000000    -7.9547380000    -1.7181300000
    6      C       0.2949580000    -6.0799850000     0.9702830000
    7      C       0.5154870000    -4.7983820000     1.4982430000
    8      C      -0.4773580000    -5.1535420000    -1.2197250000
    9      C      -0.2526550000    -3.8696260000    -0.6929140000
   10      C       0.2333660000    -3.6889270000     0.6512890000
   11      O      -0.9573690000    -5.4810750000    -2.4516230000
   12      O       0.9987690000    -4.4798710000     2.7352640000
   13      C       0.7520290000    -5.3560260000     3.8283870000
   14      H       1.0126750000    -4.7904960000     4.7432130000
   15      H       1.3863030000    -6.2685130000     3.7886230000
   16      H      -0.3164920000    -5.6581870000     3.8772600000
   17      C      -0.8819300000    -4.5469990000    -3.5215800000
   18      H      -1.1459690000    -5.1075640000    -4.4382600000
   19      H       0.1427120000    -4.1314730000    -3.6318680000
   20      H      -1.6056100000    -3.7120850000    -3.3994250000
   21      C       0.3679280000    -2.3143260000     1.0095350000
   22      S      -0.5420880000    -2.2954870000    -1.4509450000
   23      C       0.0000000000    -1.4351800000     0.0000000000
   24      H       0.7309990000    -1.9932110000     1.9939200000
   25      C       0.0000000000     0.0000000000     0.0000000000
   26      S       0.4516480000     0.7778110000     1.5107320000
   27      C       1.2383770000     2.1426170000     0.7276290000
   28      C       0.4540850000     0.7865590000    -1.0646650000
   29      C       1.1471690000     1.9900430000    -0.6782870000
   30      C       0.4223250000     0.7282400000    -2.4861500000
   31      C       1.0546290000     1.8236830000    -3.1069160000
   32      S       1.6754910000     2.9057180000    -1.9657350000
   33      C       1.1859140000     2.0417290000    -4.5599720000
   34      O       0.7217490000     1.2318020000    -5.3502770000
   35      O       1.8303130000     3.1513860000    -5.0043750000
   36      F      -0.1313470000    -0.2385770000    -3.2462900000
   37      C       2.0184530000     3.4569560000    -6.3349760000
   38      H       2.5714550000     4.4135800000    -6.3702680000
   39      H       1.0521780000     3.5652440000    -6.8756090000
   40      H       2.6019500000     2.6697680000    -6.8618780000
   41      H       1.6984440000     2.9393460000     1.3215100000
   42      H       0.8882910000    -9.1464710000    -0.0490860000
   43      H      -0.7946650000    -9.1505700000     0.5783340000
   44      H       1.0119080000    -1.4441580000    -0.3773090000
 ----------------------------------------------------------------

   11   -2755.3066010479      6.44e-07  Convergence criterion met
 Total energy in the final basis set =    -2755.3066010479
        RIMP2         total energy =     -2760.4050949378 a.u.

                    Orbital Energies (a.u.)
 --------------------------------------------------------------

 Alpha MOs
 -- Occupied --
-92.0153 -91.9943 -91.9745 -91.9599 -26.3347 -20.6114 -20.5878 -20.5873
-20.5483 -11.4090 -11.3785 -11.3201 -11.3094 -11.3090 -11.2980 -11.2940
-11.2883 -11.2879 -11.2853 -11.2835 -11.2835 -11.2819 -11.2769 -11.2753
-11.2710 -11.2609 -11.2593 -11.2513 -11.2408  -9.0139  -8.9983  -8.9773
 -8.9625  -6.6947  -6.6941  -6.6936  -6.6796  -6.6789  -6.6776  -6.6583
 -6.6574  -6.6560  -6.6437  -6.6428  -6.6418  -1.6500  -1.4710  -1.4108
 -1.4095  -1.3660  -1.2407  -1.2090  -1.1774  -1.1441  -1.0997  -1.0515
 -1.0465  -1.0297  -1.0075  -0.9993  -0.9721  -0.9596  -0.9491  -0.9405
 -0.8941  -0.8730  -0.8615  -0.8129  -0.7945  -0.7860  -0.7766  -0.7655
 -0.7612  -0.7334  -0.7201  -0.7174  -0.6986  -0.6947  -0.6855  -0.6781
 -0.6752  -0.6725  -0.6559  -0.6489  -0.6354  -0.6295  -0.6216  -0.6152
 -0.6108  -0.6054  -0.5974  -0.5930  -0.5762  -0.5670  -0.5623  -0.5586
 -0.5500  -0.5319  -0.5293  -0.5208  -0.5132  -0.5084  -0.5044  -0.4997
 -0.4854  -0.4835  -0.4788  -0.4653  -0.4608  -0.4597  -0.4593  -0.4473
 -0.4318  -0.3985  -0.3840  -0.3713  -0.3512  -0.2931  -0.2848  -0.2174

          Ground-State Mulliken Net Atomic Charges

     Atom                 Charge (a.u.)
  ----------------------------------------
      1 C                    -0.070803
      2 C                    -0.248096
      3 S                    -0.132091
      4 C                    -0.047796
      5 H                     0.195192
      6 C                    -0.047437
      7 C                     0.218536
      8 C                     0.231515
      9 C                    -0.077993
     10 C                    -0.034316
     11 O                    -0.334990
     12 O                    -0.344119
     13 C                    -0.082657
     14 H                     0.119961
     15 H                     0.092086
     16 H                     0.092936
     17 C                    -0.087404
     18 H                     0.123696
     19 H                     0.093361
     20 H                     0.090950
     21 C                    -0.306773
     22 S                    -0.079096
     23 C                     0.069604
     24 H                     0.200995
     25 C                    -0.000520
     26 S                     0.089708
     27 C                    -0.252012
     28 C                    -0.121794
     29 C                    -0.012318
     30 C                     0.374504
     31 C                    -0.143861
     32 S                     0.040999
     33 C                     0.457714
     34 O                    -0.453966
     35 O                    -0.298715
     36 F                    -0.207904
     37 C                    -0.055019
     38 H                     0.116478
     39 H                     0.084239
     40 H                     0.084087
     41 H                     0.214920
     42 H                     0.119058
     43 H                     0.116731
     44 H                     0.212406
  ----------------------------------------
  Sum of atomic charges =     0.000000

                    Cartesian Multipole Moments
 -----------------------------------------------------------------
    Charge (ESU x 10^10)
                -0.0000
    Dipole Moment (Debye)
         X       2.0493      Y       1.7490      Z       2.8063
       Tot       3.8903
    Quadrupole Moments (Debye-Ang)
        XX    -197.8529     XY       7.8671     YY    -173.1354
        XZ      -4.8217     YZ      -4.6265     ZZ    -188.3616

 Total job time:  334.81s(wall), 10998.30s(cpu)
        *  Thank you very much for using Q-Chem.  Have a nice day.  *
