 Q-Chem 5.4, Q-Chem, Inc., Pleasanton, CA (2021)
 Q-Chem 5.4.0 for Intel X86 EM64T Linux

User input:
--------------------------------------------------------------
$molecule
0 1
C	-0.255459	-8.519741	-0.093711
C	0.799036	-7.635967	0.083869
S	-1.789425	-7.651740	-0.345260
C	0.418360	-6.261894	0.018411
H	1.834294	-7.954738	0.259169
C	-0.987769	-6.079985	-0.229701
C	-1.555260	-4.798382	-0.302697
C	1.294992	-5.153542	0.196459
C	0.726408	-3.869626	0.127651
C	-0.680716	-3.688927	-0.123544
O	2.601852	-5.481075	0.396706
O	-2.868193	-4.479871	-0.502673
C	-3.691495	-5.356026	-1.262918
H	-4.614080	-4.790496	-1.494604
H	-3.974195	-6.268513	-0.693738
H	-3.199559	-5.658187	-2.212720
C	3.490743	-4.546999	0.997016
H	4.416630	-5.107564	1.226691
H	3.073934	-4.131473	1.939526
H	3.746794	-3.712085	0.309214
C	-1.058247	-2.314326	-0.186133
S	1.527599	-2.295487	0.256010
C	0.000000	-1.435180	0.000000
H	-2.092285	-1.993211	-0.363896
C	0.000000	0.000000	0.000000
S	0.309721	0.844422	1.510732
C	0.847502	2.325108	0.727629
C	0.310602	0.853460	-1.064665
C	0.784173	2.159014	-0.678287
C	0.289451	0.790512	-2.486150
C	0.721927	1.979112	-3.106916
S	1.145464	3.152519	-1.965735
C	0.813355	2.216642	-4.559972
O	0.496884	1.338418	-5.350277
O	1.255274	3.421340	-5.004375
F	-0.087923	-0.257761	-3.246290
C	1.387494	3.754937	-6.334976
H	1.765978	4.793056	-6.370268
H	0.417095	3.693789	-6.875609
H	2.098820	3.081033	-6.861878
H	1.162229	3.189623	1.321510
H	-0.401636	-9.146471	0.793825
H	-0.103519	-9.150570	-0.977367
H	-0.179195	-1.444158	1.064992
$end

$rem
JOBTYPE		SP
EXCHANGE	HF
CORRELATION	pRIMP2
BASIS		cc-pvtz
METHOD		rimp2
AUX_BASIS	rimp2-cc-pvtz
SOLVENT_METHOD	PCM
PURECART	11111
SYMMETRY	false
MEM_TOTAL	110000
SCF_CONVERGENCE = 6
THRESH=10
GUI = 2
$end

$solvent
dielectric 4.90
$end
--------------------------------------------------------------

             Standard Nuclear Orientation (Angstroms)
    I     Atom           X                Y                Z
 ----------------------------------------------------------------
    1      C      -0.2554590000    -8.5197410000    -0.0937110000
    2      C       0.7990360000    -7.6359670000     0.0838690000
    3      S      -1.7894250000    -7.6517400000    -0.3452600000
    4      C       0.4183600000    -6.2618940000     0.0184110000
    5      H       1.8342940000    -7.9547380000     0.2591690000
    6      C      -0.9877690000    -6.0799850000    -0.2297010000
    7      C      -1.5552600000    -4.7983820000    -0.3026970000
    8      C       1.2949920000    -5.1535420000     0.1964590000
    9      C       0.7264080000    -3.8696260000     0.1276510000
   10      C      -0.6807160000    -3.6889270000    -0.1235440000
   11      O       2.6018520000    -5.4810750000     0.3967060000
   12      O      -2.8681930000    -4.4798710000    -0.5026730000
   13      C      -3.6914950000    -5.3560260000    -1.2629180000
   14      H      -4.6140800000    -4.7904960000    -1.4946040000
   15      H      -3.9741950000    -6.2685130000    -0.6937380000
   16      H      -3.1995590000    -5.6581870000    -2.2127200000
   17      C       3.4907430000    -4.5469990000     0.9970160000
   18      H       4.4166300000    -5.1075640000     1.2266910000
   19      H       3.0739340000    -4.1314730000     1.9395260000
   20      H       3.7467940000    -3.7120850000     0.3092140000
   21      C      -1.0582470000    -2.3143260000    -0.1861330000
   22      S       1.5275990000    -2.2954870000     0.2560100000
   23      C       0.0000000000    -1.4351800000     0.0000000000
   24      H      -2.0922850000    -1.9932110000    -0.3638960000
   25      C       0.0000000000     0.0000000000     0.0000000000
   26      S       0.3097210000     0.8444220000     1.5107320000
   27      C       0.8475020000     2.3251080000     0.7276290000
   28      C       0.3106020000     0.8534600000    -1.0646650000
   29      C       0.7841730000     2.1590140000    -0.6782870000
   30      C       0.2894510000     0.7905120000    -2.4861500000
   31      C       0.7219270000     1.9791120000    -3.1069160000
   32      S       1.1454640000     3.1525190000    -1.9657350000
   33      C       0.8133550000     2.2166420000    -4.5599720000
   34      O       0.4968840000     1.3384180000    -5.3502770000
   35      O       1.2552740000     3.4213400000    -5.0043750000
   36      F      -0.0879230000    -0.2577610000    -3.2462900000
   37      C       1.3874940000     3.7549370000    -6.3349760000
   38      H       1.7659780000     4.7930560000    -6.3702680000
   39      H       0.4170950000     3.6937890000    -6.8756090000
   40      H       2.0988200000     3.0810330000    -6.8618780000
   41      H       1.1622290000     3.1896230000     1.3215100000
   42      H      -0.4016360000    -9.1464710000     0.7938250000
   43      H      -0.1035190000    -9.1505700000    -0.9773670000
   44      H      -0.1791950000    -1.4441580000     1.0649920000
 ----------------------------------------------------------------

   11   -2755.3199590322      7.25e-07  Convergence criterion met
 Total energy in the final basis set =    -2755.3199590322
        RIMP2         total energy =     -2760.4124867711 a.u.

                    Orbital Energies (a.u.)
 --------------------------------------------------------------

 Alpha MOs
 -- Occupied --
-92.0194 -91.9968 -91.9771 -91.9573 -26.3354 -20.6132 -20.5866 -20.5864
-20.5519 -11.4119 -11.3774 -11.3084 -11.3070 -11.3063 -11.3008 -11.3004
-11.2978 -11.2890 -11.2842 -11.2824 -11.2822 -11.2821 -11.2797 -11.2717
-11.2717 -11.2575 -11.2560 -11.2488 -11.2354  -9.0177  -9.0008  -8.9794
 -8.9599  -6.6984  -6.6978  -6.6974  -6.6820  -6.6814  -6.6801  -6.6604
 -6.6595  -6.6583  -6.6411  -6.6402  -6.6392  -1.6483  -1.4730  -1.4098
 -1.4083  -1.3685  -1.2387  -1.2084  -1.1747  -1.1443  -1.0985  -1.0506
 -1.0451  -1.0316  -1.0081  -0.9968  -0.9731  -0.9595  -0.9481  -0.9401
 -0.8928  -0.8720  -0.8638  -0.8080  -0.7941  -0.7844  -0.7775  -0.7742
 -0.7649  -0.7330  -0.7213  -0.7166  -0.6968  -0.6927  -0.6810  -0.6794
 -0.6731  -0.6638  -0.6558  -0.6480  -0.6313  -0.6304  -0.6192  -0.6142
 -0.6112  -0.6077  -0.5966  -0.5925  -0.5808  -0.5645  -0.5588  -0.5543
 -0.5472  -0.5358  -0.5284  -0.5223  -0.5126  -0.5070  -0.5038  -0.5008
 -0.4880  -0.4859  -0.4763  -0.4710  -0.4629  -0.4621  -0.4605  -0.4456
 -0.4227  -0.4028  -0.3846  -0.3695  -0.3507  -0.2932  -0.2887  -0.2202

          Ground-State Mulliken Net Atomic Charges

     Atom                 Charge (a.u.)
  ----------------------------------------
      1 C                    -0.070011
      2 C                    -0.263389
      3 S                    -0.137136
      4 C                    -0.042525
      5 H                     0.192898
      6 C                    -0.053236
      7 C                     0.225766
      8 C                     0.223054
      9 C                    -0.075039
     10 C                    -0.048092
     11 O                    -0.334936
     12 O                    -0.343382
     13 C                    -0.082296
     14 H                     0.119860
     15 H                     0.091576
     16 H                     0.093314
     17 C                    -0.086667
     18 H                     0.123120
     19 H                     0.091551
     20 H                     0.090471
     21 C                    -0.257429
     22 S                    -0.069708
     23 C                     0.040129
     24 H                     0.204052
     25 C                    -0.053422
     26 S                     0.104741
     27 C                    -0.228856
     28 C                    -0.092128
     29 C                     0.002845
     30 C                     0.371360
     31 C                    -0.149493
     32 S                     0.045102
     33 C                     0.458518
     34 O                    -0.447064
     35 O                    -0.297535
     36 F                    -0.211265
     37 C                    -0.054929
     38 H                     0.116781
     39 H                     0.084859
     40 H                     0.084911
     41 H                     0.217258
     42 H                     0.116661
     43 H                     0.114642
     44 H                     0.185068
  ----------------------------------------
  Sum of atomic charges =     0.000000

                    Cartesian Multipole Moments
 -----------------------------------------------------------------
    Charge (ESU x 10^10)
                -0.0000
    Dipole Moment (Debye)
         X       1.3766      Y       4.0739      Z       3.6715
       Tot       5.6543
    Quadrupole Moments (Debye-Ang)
        XX    -185.4244     XY       1.7651     YY    -177.8104
        XZ       3.9302     YZ     -10.8858     ZZ    -201.0903

 Total job time:  338.77s(wall), 11171.58s(cpu)
        *  Thank you very much for using Q-Chem.  Have a nice day.  *
