 Q-Chem 5.4, Q-Chem, Inc., Pleasanton, CA (2021)
 Q-Chem 5.4.0 for Intel X86 EM64T Linux

User input:
--------------------------------------------------------------
$molecule
0 1
C	-0.093711	-8.519741	0.255459
C	0.083869	-7.635967	-0.799036
S	-0.345260	-7.651740	1.789425
C	0.018411	-6.261894	-0.418360
H	0.259169	-7.954738	-1.834294
C	-0.229701	-6.079985	0.987769
C	-0.302697	-4.798382	1.555260
C	0.196459	-5.153542	-1.294992
C	0.127651	-3.869626	-0.726408
C	-0.123544	-3.688927	0.680716
O	0.396706	-5.481075	-2.601852
O	-0.502673	-4.479871	2.868193
C	-1.262918	-5.356026	3.691495
H	-1.494604	-4.790496	4.614080
H	-0.693738	-6.268513	3.974195
H	-2.212720	-5.658187	3.199559
C	0.997016	-4.546999	-3.490743
H	1.226691	-5.107564	-4.416630
H	1.939526	-4.131473	-3.073934
H	0.309214	-3.712085	-3.746794
C	-0.186133	-2.314326	1.058247
S	0.256010	-2.295487	-1.527599
C	0.000000	-1.435180	0.000000
H	-0.363896	-1.993211	2.092285
C	0.000000	0.000000	0.000000
S	0.690437	0.576430	1.510732
C	1.896512	1.589852	0.727629
C	0.695720	0.583817	-1.064665
C	1.758621	1.477674	-0.678287
C	0.645928	0.539878	-2.486150
C	1.614763	1.352997	-3.106916
S	2.568261	2.157430	-1.965735
C	1.812707	1.512991	-4.559972
O	1.099523	0.910662	-5.350277
O	2.797769	2.335330	-5.004375
F	-0.205024	-0.179266	-3.246290
C	3.079074	2.558124	-6.334976
H	3.925910	3.267919	-6.370268
H	2.208109	2.990367	-6.875609
H	3.358147	1.618843	-6.861878
H	2.601331	2.181180	1.321510
H	0.793825	-9.146471	0.401636
H	-0.977367	-9.150570	0.103519
H	1.064992	-1.444158	0.179195
$end

$rem
JOBTYPE		SP
EXCHANGE	HF
CORRELATION	pRIMP2
BASIS		cc-pvtz
METHOD		rimp2
AUX_BASIS	rimp2-cc-pvtz
SOLVENT_METHOD	PCM
PURECART	11111
SYMMETRY	false
MEM_TOTAL	110000
SCF_CONVERGENCE = 6
THRESH=10
GUI = 2
$end

$solvent
dielectric 4.90
$end
--------------------------------------------------------------

             Standard Nuclear Orientation (Angstroms)
    I     Atom           X                Y                Z
 ----------------------------------------------------------------
    1      C      -0.0937110000    -8.5197410000     0.2554590000
    2      C       0.0838690000    -7.6359670000    -0.7990360000
    3      S      -0.3452600000    -7.6517400000     1.7894250000
    4      C       0.0184110000    -6.2618940000    -0.4183600000
    5      H       0.2591690000    -7.9547380000    -1.8342940000
    6      C      -0.2297010000    -6.0799850000     0.9877690000
    7      C      -0.3026970000    -4.7983820000     1.5552600000
    8      C       0.1964590000    -5.1535420000    -1.2949920000
    9      C       0.1276510000    -3.8696260000    -0.7264080000
   10      C      -0.1235440000    -3.6889270000     0.6807160000
   11      O       0.3967060000    -5.4810750000    -2.6018520000
   12      O      -0.5026730000    -4.4798710000     2.8681930000
   13      C      -1.2629180000    -5.3560260000     3.6914950000
   14      H      -1.4946040000    -4.7904960000     4.6140800000
   15      H      -0.6937380000    -6.2685130000     3.9741950000
   16      H      -2.2127200000    -5.6581870000     3.1995590000
   17      C       0.9970160000    -4.5469990000    -3.4907430000
   18      H       1.2266910000    -5.1075640000    -4.4166300000
   19      H       1.9395260000    -4.1314730000    -3.0739340000
   20      H       0.3092140000    -3.7120850000    -3.7467940000
   21      C      -0.1861330000    -2.3143260000     1.0582470000
   22      S       0.2560100000    -2.2954870000    -1.5275990000
   23      C       0.0000000000    -1.4351800000     0.0000000000
   24      H      -0.3638960000    -1.9932110000     2.0922850000
   25      C       0.0000000000     0.0000000000     0.0000000000
   26      S       0.6904370000     0.5764300000     1.5107320000
   27      C       1.8965120000     1.5898520000     0.7276290000
   28      C       0.6957200000     0.5838170000    -1.0646650000
   29      C       1.7586210000     1.4776740000    -0.6782870000
   30      C       0.6459280000     0.5398780000    -2.4861500000
   31      C       1.6147630000     1.3529970000    -3.1069160000
   32      S       2.5682610000     2.1574300000    -1.9657350000
   33      C       1.8127070000     1.5129910000    -4.5599720000
   34      O       1.0995230000     0.9106620000    -5.3502770000
   35      O       2.7977690000     2.3353300000    -5.0043750000
   36      F      -0.2050240000    -0.1792660000    -3.2462900000
   37      C       3.0790740000     2.5581240000    -6.3349760000
   38      H       3.9259100000     3.2679190000    -6.3702680000
   39      H       2.2081090000     2.9903670000    -6.8756090000
   40      H       3.3581470000     1.6188430000    -6.8618780000
   41      H       2.6013310000     2.1811800000     1.3215100000
   42      H       0.7938250000    -9.1464710000     0.4016360000
   43      H      -0.9773670000    -9.1505700000     0.1035190000
   44      H       1.0649920000    -1.4441580000     0.1791950000
 ----------------------------------------------------------------

   11   -2755.2753652087      5.71e-07  Convergence criterion met
 Total energy in the final basis set =    -2755.2753652087
        RIMP2         total energy =     -2760.3855773954 a.u.

                    Orbital Energies (a.u.)
 --------------------------------------------------------------

 Alpha MOs
 -- Occupied --
-92.0085 -91.9966 -91.9734 -91.9603 -26.3349 -20.6125 -20.5882 -20.5875
-20.5505 -11.4108 -11.3788 -11.3107 -11.3090 -11.3057 -11.3023 -11.2991
-11.2985 -11.2889 -11.2838 -11.2833 -11.2826 -11.2821 -11.2811 -11.2756
-11.2663 -11.2606 -11.2597 -11.2521 -11.2431  -9.0084  -9.0006  -8.9763
 -8.9628  -6.6891  -6.6884  -6.6880  -6.6818  -6.6812  -6.6799  -6.6572
 -6.6564  -6.6551  -6.6441  -6.6431  -6.6421  -1.6499  -1.4723  -1.4114
 -1.4094  -1.3676  -1.2466  -1.2079  -1.1787  -1.1460  -1.0986  -1.0541
 -1.0463  -1.0325  -1.0065  -0.9987  -0.9733  -0.9592  -0.9501  -0.9413
 -0.8942  -0.8733  -0.8591  -0.8132  -0.7964  -0.7859  -0.7766  -0.7661
 -0.7622  -0.7332  -0.7226  -0.7164  -0.6979  -0.6961  -0.6848  -0.6790
 -0.6745  -0.6734  -0.6561  -0.6489  -0.6364  -0.6281  -0.6222  -0.6156
 -0.6112  -0.6070  -0.5995  -0.5948  -0.5762  -0.5672  -0.5626  -0.5592
 -0.5465  -0.5330  -0.5303  -0.5211  -0.5136  -0.5083  -0.5041  -0.5009
 -0.4855  -0.4833  -0.4782  -0.4627  -0.4619  -0.4609  -0.4579  -0.4478
 -0.4279  -0.4013  -0.3802  -0.3727  -0.3515  -0.2970  -0.2837  -0.2163

          Ground-State Mulliken Net Atomic Charges

     Atom                 Charge (a.u.)
  ----------------------------------------
      1 C                    -0.071445
      2 C                    -0.240908
      3 S                    -0.130988
      4 C                    -0.052552
      5 H                     0.196124
      6 C                    -0.046622
      7 C                     0.216460
      8 C                     0.233047
      9 C                    -0.075474
     10 C                    -0.019450
     11 O                    -0.334026
     12 O                    -0.343440
     13 C                    -0.082809
     14 H                     0.120010
     15 H                     0.091733
     16 H                     0.093070
     17 C                    -0.089145
     18 H                     0.124244
     19 H                     0.091958
     20 H                     0.094058
     21 C                    -0.327116
     22 S                    -0.099655
     23 C                     0.107764
     24 H                     0.198845
     25 C                    -0.040602
     26 S                     0.078724
     27 C                    -0.215380
     28 C                    -0.090381
     29 C                    -0.022571
     30 C                     0.341956
     31 C                    -0.133814
     32 S                     0.049077
     33 C                     0.458313
     34 O                    -0.450053
     35 O                    -0.298334
     36 F                    -0.208718
     37 C                    -0.054688
     38 H                     0.116714
     39 H                     0.084699
     40 H                     0.084305
     41 H                     0.216791
     42 H                     0.119894
     43 H                     0.117778
     44 H                     0.192609
  ----------------------------------------
  Sum of atomic charges =     0.000000

                    Cartesian Multipole Moments
 -----------------------------------------------------------------
    Charge (ESU x 10^10)
                -0.0000
    Dipole Moment (Debye)
         X       3.5332      Y       1.1568      Z       2.8069
       Tot       4.6583
    Quadrupole Moments (Debye-Ang)
        XX    -187.5839     XY       7.6753     YY    -174.0681
        XZ     -16.2138     YZ      -2.1666     ZZ    -191.6108

 Total job time:  335.44s(wall), 10957.83s(cpu)
        *  Thank you very much for using Q-Chem.  Have a nice day.  *
