 Q-Chem 5.4, Q-Chem, Inc., Pleasanton, CA (2021)
 Q-Chem 5.4.0 for Intel X86 EM64T Linux

User input:
--------------------------------------------------------------
$molecule
0 1
C	-0.000687	-8.519741	0.272104
C	-0.194476	-7.635967	-0.779533
S	0.287581	-7.651740	1.799596
C	-0.125787	-6.261894	-0.399427
H	-0.383826	-7.954738	-1.812314
C	0.121989	-6.079985	1.006762
C	0.247488	-4.798382	1.564994
C	-0.258303	-5.153542	-1.284087
C	-0.128493	-3.869626	-0.726260
C	0.116725	-3.688927	0.681918
O	-0.517104	-5.481075	-2.580622
O	0.508622	-4.479871	2.867144
C	0.075811	-5.356026	3.900814
H	0.173640	-4.790496	4.847002
H	0.707354	-6.268513	3.971794
H	-0.984963	-5.658187	3.763397
C	-0.257016	-4.546999	-3.621225
H	-0.357864	-5.107564	-4.569828
H	0.771211	-4.131473	-3.551910
H	-0.990913	-3.712085	-3.626592
C	0.187034	-2.314326	1.058088
S	-0.281899	-2.295487	-1.523035
C	0.000000	-1.435180	0.000000
H	0.373653	-1.993211	2.090565
C	0.000000	0.000000	0.000000
S	0.234946	0.868203	1.510732
C	0.641630	2.390125	0.727629
C	0.235036	0.877284	-1.064665
C	0.593019	2.219143	-0.678287
C	0.219452	0.812732	-2.486150
C	0.546689	2.034501	-3.106916
S	0.866345	3.240357	-1.965735
C	0.617067	2.279095	-4.559972
O	0.378342	1.376631	-5.350277
O	0.952308	3.517725	-5.004375
F	-0.065123	-0.264443	-3.246290
C	1.054950	3.861577	-6.334976
H	1.341516	4.928732	-6.370268
H	0.093573	3.716085	-6.875609
H	1.822303	3.252232	-6.861878
H	0.879812	3.278780	1.321510
H	0.883319	-9.146471	0.105910
H	-0.883019	-9.150570	0.431555
H	1.062054	-1.444158	-0.195861
$end

$rem
JOBTYPE		SP
EXCHANGE	HF
CORRELATION	pRIMP2
BASIS		cc-pvtz
METHOD		rimp2
AUX_BASIS	rimp2-cc-pvtz
SOLVENT_METHOD	PCM
PURECART	11111
SYMMETRY	false
MEM_TOTAL	110000
SCF_CONVERGENCE = 6
THRESH=10
GUI = 2
$end

$solvent
dielectric 4.90
$end
--------------------------------------------------------------

             Standard Nuclear Orientation (Angstroms)
    I     Atom           X                Y                Z
 ----------------------------------------------------------------
    1      C      -0.0006870000    -8.5197410000     0.2721040000
    2      C      -0.1944760000    -7.6359670000    -0.7795330000
    3      S       0.2875810000    -7.6517400000     1.7995960000
    4      C      -0.1257870000    -6.2618940000    -0.3994270000
    5      H      -0.3838260000    -7.9547380000    -1.8123140000
    6      C       0.1219890000    -6.0799850000     1.0067620000
    7      C       0.2474880000    -4.7983820000     1.5649940000
    8      C      -0.2583030000    -5.1535420000    -1.2840870000
    9      C      -0.1284930000    -3.8696260000    -0.7262600000
   10      C       0.1167250000    -3.6889270000     0.6819180000
   11      O      -0.5171040000    -5.4810750000    -2.5806220000
   12      O       0.5086220000    -4.4798710000     2.8671440000
   13      C       0.0758110000    -5.3560260000     3.9008140000
   14      H       0.1736400000    -4.7904960000     4.8470020000
   15      H       0.7073540000    -6.2685130000     3.9717940000
   16      H      -0.9849630000    -5.6581870000     3.7633970000
   17      C      -0.2570160000    -4.5469990000    -3.6212250000
   18      H      -0.3578640000    -5.1075640000    -4.5698280000
   19      H       0.7712110000    -4.1314730000    -3.5519100000
   20      H      -0.9909130000    -3.7120850000    -3.6265920000
   21      C       0.1870340000    -2.3143260000     1.0580880000
   22      S      -0.2818990000    -2.2954870000    -1.5230350000
   23      C       0.0000000000    -1.4351800000     0.0000000000
   24      H       0.3736530000    -1.9932110000     2.0905650000
   25      C       0.0000000000     0.0000000000     0.0000000000
   26      S       0.2349460000     0.8682030000     1.5107320000
   27      C       0.6416300000     2.3901250000     0.7276290000
   28      C       0.2350360000     0.8772840000    -1.0646650000
   29      C       0.5930190000     2.2191430000    -0.6782870000
   30      C       0.2194520000     0.8127320000    -2.4861500000
   31      C       0.5466890000     2.0345010000    -3.1069160000
   32      S       0.8663450000     3.2403570000    -1.9657350000
   33      C       0.6170670000     2.2790950000    -4.5599720000
   34      O       0.3783420000     1.3766310000    -5.3502770000
   35      O       0.9523080000     3.5177250000    -5.0043750000
   36      F      -0.0651230000    -0.2644430000    -3.2462900000
   37      C       1.0549500000     3.8615770000    -6.3349760000
   38      H       1.3415160000     4.9287320000    -6.3702680000
   39      H       0.0935730000     3.7160850000    -6.8756090000
   40      H       1.8223030000     3.2522320000    -6.8618780000
   41      H       0.8798120000     3.2787800000     1.3215100000
   42      H       0.8833190000    -9.1464710000     0.1059100000
   43      H      -0.8830190000    -9.1505700000     0.4315550000
   44      H       1.0620540000    -1.4441580000    -0.1958610000
 ----------------------------------------------------------------

   11   -2755.3192605178      6.67e-07  Convergence criterion met
 Total energy in the final basis set =    -2755.3192605178
        RIMP2         total energy =     -2760.4119501218 a.u.

                    Orbital Energies (a.u.)
 --------------------------------------------------------------

 Alpha MOs
 -- Occupied --
-92.0137 -91.9917 -91.9759 -91.9610 -26.3353 -20.6105 -20.5884 -20.5882
-20.5468 -11.4077 -11.3791 -11.3266 -11.3110 -11.3099 -11.2966 -11.2910
-11.2878 -11.2874 -11.2841 -11.2838 -11.2820 -11.2816 -11.2770 -11.2752
-11.2711 -11.2633 -11.2603 -11.2525 -11.2436  -9.0123  -8.9959  -8.9786
 -8.9636  -6.6932  -6.6926  -6.6920  -6.6772  -6.6765  -6.6751  -6.6595
 -6.6587  -6.6572  -6.6448  -6.6439  -6.6429  -1.6511  -1.4700  -1.4118
 -1.4101  -1.3649  -1.2383  -1.2099  -1.1784  -1.1432  -1.1007  -1.0507
 -1.0472  -1.0290  -1.0084  -1.0005  -0.9712  -0.9601  -0.9497  -0.9402
 -0.8952  -0.8724  -0.8631  -0.8132  -0.7955  -0.7863  -0.7765  -0.7661
 -0.7618  -0.7341  -0.7205  -0.7181  -0.6986  -0.6954  -0.6847  -0.6773
 -0.6743  -0.6719  -0.6566  -0.6494  -0.6373  -0.6301  -0.6227  -0.6159
 -0.6109  -0.6043  -0.5973  -0.5911  -0.5771  -0.5680  -0.5639  -0.5594
 -0.5495  -0.5329  -0.5290  -0.5209  -0.5137  -0.5089  -0.5047  -0.4995
 -0.4842  -0.4824  -0.4801  -0.4667  -0.4602  -0.4599  -0.4583  -0.4483
 -0.4322  -0.3995  -0.3854  -0.3726  -0.3509  -0.2932  -0.2835  -0.2191

          Ground-State Mulliken Net Atomic Charges

     Atom                 Charge (a.u.)
  ----------------------------------------
      1 C                    -0.071286
      2 C                    -0.239660
      3 S                    -0.129391
      4 C                    -0.050892
      5 H                     0.196281
      6 C                    -0.046505
      7 C                     0.217553
      8 C                     0.235531
      9 C                    -0.080507
     10 C                    -0.027268
     11 O                    -0.334435
     12 O                    -0.344080
     13 C                    -0.082708
     14 H                     0.120197
     15 H                     0.092024
     16 H                     0.093057
     17 C                    -0.088118
     18 H                     0.124424
     19 H                     0.093510
     20 H                     0.091867
     21 C                    -0.323023
     22 S                    -0.084904
     23 C                     0.102375
     24 H                     0.197495
     25 C                     0.020784
     26 S                     0.079284
     27 C                    -0.269921
     28 C                    -0.136570
     29 C                    -0.016525
     30 C                     0.386684
     31 C                    -0.148807
     32 S                     0.031398
     33 C                     0.459554
     34 O                    -0.456640
     35 O                    -0.298819
     36 F                    -0.209524
     37 C                    -0.055089
     38 H                     0.116274
     39 H                     0.084023
     40 H                     0.083744
     41 H                     0.213993
     42 H                     0.120198
     43 H                     0.117891
     44 H                     0.216529
  ----------------------------------------
  Sum of atomic charges =     0.000000

                    Cartesian Multipole Moments
 -----------------------------------------------------------------
    Charge (ESU x 10^10)
                -0.0000
    Dipole Moment (Debye)
         X       1.2767      Y       1.0172      Z       2.8673
       Tot       3.2994
    Quadrupole Moments (Debye-Ang)
        XX    -200.2359     XY       4.2766     YY    -166.8165
        XZ      -5.3796     YZ      -4.8370     ZZ    -189.4089

 Total job time:  387.01s(wall), 11782.95s(cpu)
        *  Thank you very much for using Q-Chem.  Have a nice day.  *
