 Q-Chem 5.4, Q-Chem, Inc., Pleasanton, CA (2021)
 Q-Chem 5.4.0 for Intel X86 EM64T Linux

User input:
--------------------------------------------------------------
$molecule
0 1
C	0.255459	-8.519741	0.093711
C	-0.799036	-7.635967	-0.083869
S	1.789425	-7.651740	0.345260
C	-0.418360	-6.261894	-0.018411
H	-1.834294	-7.954738	-0.259169
C	0.987769	-6.079985	0.229701
C	1.555260	-4.798382	0.302697
C	-1.294992	-5.153542	-0.196459
C	-0.726408	-3.869626	-0.127651
C	0.680716	-3.688927	0.123544
O	-2.601852	-5.481075	-0.396706
O	2.868193	-4.479871	0.502673
C	3.691495	-5.356026	1.262918
H	4.614080	-4.790496	1.494604
H	3.974195	-6.268513	0.693738
H	3.199559	-5.658187	2.212720
C	-3.490743	-4.546999	-0.997016
H	-4.416630	-5.107564	-1.226691
H	-3.073934	-4.131473	-1.939526
H	-3.746794	-3.712085	-0.309214
C	1.058247	-2.314326	0.186133
S	-1.527599	-2.295487	-0.256010
C	0.000000	-1.435180	0.000000
H	2.092285	-1.993211	0.363896
C	0.000000	0.000000	0.000000
S	0.080615	0.895811	1.510732
C	0.216842	2.465231	0.727629
C	0.079127	0.904769	-1.064665
C	0.198659	2.288406	-0.678287
C	0.074988	0.838492	-2.486150
C	0.185097	2.098524	-3.106916
S	0.290501	3.341568	-1.965735
C	0.211932	2.351623	-4.559972
O	0.133545	1.421416	-5.350277
O	0.326994	3.629649	-5.004375
F	-0.018214	-0.271734	-3.246290
C	0.368367	3.986101	-6.334976
H	0.465270	5.086806	-6.370268
H	-0.553140	3.675878	-6.875609
H	1.229874	3.519263	-6.861878
H	0.297091	3.381746	1.321510
H	0.401636	-9.146471	-0.793825
H	0.103519	-9.150570	0.977367
H	0.179195	-1.444158	-1.064992
$end

$rem
JOBTYPE		SP
EXCHANGE	HF
CORRELATION	pRIMP2
BASIS		cc-pvtz
METHOD		rimp2
AUX_BASIS	rimp2-cc-pvtz
SOLVENT_METHOD	PCM
PURECART	11111
SYMMETRY	false
MEM_TOTAL	110000
SCF_CONVERGENCE = 6
THRESH=10
GUI = 2
$end

$solvent
dielectric 4.90
$end
--------------------------------------------------------------

             Standard Nuclear Orientation (Angstroms)
    I     Atom           X                Y                Z
 ----------------------------------------------------------------
    1      C       0.2554590000    -8.5197410000     0.0937110000
    2      C      -0.7990360000    -7.6359670000    -0.0838690000
    3      S       1.7894250000    -7.6517400000     0.3452600000
    4      C      -0.4183600000    -6.2618940000    -0.0184110000
    5      H      -1.8342940000    -7.9547380000    -0.2591690000
    6      C       0.9877690000    -6.0799850000     0.2297010000
    7      C       1.5552600000    -4.7983820000     0.3026970000
    8      C      -1.2949920000    -5.1535420000    -0.1964590000
    9      C      -0.7264080000    -3.8696260000    -0.1276510000
   10      C       0.6807160000    -3.6889270000     0.1235440000
   11      O      -2.6018520000    -5.4810750000    -0.3967060000
   12      O       2.8681930000    -4.4798710000     0.5026730000
   13      C       3.6914950000    -5.3560260000     1.2629180000
   14      H       4.6140800000    -4.7904960000     1.4946040000
   15      H       3.9741950000    -6.2685130000     0.6937380000
   16      H       3.1995590000    -5.6581870000     2.2127200000
   17      C      -3.4907430000    -4.5469990000    -0.9970160000
   18      H      -4.4166300000    -5.1075640000    -1.2266910000
   19      H      -3.0739340000    -4.1314730000    -1.9395260000
   20      H      -3.7467940000    -3.7120850000    -0.3092140000
   21      C       1.0582470000    -2.3143260000     0.1861330000
   22      S      -1.5275990000    -2.2954870000    -0.2560100000
   23      C       0.0000000000    -1.4351800000     0.0000000000
   24      H       2.0922850000    -1.9932110000     0.3638960000
   25      C       0.0000000000     0.0000000000     0.0000000000
   26      S       0.0806150000     0.8958110000     1.5107320000
   27      C       0.2168420000     2.4652310000     0.7276290000
   28      C       0.0791270000     0.9047690000    -1.0646650000
   29      C       0.1986590000     2.2884060000    -0.6782870000
   30      C       0.0749880000     0.8384920000    -2.4861500000
   31      C       0.1850970000     2.0985240000    -3.1069160000
   32      S       0.2905010000     3.3415680000    -1.9657350000
   33      C       0.2119320000     2.3516230000    -4.5599720000
   34      O       0.1335450000     1.4214160000    -5.3502770000
   35      O       0.3269940000     3.6296490000    -5.0043750000
   36      F      -0.0182140000    -0.2717340000    -3.2462900000
   37      C       0.3683670000     3.9861010000    -6.3349760000
   38      H       0.4652700000     5.0868060000    -6.3702680000
   39      H      -0.5531400000     3.6758780000    -6.8756090000
   40      H       1.2298740000     3.5192630000    -6.8618780000
   41      H       0.2970910000     3.3817460000     1.3215100000
   42      H       0.4016360000    -9.1464710000    -0.7938250000
   43      H       0.1035190000    -9.1505700000     0.9773670000
   44      H       0.1791950000    -1.4441580000    -1.0649920000
 ----------------------------------------------------------------

   11   -2755.3289448893      6.99e-07  Convergence criterion met
 Total energy in the final basis set =    -2755.3289448893
        RIMP2         total energy =     -2760.4201196431 a.u.

                    Orbital Energies (a.u.)
 --------------------------------------------------------------

 Alpha MOs
 -- Occupied --
-92.0132 -91.9968 -91.9769 -91.9582 -26.3389 -20.6135 -20.5872 -20.5866
-20.5522 -11.4123 -11.3796 -11.3131 -11.3089 -11.3070 -11.3009 -11.2978
-11.2962 -11.2893 -11.2864 -11.2839 -11.2828 -11.2826 -11.2805 -11.2731
-11.2725 -11.2581 -11.2581 -11.2496 -11.2370  -9.0117  -9.0008  -8.9792
 -8.9608  -6.6925  -6.6919  -6.6915  -6.6821  -6.6814  -6.6800  -6.6603
 -6.6593  -6.6581  -6.6420  -6.6411  -6.6401  -1.6520  -1.4733  -1.4101
 -1.4088  -1.3689  -1.2392  -1.2084  -1.1750  -1.1435  -1.1000  -1.0521
 -1.0457  -1.0297  -1.0089  -0.9975  -0.9729  -0.9596  -0.9486  -0.9410
 -0.8931  -0.8745  -0.8629  -0.8101  -0.7936  -0.7850  -0.7814  -0.7697
 -0.7628  -0.7338  -0.7200  -0.7196  -0.6977  -0.6922  -0.6876  -0.6799
 -0.6762  -0.6738  -0.6552  -0.6484  -0.6312  -0.6290  -0.6200  -0.6148
 -0.6108  -0.6078  -0.5965  -0.5932  -0.5838  -0.5651  -0.5579  -0.5549
 -0.5499  -0.5327  -0.5285  -0.5219  -0.5130  -0.5075  -0.5033  -0.5009
 -0.4879  -0.4855  -0.4777  -0.4692  -0.4631  -0.4625  -0.4603  -0.4459
 -0.4228  -0.4041  -0.3854  -0.3700  -0.3500  -0.2927  -0.2891  -0.2209

          Ground-State Mulliken Net Atomic Charges

     Atom                 Charge (a.u.)
  ----------------------------------------
      1 C                    -0.070316
      2 C                    -0.258307
      3 S                    -0.135110
      4 C                    -0.044717
      5 H                     0.193609
      6 C                    -0.051835
      7 C                     0.225829
      8 C                     0.229094
      9 C                    -0.083029
     10 C                    -0.061259
     11 O                    -0.335304
     12 O                    -0.343486
     13 C                    -0.082479
     14 H                     0.119912
     15 H                     0.092103
     16 H                     0.092545
     17 C                    -0.086597
     18 H                     0.122782
     19 H                     0.093460
     20 H                     0.089820
     21 C                    -0.233934
     22 S                    -0.069672
     23 C                     0.052811
     24 H                     0.206146
     25 C                    -0.092553
     26 S                     0.098856
     27 C                    -0.231515
     28 C                    -0.081676
     29 C                    -0.007906
     30 C                     0.376378
     31 C                    -0.129590
     32 S                     0.041308
     33 C                     0.459340
     34 O                    -0.448314
     35 O                    -0.297323
     36 F                    -0.214627
     37 C                    -0.055183
     38 H                     0.117006
     39 H                     0.084941
     40 H                     0.084833
     41 H                     0.215187
     42 H                     0.117631
     43 H                     0.115082
     44 H                     0.186059
  ----------------------------------------
  Sum of atomic charges =     0.000000

                    Cartesian Multipole Moments
 -----------------------------------------------------------------
    Charge (ESU x 10^10)
                -0.0000
    Dipole Moment (Debye)
         X       0.3037      Y       3.6796      Z       2.4758
       Tot       4.4454
    Quadrupole Moments (Debye-Ang)
        XX    -187.2216     XY       5.1717     YY    -173.6218
        XZ       6.8446     YZ     -10.6431     ZZ    -201.4884

 Total job time:  328.99s(wall), 10588.41s(cpu)
        *  Thank you very much for using Q-Chem.  Have a nice day.  *
