 Q-Chem 5.4, Q-Chem, Inc., Pleasanton, CA (2021)
 Q-Chem 5.4.0 for Intel X86 EM64T Linux

User input:
--------------------------------------------------------------
$molecule
0 1
C	-0.175432	-8.519741	0.208002
C	0.352097	-7.635967	-0.722164
S	-0.936458	-7.651740	1.563424
C	0.160388	-6.261894	-0.386833
H	0.870905	-7.954738	-1.635031
C	-0.553685	-6.079985	0.849637
C	-0.816372	-4.798382	1.357938
C	0.627524	-5.153542	-1.149702
C	0.368399	-3.869626	-0.638941
C	-0.348912	-3.688927	0.597409
O	1.262667	-5.481075	-2.309260
O	-1.453338	-4.479871	2.523296
C	-2.449320	-5.356026	3.036927
H	-2.982577	-4.790496	3.824632
H	-2.011155	-6.268513	3.497250
H	-3.173591	-5.658187	2.249807
C	2.130793	-4.546999	-2.939226
H	2.663289	-5.107564	-3.730721
H	2.873906	-4.131473	-2.225196
H	1.572045	-3.712085	-3.415077
C	-0.536849	-2.314326	0.930765
S	0.763041	-2.295487	-1.347913
C	-0.000000	-1.435180	-0.000000
H	-1.057554	-1.993211	1.841645
C	0.000000	0.000000	0.000000
S	0.158383	0.885376	1.510732
C	0.430876	2.436951	0.727629
C	0.157682	0.894430	-1.064665
C	0.397351	2.262384	-0.678287
C	0.147783	0.828765	-2.486150
C	0.367291	2.074406	-3.106916
S	0.580633	3.303533	-1.965735
C	0.416083	2.324204	-4.559972
O	0.256921	1.404367	-5.350277
O	0.642094	3.587338	-5.004375
F	-0.041828	-0.269113	-3.246290
C	0.714377	3.938827	-6.334976
H	0.906844	5.026898	-6.370268
H	-0.230661	3.710099	-6.875609
H	1.531918	3.398681	-6.861878
H	0.590699	3.342984	1.321510
H	0.608584	-9.146471	0.648918
H	-0.953830	-9.150570	-0.237003
H	0.939477	-1.444158	0.532637
$end

$rem
JOBTYPE		SP
EXCHANGE	HF
CORRELATION	pRIMP2
BASIS		cc-pvtz
METHOD		rimp2
AUX_BASIS	rimp2-cc-pvtz
SOLVENT_METHOD	PCM
PURECART	11111
SYMMETRY	false
MEM_TOTAL	110000
SCF_CONVERGENCE = 6
THRESH=10
GUI = 2
$end

$solvent
dielectric 4.90
$end
--------------------------------------------------------------

             Standard Nuclear Orientation (Angstroms)
    I     Atom           X                Y                Z
 ----------------------------------------------------------------
    1      C      -0.1754320000    -8.5197410000     0.2080020000
    2      C       0.3520970000    -7.6359670000    -0.7221640000
    3      S      -0.9364580000    -7.6517400000     1.5634240000
    4      C       0.1603880000    -6.2618940000    -0.3868330000
    5      H       0.8709050000    -7.9547380000    -1.6350310000
    6      C      -0.5536850000    -6.0799850000     0.8496370000
    7      C      -0.8163720000    -4.7983820000     1.3579380000
    8      C       0.6275240000    -5.1535420000    -1.1497020000
    9      C       0.3683990000    -3.8696260000    -0.6389410000
   10      C      -0.3489120000    -3.6889270000     0.5974090000
   11      O       1.2626670000    -5.4810750000    -2.3092600000
   12      O      -1.4533380000    -4.4798710000     2.5232960000
   13      C      -2.4493200000    -5.3560260000     3.0369270000
   14      H      -2.9825770000    -4.7904960000     3.8246320000
   15      H      -2.0111550000    -6.2685130000     3.4972500000
   16      H      -3.1735910000    -5.6581870000     2.2498070000
   17      C       2.1307930000    -4.5469990000    -2.9392260000
   18      H       2.6632890000    -5.1075640000    -3.7307210000
   19      H       2.8739060000    -4.1314730000    -2.2251960000
   20      H       1.5720450000    -3.7120850000    -3.4150770000
   21      C      -0.5368490000    -2.3143260000     0.9307650000
   22      S       0.7630410000    -2.2954870000    -1.3479130000
   23      C       0.0000000000    -1.4351800000     0.0000000000
   24      H      -1.0575540000    -1.9932110000     1.8416450000
   25      C       0.0000000000     0.0000000000     0.0000000000
   26      S       0.1583830000     0.8853760000     1.5107320000
   27      C       0.4308760000     2.4369510000     0.7276290000
   28      C       0.1576820000     0.8944300000    -1.0646650000
   29      C       0.3973510000     2.2623840000    -0.6782870000
   30      C       0.1477830000     0.8287650000    -2.4861500000
   31      C       0.3672910000     2.0744060000    -3.1069160000
   32      S       0.5806330000     3.3035330000    -1.9657350000
   33      C       0.4160830000     2.3242040000    -4.5599720000
   34      O       0.2569210000     1.4043670000    -5.3502770000
   35      O       0.6420940000     3.5873380000    -5.0043750000
   36      F      -0.0418280000    -0.2691130000    -3.2462900000
   37      C       0.7143770000     3.9388270000    -6.3349760000
   38      H       0.9068440000     5.0268980000    -6.3702680000
   39      H      -0.2306610000     3.7100990000    -6.8756090000
   40      H       1.5319180000     3.3986810000    -6.8618780000
   41      H       0.5906990000     3.3429840000     1.3215100000
   42      H       0.6085840000    -9.1464710000     0.6489180000
   43      H      -0.9538300000    -9.1505700000    -0.2370030000
   44      H       0.9394770000    -1.4441580000     0.5326370000
 ----------------------------------------------------------------

   11   -2755.3228332125      7.62e-07  Convergence criterion met
 Total energy in the final basis set =    -2755.3228332125
        RIMP2         total energy =     -2760.4133851211 a.u.

                    Orbital Energies (a.u.)
 --------------------------------------------------------------

 Alpha MOs
 -- Occupied --
-92.0130 -91.9917 -91.9772 -91.9602 -26.3340 -20.6110 -20.5881 -20.5879
-20.5477 -11.4084 -11.3788 -11.3242 -11.3098 -11.3097 -11.2962 -11.2929
-11.2879 -11.2860 -11.2858 -11.2843 -11.2836 -11.2836 -11.2778 -11.2760
-11.2721 -11.2623 -11.2597 -11.2516 -11.2414  -9.0119  -8.9959  -8.9796
 -8.9628  -6.6928  -6.6922  -6.6916  -6.6772  -6.6765  -6.6752  -6.6607
 -6.6598  -6.6585  -6.6440  -6.6431  -6.6421  -1.6483  -1.4705  -1.4113
 -1.4099  -1.3655  -1.2381  -1.2101  -1.1776  -1.1434  -1.1005  -1.0504
 -1.0468  -1.0300  -1.0085  -0.9997  -0.9712  -0.9602  -0.9495  -0.9405
 -0.8948  -0.8709  -0.8643  -0.8117  -0.7936  -0.7860  -0.7763  -0.7671
 -0.7659  -0.7334  -0.7208  -0.7158  -0.6975  -0.6935  -0.6838  -0.6776
 -0.6710  -0.6694  -0.6568  -0.6493  -0.6389  -0.6293  -0.6219  -0.6156
 -0.6108  -0.6049  -0.5960  -0.5918  -0.5789  -0.5672  -0.5644  -0.5589
 -0.5493  -0.5339  -0.5281  -0.5213  -0.5135  -0.5087  -0.5040  -0.5007
 -0.4851  -0.4828  -0.4792  -0.4683  -0.4623  -0.4604  -0.4592  -0.4481
 -0.4292  -0.4009  -0.3851  -0.3724  -0.3513  -0.2933  -0.2841  -0.2191

          Ground-State Mulliken Net Atomic Charges

     Atom                 Charge (a.u.)
  ----------------------------------------
      1 C                    -0.070779
      2 C                    -0.246683
      3 S                    -0.131071
      4 C                    -0.051009
      5 H                     0.195354
      6 C                    -0.046617
      7 C                     0.217938
      8 C                     0.231045
      9 C                    -0.077090
     10 C                    -0.006112
     11 O                    -0.334442
     12 O                    -0.343771
     13 C                    -0.082687
     14 H                     0.120080
     15 H                     0.092054
     16 H                     0.093243
     17 C                    -0.089347
     18 H                     0.124272
     19 H                     0.092228
     20 H                     0.092916
     21 C                    -0.345854
     22 S                    -0.085045
     23 C                     0.160639
     24 H                     0.198716
     25 C                    -0.041261
     26 S                     0.086022
     27 C                    -0.262133
     28 C                    -0.142179
     29 C                    -0.007437
     30 C                     0.392892
     31 C                    -0.151339
     32 S                     0.028475
     33 C                     0.461427
     34 O                    -0.454178
     35 O                    -0.298531
     36 F                    -0.207512
     37 C                    -0.055110
     38 H                     0.116351
     39 H                     0.084306
     40 H                     0.083996
     41 H                     0.213709
     42 H                     0.119207
     43 H                     0.117081
     44 H                     0.208236
  ----------------------------------------
  Sum of atomic charges =     0.000000

                    Cartesian Multipole Moments
 -----------------------------------------------------------------
    Charge (ESU x 10^10)
                -0.0000
    Dipole Moment (Debye)
         X       1.1826      Y       1.7109      Z       3.3168
       Tot       3.9150
    Quadrupole Moments (Debye-Ang)
        XX    -190.6016     XY       0.4450     YY    -169.0011
        XZ     -11.1535     YZ      -5.9946     ZZ    -199.1612

 Total job time:  323.60s(wall), 10194.07s(cpu)
        *  Thank you very much for using Q-Chem.  Have a nice day.  *
