 Q-Chem 5.4, Q-Chem, Inc., Pleasanton, CA (2021)
 Q-Chem 5.4.0 for Intel X86 EM64T Linux

User input:
--------------------------------------------------------------
$molecule
0 1
C	-0.174379	-8.519741	-0.208886
C	0.650052	-7.635967	0.472151
S	-1.377058	-7.651740	-1.193717
C	0.353105	-6.261894	0.225125
H	1.458961	-7.954738	1.141594
C	-0.740583	-6.079985	-0.692811
C	-1.195546	-4.798382	-1.039773
C	1.023267	-5.153542	0.817634
C	0.565262	-3.869626	0.473754
C	-0.527745	-3.688927	-0.447350
O	2.054917	-5.481075	1.644483
O	-2.232592	-4.479871	-1.869424
C	-2.565470	-5.356026	-2.939466
H	-3.248608	-4.790496	-3.601405
H	-3.094885	-6.268513	-2.587892
H	-1.664539	-5.658187	-3.516052
C	2.524564	-4.546999	2.608813
H	3.211568	-5.107564	3.270661
H	1.692342	-4.131473	3.216646
H	3.090211	-3.712085	2.141184
C	-0.823402	-2.314326	-0.690319
S	1.194935	-2.295487	0.985511
C	0.000000	-1.435180	0.000000
H	-1.630024	-1.993211	-1.361286
C	0.000000	0.000000	0.000000
S	0.002233	0.899428	1.510732
C	0.001157	2.474749	0.727629
C	-0.000030	0.908223	-1.064665
C	-0.001545	2.297013	-0.678287
C	0.001624	0.841837	-2.486150
C	0.001494	2.106670	-3.106916
S	-0.001841	3.354171	-1.965735
C	0.006168	2.361146	-4.559972
O	0.009152	1.427646	-5.350277
O	0.009405	3.644337	-5.004375
F	0.005539	-0.272288	-3.246290
C	0.019554	4.003038	-6.334976
H	0.020155	5.108000	-6.370268
H	-0.871409	3.613681	-6.875609
H	0.918470	3.613062	-6.861878
H	0.001222	3.394771	1.321510
H	-0.744739	-9.146471	0.486655
H	0.399033	-9.150570	-0.898184
H	-0.687683	-1.444158	0.832713
$end

$rem
JOBTYPE		SP
EXCHANGE	HF
CORRELATION	pRIMP2
BASIS		cc-pvtz
METHOD		rimp2
AUX_BASIS	rimp2-cc-pvtz
SOLVENT_METHOD	PCM
PURECART	11111
SYMMETRY	false
MEM_TOTAL	110000
SCF_CONVERGENCE = 6
THRESH=10
GUI = 2
$end

$solvent
dielectric 4.90
$end
--------------------------------------------------------------

             Standard Nuclear Orientation (Angstroms)
    I     Atom           X                Y                Z
 ----------------------------------------------------------------
    1      C      -0.1743790000    -8.5197410000    -0.2088860000
    2      C       0.6500520000    -7.6359670000     0.4721510000
    3      S      -1.3770580000    -7.6517400000    -1.1937170000
    4      C       0.3531050000    -6.2618940000     0.2251250000
    5      H       1.4589610000    -7.9547380000     1.1415940000
    6      C      -0.7405830000    -6.0799850000    -0.6928110000
    7      C      -1.1955460000    -4.7983820000    -1.0397730000
    8      C       1.0232670000    -5.1535420000     0.8176340000
    9      C       0.5652620000    -3.8696260000     0.4737540000
   10      C      -0.5277450000    -3.6889270000    -0.4473500000
   11      O       2.0549170000    -5.4810750000     1.6444830000
   12      O      -2.2325920000    -4.4798710000    -1.8694240000
   13      C      -2.5654700000    -5.3560260000    -2.9394660000
   14      H      -3.2486080000    -4.7904960000    -3.6014050000
   15      H      -3.0948850000    -6.2685130000    -2.5878920000
   16      H      -1.6645390000    -5.6581870000    -3.5160520000
   17      C       2.5245640000    -4.5469990000     2.6088130000
   18      H       3.2115680000    -5.1075640000     3.2706610000
   19      H       1.6923420000    -4.1314730000     3.2166460000
   20      H       3.0902110000    -3.7120850000     2.1411840000
   21      C      -0.8234020000    -2.3143260000    -0.6903190000
   22      S       1.1949350000    -2.2954870000     0.9855110000
   23      C       0.0000000000    -1.4351800000     0.0000000000
   24      H      -1.6300240000    -1.9932110000    -1.3612860000
   25      C       0.0000000000     0.0000000000     0.0000000000
   26      S       0.0022330000     0.8994280000     1.5107320000
   27      C       0.0011570000     2.4747490000     0.7276290000
   28      C      -0.0000300000     0.9082230000    -1.0646650000
   29      C      -0.0015450000     2.2970130000    -0.6782870000
   30      C       0.0016240000     0.8418370000    -2.4861500000
   31      C       0.0014940000     2.1066700000    -3.1069160000
   32      S      -0.0018410000     3.3541710000    -1.9657350000
   33      C       0.0061680000     2.3611460000    -4.5599720000
   34      O       0.0091520000     1.4276460000    -5.3502770000
   35      O       0.0094050000     3.6443370000    -5.0043750000
   36      F       0.0055390000    -0.2722880000    -3.2462900000
   37      C       0.0195540000     4.0030380000    -6.3349760000
   38      H       0.0201550000     5.1080000000    -6.3702680000
   39      H      -0.8714090000     3.6136810000    -6.8756090000
   40      H       0.9184700000     3.6130620000    -6.8618780000
   41      H       0.0012220000     3.3947710000     1.3215100000
   42      H      -0.7447390000    -9.1464710000     0.4866550000
   43      H       0.3990330000    -9.1505700000    -0.8981840000
   44      H      -0.6876830000    -1.4441580000     0.8327130000
 ----------------------------------------------------------------

   11   -2755.3273724482      7.94e-07  Convergence criterion met
 Total energy in the final basis set =    -2755.3273724482
        RIMP2         total energy =     -2760.4167060884 a.u.

                    Orbital Energies (a.u.)
 --------------------------------------------------------------

 Alpha MOs
 -- Occupied --
-92.0166 -91.9940 -91.9803 -91.9584 -26.3364 -20.6123 -20.5878 -20.5869
-20.5500 -11.4104 -11.3787 -11.3181 -11.3093 -11.3085 -11.2970 -11.2968
-11.2921 -11.2886 -11.2852 -11.2841 -11.2833 -11.2822 -11.2800 -11.2734
-11.2732 -11.2590 -11.2587 -11.2499 -11.2377  -9.0152  -8.9982  -8.9825
 -8.9610  -6.6960  -6.6954  -6.6949  -6.6794  -6.6788  -6.6774  -6.6636
 -6.6627  -6.6614  -6.6423  -6.6413  -6.6403  -1.6493  -1.4720  -1.4111
 -1.4088  -1.3672  -1.2380  -1.2101  -1.1760  -1.1440  -1.0999  -1.0500
 -1.0468  -1.0304  -1.0092  -0.9987  -0.9723  -0.9599  -0.9491  -0.9406
 -0.8942  -0.8714  -0.8647  -0.8078  -0.7958  -0.7860  -0.7780  -0.7719
 -0.7654  -0.7331  -0.7219  -0.7172  -0.6979  -0.6924  -0.6825  -0.6787
 -0.6722  -0.6660  -0.6568  -0.6487  -0.6360  -0.6304  -0.6203  -0.6148
 -0.6108  -0.6065  -0.5949  -0.5929  -0.5812  -0.5679  -0.5591  -0.5520
 -0.5498  -0.5361  -0.5306  -0.5228  -0.5140  -0.5079  -0.5043  -0.5009
 -0.4871  -0.4848  -0.4796  -0.4716  -0.4623  -0.4614  -0.4604  -0.4464
 -0.4274  -0.4014  -0.3862  -0.3711  -0.3515  -0.2933  -0.2866  -0.2196

          Ground-State Mulliken Net Atomic Charges

     Atom                 Charge (a.u.)
  ----------------------------------------
      1 C                    -0.070288
      2 C                    -0.257385
      3 S                    -0.134228
      4 C                    -0.045394
      5 H                     0.193694
      6 C                    -0.051802
      7 C                     0.225541
      8 C                     0.229058
      9 C                    -0.079480
     10 C                    -0.062973
     11 O                    -0.334420
     12 O                    -0.343456
     13 C                    -0.082372
     14 H                     0.120550
     15 H                     0.091436
     16 H                     0.093401
     17 C                    -0.087291
     18 H                     0.123704
     19 H                     0.092224
     20 H                     0.090200
     21 C                    -0.245380
     22 S                    -0.073680
     23 C                     0.095093
     24 H                     0.207631
     25 C                    -0.120590
     26 S                     0.092930
     27 C                    -0.244586
     28 C                    -0.063681
     29 C                    -0.010418
     30 C                     0.399829
     31 C                    -0.151956
     32 S                     0.032825
     33 C                     0.461124
     34 O                    -0.451225
     35 O                    -0.297863
     36 F                    -0.213487
     37 C                    -0.055127
     38 H                     0.116649
     39 H                     0.084472
     40 H                     0.084609
     41 H                     0.215804
     42 H                     0.117536
     43 H                     0.115544
     44 H                     0.193233
  ----------------------------------------
  Sum of atomic charges =     0.000000

                    Cartesian Multipole Moments
 -----------------------------------------------------------------
    Charge (ESU x 10^10)
                 0.0000
    Dipole Moment (Debye)
         X      -0.2797      Y       3.0613      Z       3.8234
       Tot       4.9059
    Quadrupole Moments (Debye-Ang)
        XX    -196.5216     XY      -2.9663     YY    -173.1294
        XZ       8.2890     YZ     -13.0094     ZZ    -192.9713

 Total job time:  327.29s(wall), 10616.05s(cpu)
        *  Thank you very much for using Q-Chem.  Have a nice day.  *
