 Q-Chem 5.4, Q-Chem, Inc., Pleasanton, CA (2021)
 Q-Chem 5.4.0 for Intel X86 EM64T Linux

User input:
--------------------------------------------------------------
$molecule
0 1
C	0.174379	-8.519741	0.208886
C	-0.650052	-7.635967	-0.472151
S	1.377058	-7.651740	1.193717
C	-0.353105	-6.261894	-0.225125
H	-1.458961	-7.954738	-1.141594
C	0.740583	-6.079985	0.692811
C	1.195546	-4.798382	1.039773
C	-1.023267	-5.153542	-0.817634
C	-0.565262	-3.869626	-0.473754
C	0.527745	-3.688927	0.447350
O	-2.054917	-5.481075	-1.644483
O	2.232592	-4.479871	1.869424
C	2.565470	-5.356026	2.939466
H	3.248608	-4.790496	3.601405
H	3.094885	-6.268513	2.587892
H	1.664539	-5.658187	3.516052
C	-2.524564	-4.546999	-2.608813
H	-3.211568	-5.107564	-3.270661
H	-1.692342	-4.131473	-3.216646
H	-3.090211	-3.712085	-2.141184
C	0.823402	-2.314326	0.690319
S	-1.194935	-2.295487	-0.985511
C	0.000000	-1.435180	0.000000
H	1.630024	-1.993211	1.361286
C	0.000000	0.000000	0.000000
S	0.234946	0.868203	1.510732
C	0.641630	2.390125	0.727629
C	0.235036	0.877284	-1.064665
C	0.593019	2.219143	-0.678287
C	0.219452	0.812732	-2.486150
C	0.546689	2.034501	-3.106916
S	0.866345	3.240357	-1.965735
C	0.617067	2.279095	-4.559972
O	0.378342	1.376631	-5.350277
O	0.952308	3.517725	-5.004375
F	-0.065123	-0.264443	-3.246290
C	1.054950	3.861577	-6.334976
H	1.341516	4.928732	-6.370268
H	0.093573	3.716085	-6.875609
H	1.822303	3.252232	-6.861878
H	0.879812	3.278780	1.321510
H	0.744739	-9.146471	-0.486655
H	-0.399033	-9.150570	0.898184
H	0.687683	-1.444158	-0.832713
$end

$rem
JOBTYPE		SP
EXCHANGE	HF
CORRELATION	pRIMP2
BASIS		cc-pvtz
METHOD		rimp2
AUX_BASIS	rimp2-cc-pvtz
SOLVENT_METHOD	PCM
PURECART	11111
SYMMETRY	false
MEM_TOTAL	110000
SCF_CONVERGENCE = 6
THRESH=10
GUI = 2
$end

$solvent
dielectric 4.90
$end
--------------------------------------------------------------

             Standard Nuclear Orientation (Angstroms)
    I     Atom           X                Y                Z
 ----------------------------------------------------------------
    1      C       0.1743790000    -8.5197410000     0.2088860000
    2      C      -0.6500520000    -7.6359670000    -0.4721510000
    3      S       1.3770580000    -7.6517400000     1.1937170000
    4      C      -0.3531050000    -6.2618940000    -0.2251250000
    5      H      -1.4589610000    -7.9547380000    -1.1415940000
    6      C       0.7405830000    -6.0799850000     0.6928110000
    7      C       1.1955460000    -4.7983820000     1.0397730000
    8      C      -1.0232670000    -5.1535420000    -0.8176340000
    9      C      -0.5652620000    -3.8696260000    -0.4737540000
   10      C       0.5277450000    -3.6889270000     0.4473500000
   11      O      -2.0549170000    -5.4810750000    -1.6444830000
   12      O       2.2325920000    -4.4798710000     1.8694240000
   13      C       2.5654700000    -5.3560260000     2.9394660000
   14      H       3.2486080000    -4.7904960000     3.6014050000
   15      H       3.0948850000    -6.2685130000     2.5878920000
   16      H       1.6645390000    -5.6581870000     3.5160520000
   17      C      -2.5245640000    -4.5469990000    -2.6088130000
   18      H      -3.2115680000    -5.1075640000    -3.2706610000
   19      H      -1.6923420000    -4.1314730000    -3.2166460000
   20      H      -3.0902110000    -3.7120850000    -2.1411840000
   21      C       0.8234020000    -2.3143260000     0.6903190000
   22      S      -1.1949350000    -2.2954870000    -0.9855110000
   23      C       0.0000000000    -1.4351800000     0.0000000000
   24      H       1.6300240000    -1.9932110000     1.3612860000
   25      C       0.0000000000     0.0000000000     0.0000000000
   26      S       0.2349460000     0.8682030000     1.5107320000
   27      C       0.6416300000     2.3901250000     0.7276290000
   28      C       0.2350360000     0.8772840000    -1.0646650000
   29      C       0.5930190000     2.2191430000    -0.6782870000
   30      C       0.2194520000     0.8127320000    -2.4861500000
   31      C       0.5466890000     2.0345010000    -3.1069160000
   32      S       0.8663450000     3.2403570000    -1.9657350000
   33      C       0.6170670000     2.2790950000    -4.5599720000
   34      O       0.3783420000     1.3766310000    -5.3502770000
   35      O       0.9523080000     3.5177250000    -5.0043750000
   36      F      -0.0651230000    -0.2644430000    -3.2462900000
   37      C       1.0549500000     3.8615770000    -6.3349760000
   38      H       1.3415160000     4.9287320000    -6.3702680000
   39      H       0.0935730000     3.7160850000    -6.8756090000
   40      H       1.8223030000     3.2522320000    -6.8618780000
   41      H       0.8798120000     3.2787800000     1.3215100000
   42      H       0.7447390000    -9.1464710000    -0.4866550000
   43      H      -0.3990330000    -9.1505700000     0.8981840000
   44      H       0.6876830000    -1.4441580000    -0.8327130000
 ----------------------------------------------------------------

   11   -2755.3230216435      7.36e-07  Convergence criterion met
 Total energy in the final basis set =    -2755.3230216435
        RIMP2         total energy =     -2760.4161740853 a.u.

                    Orbital Energies (a.u.)
 --------------------------------------------------------------

 Alpha MOs
 -- Occupied --
-92.0156 -91.9955 -91.9762 -91.9589 -26.3363 -20.6124 -20.5876 -20.5867
-20.5502 -11.4106 -11.3788 -11.3180 -11.3093 -11.3075 -11.2978 -11.2973
-11.2909 -11.2888 -11.2836 -11.2833 -11.2830 -11.2829 -11.2814 -11.2741
-11.2728 -11.2596 -11.2585 -11.2502 -11.2382  -9.0140  -8.9995  -8.9786
 -8.9615  -6.6947  -6.6941  -6.6937  -6.6808  -6.6801  -6.6788  -6.6597
 -6.6588  -6.6575  -6.6428  -6.6418  -6.6408  -1.6497  -1.4721  -1.4103
 -1.4092  -1.3674  -1.2392  -1.2090  -1.1759  -1.1436  -1.1001  -1.0515
 -1.0461  -1.0294  -1.0085  -0.9983  -0.9723  -0.9596  -0.9487  -0.9408
 -0.8934  -0.8739  -0.8623  -0.8113  -0.7922  -0.7858  -0.7794  -0.7674
 -0.7625  -0.7335  -0.7190  -0.7179  -0.6979  -0.6929  -0.6868  -0.6789
 -0.6761  -0.6724  -0.6555  -0.6486  -0.6323  -0.6299  -0.6205  -0.6151
 -0.6105  -0.6065  -0.5961  -0.5933  -0.5808  -0.5654  -0.5589  -0.5575
 -0.5513  -0.5316  -0.5282  -0.5209  -0.5133  -0.5080  -0.5040  -0.5003
 -0.4878  -0.4849  -0.4788  -0.4684  -0.4617  -0.4616  -0.4605  -0.4463
 -0.4284  -0.3999  -0.3849  -0.3705  -0.3506  -0.2929  -0.2867  -0.2192

          Ground-State Mulliken Net Atomic Charges

     Atom                 Charge (a.u.)
  ----------------------------------------
      1 C                    -0.070344
      2 C                    -0.255493
      3 S                    -0.133941
      4 C                    -0.046317
      5 H                     0.194166
      6 C                    -0.050855
      7 C                     0.221243
      8 C                     0.232942
      9 C                    -0.083824
     10 C                    -0.051774
     11 O                    -0.335456
     12 O                    -0.343858
     13 C                    -0.082481
     14 H                     0.119933
     15 H                     0.092021
     16 H                     0.092788
     17 C                    -0.087221
     18 H                     0.123030
     19 H                     0.094011
     20 H                     0.089751
     21 C                    -0.260696
     22 S                    -0.065033
     23 C                     0.054312
     24 H                     0.209150
     25 C                    -0.055326
     26 S                     0.097421
     27 C                    -0.246203
     28 C                    -0.096093
     29 C                    -0.003721
     30 C                     0.370694
     31 C                    -0.138559
     32 S                     0.040270
     33 C                     0.458791
     34 O                    -0.451112
     35 O                    -0.298001
     36 F                    -0.211099
     37 C                    -0.055015
     38 H                     0.116676
     39 H                     0.084564
     40 H                     0.084425
     41 H                     0.214369
     42 H                     0.118078
     43 H                     0.115626
     44 H                     0.198160
  ----------------------------------------
  Sum of atomic charges =     0.000000

                    Cartesian Multipole Moments
 -----------------------------------------------------------------
    Charge (ESU x 10^10)
                -0.0000
    Dipole Moment (Debye)
         X       1.1245      Y       2.8932      Z       2.6221
       Tot       4.0634
    Quadrupole Moments (Debye-Ang)
        XX    -195.5644     XY       6.8350     YY    -173.5229
        XZ       5.4431     YZ      -7.8136     ZZ    -192.8611

 Total job time:  327.85s(wall), 10857.64s(cpu)
        *  Thank you very much for using Q-Chem.  Have a nice day.  *
