 Q-Chem 5.4, Q-Chem, Inc., Pleasanton, CA (2021)
 Q-Chem 5.4.0 for Intel X86 EM64T Linux

User input:
--------------------------------------------------------------
$molecule
0 1
C	-0.255459	-8.519741	-0.093711
C	0.799036	-7.635967	0.083869
S	-1.789425	-7.651740	-0.345260
C	0.418360	-6.261894	0.018411
H	1.834294	-7.954738	0.259169
C	-0.987769	-6.079985	-0.229701
C	-1.555260	-4.798382	-0.302697
C	1.294992	-5.153542	0.196459
C	0.726408	-3.869626	0.127651
C	-0.680716	-3.688927	-0.123544
O	2.601852	-5.481075	0.396706
O	-2.868193	-4.479871	-0.502673
C	-3.691495	-5.356026	-1.262918
H	-4.614080	-4.790496	-1.494604
H	-3.974195	-6.268513	-0.693738
H	-3.199559	-5.658187	-2.212720
C	3.490743	-4.546999	0.997016
H	4.416630	-5.107564	1.226691
H	3.073934	-4.131473	1.939526
H	3.746794	-3.712085	0.309214
C	-1.058247	-2.314326	-0.186133
S	1.527599	-2.295487	0.256010
C	0.000000	-1.435180	0.000000
H	-2.092285	-1.993211	-0.363896
C	0.000000	0.000000	0.000000
S	0.780044	0.447780	1.510732
C	2.143774	1.236372	0.727629
C	0.786529	0.454137	-1.064665
C	1.988499	1.149844	-0.678287
C	0.729864	0.419512	-2.486150
C	1.825177	1.052041	-3.106916
S	2.903877	1.678680	-1.965735
C	2.047896	1.175232	-4.559972
O	1.240953	0.705897	-5.350277
O	3.160791	1.814024	-5.004375
F	-0.233039	-0.140940	-3.246290
C	3.476510	1.984585	-6.334976
H	4.433735	2.536545	-6.370268
H	2.693835	2.561503	-6.875609
H	3.588239	1.011113	-6.861878
H	2.940569	1.696327	1.321510
H	-0.401636	-9.146471	0.793825
H	-0.103519	-9.150570	-0.977367
H	-0.179195	-1.444158	1.064992
$end

$rem
JOBTYPE		SP
EXCHANGE	HF
CORRELATION	pRIMP2
BASIS		cc-pvtz
METHOD		rimp2
AUX_BASIS	rimp2-cc-pvtz
SOLVENT_METHOD	PCM
PURECART	11111
SYMMETRY	false
MEM_TOTAL	110000
SCF_CONVERGENCE = 6
THRESH=10
GUI = 2
$end

$solvent
dielectric 4.90
$end
--------------------------------------------------------------

             Standard Nuclear Orientation (Angstroms)
    I     Atom           X                Y                Z
 ----------------------------------------------------------------
    1      C      -0.2554590000    -8.5197410000    -0.0937110000
    2      C       0.7990360000    -7.6359670000     0.0838690000
    3      S      -1.7894250000    -7.6517400000    -0.3452600000
    4      C       0.4183600000    -6.2618940000     0.0184110000
    5      H       1.8342940000    -7.9547380000     0.2591690000
    6      C      -0.9877690000    -6.0799850000    -0.2297010000
    7      C      -1.5552600000    -4.7983820000    -0.3026970000
    8      C       1.2949920000    -5.1535420000     0.1964590000
    9      C       0.7264080000    -3.8696260000     0.1276510000
   10      C      -0.6807160000    -3.6889270000    -0.1235440000
   11      O       2.6018520000    -5.4810750000     0.3967060000
   12      O      -2.8681930000    -4.4798710000    -0.5026730000
   13      C      -3.6914950000    -5.3560260000    -1.2629180000
   14      H      -4.6140800000    -4.7904960000    -1.4946040000
   15      H      -3.9741950000    -6.2685130000    -0.6937380000
   16      H      -3.1995590000    -5.6581870000    -2.2127200000
   17      C       3.4907430000    -4.5469990000     0.9970160000
   18      H       4.4166300000    -5.1075640000     1.2266910000
   19      H       3.0739340000    -4.1314730000     1.9395260000
   20      H       3.7467940000    -3.7120850000     0.3092140000
   21      C      -1.0582470000    -2.3143260000    -0.1861330000
   22      S       1.5275990000    -2.2954870000     0.2560100000
   23      C       0.0000000000    -1.4351800000     0.0000000000
   24      H      -2.0922850000    -1.9932110000    -0.3638960000
   25      C       0.0000000000     0.0000000000     0.0000000000
   26      S       0.7800440000     0.4477800000     1.5107320000
   27      C       2.1437740000     1.2363720000     0.7276290000
   28      C       0.7865290000     0.4541370000    -1.0646650000
   29      C       1.9884990000     1.1498440000    -0.6782870000
   30      C       0.7298640000     0.4195120000    -2.4861500000
   31      C       1.8251770000     1.0520410000    -3.1069160000
   32      S       2.9038770000     1.6786800000    -1.9657350000
   33      C       2.0478960000     1.1752320000    -4.5599720000
   34      O       1.2409530000     0.7058970000    -5.3502770000
   35      O       3.1607910000     1.8140240000    -5.0043750000
   36      F      -0.2330390000    -0.1409400000    -3.2462900000
   37      C       3.4765100000     1.9845850000    -6.3349760000
   38      H       4.4337350000     2.5365450000    -6.3702680000
   39      H       2.6938350000     2.5615030000    -6.8756090000
   40      H       3.5882390000     1.0111130000    -6.8618780000
   41      H       2.9405690000     1.6963270000     1.3215100000
   42      H      -0.4016360000    -9.1464710000     0.7938250000
   43      H      -0.1035190000    -9.1505700000    -0.9773670000
   44      H      -0.1791950000    -1.4441580000     1.0649920000
 ----------------------------------------------------------------

   11   -2755.2551260720      7.43e-07  Convergence criterion met
 Total energy in the final basis set =    -2755.2551260720
        RIMP2         total energy =     -2760.3658250869 a.u.

                    Orbital Energies (a.u.)
 --------------------------------------------------------------

 Alpha MOs
 -- Occupied --
-92.0162 -92.0076 -91.9687 -91.9541 -26.3352 -20.6168 -20.5849 -20.5838
-20.5586 -11.4176 -11.3761 -11.3296 -11.3150 -11.3064 -11.3016 -11.3010
-11.2939 -11.2909 -11.2829 -11.2808 -11.2794 -11.2720 -11.2705 -11.2679
-11.2666 -11.2547 -11.2483 -11.2459 -11.2294  -9.0159  -9.0111  -8.9717
 -8.9568  -6.6964  -6.6955  -6.6954  -6.6922  -6.6916  -6.6904  -6.6528
 -6.6519  -6.6506  -6.6380  -6.6371  -6.6361  -1.6483  -1.4771  -1.4075
 -1.4063  -1.3735  -1.2497  -1.2065  -1.1737  -1.1469  -1.0956  -1.0557
 -1.0419  -1.0361  -1.0056  -0.9932  -0.9774  -0.9596  -0.9462  -0.9390
 -0.8903  -0.8784  -0.8566  -0.8093  -0.7973  -0.7824  -0.7813  -0.7714
 -0.7613  -0.7343  -0.7197  -0.7177  -0.6977  -0.6938  -0.6825  -0.6786
 -0.6779  -0.6652  -0.6536  -0.6463  -0.6308  -0.6295  -0.6165  -0.6132
 -0.6126  -0.6107  -0.6046  -0.5904  -0.5733  -0.5616  -0.5597  -0.5526
 -0.5394  -0.5354  -0.5294  -0.5220  -0.5107  -0.5064  -0.5051  -0.4980
 -0.4915  -0.4833  -0.4746  -0.4685  -0.4652  -0.4618  -0.4551  -0.4430
 -0.4190  -0.3982  -0.3840  -0.3663  -0.3445  -0.3051  -0.2850  -0.2156

          Ground-State Mulliken Net Atomic Charges

     Atom                 Charge (a.u.)
  ----------------------------------------
      1 C                    -0.069214
      2 C                    -0.279689
      3 S                    -0.144208
      4 C                    -0.041988
      5 H                     0.190436
      6 C                    -0.057601
      7 C                     0.227790
      8 C                     0.221668
      9 C                    -0.076715
     10 C                    -0.055384
     11 O                    -0.335939
     12 O                    -0.342830
     13 C                    -0.082297
     14 H                     0.119367
     15 H                     0.091456
     16 H                     0.092822
     17 C                    -0.086244
     18 H                     0.122542
     19 H                     0.090105
     20 H                     0.088980
     21 C                    -0.277514
     22 S                    -0.100300
     23 C                     0.027018
     24 H                     0.204878
     25 C                    -0.169024
     26 S                     0.123516
     27 C                    -0.138589
     28 C                    -0.016142
     29 C                    -0.031561
     30 C                     0.361163
     31 C                    -0.118335
     32 S                     0.077562
     33 C                     0.457391
     34 O                    -0.435814
     35 O                    -0.296128
     36 F                    -0.209947
     37 C                    -0.054774
     38 H                     0.117670
     39 H                     0.085965
     40 H                     0.086207
     41 H                     0.222485
     42 H                     0.114165
     43 H                     0.112137
     44 H                     0.184917
  ----------------------------------------
  Sum of atomic charges =     0.000000

                    Cartesian Multipole Moments
 -----------------------------------------------------------------
    Charge (ESU x 10^10)
                 0.0000
    Dipole Moment (Debye)
         X       5.1850      Y       4.8531      Z       3.0119
       Tot       7.7142
    Quadrupole Moments (Debye-Ang)
        XX    -172.0002     XY       6.4492     YY    -198.0625
        XZ      -3.5270     YZ      -6.7853     ZZ    -196.7599

 Total job time:  335.42s(wall), 10954.49s(cpu)
        *  Thank you very much for using Q-Chem.  Have a nice day.  *
