 Q-Chem 5.4, Q-Chem, Inc., Pleasanton, CA (2021)
 Q-Chem 5.4.0 for Intel X86 EM64T Linux

User input:
--------------------------------------------------------------
$molecule
0 1
C	-0.174379	-8.519741	-0.208886
C	0.650052	-7.635967	0.472151
S	-1.377058	-7.651740	-1.193717
C	0.353105	-6.261894	0.225125
H	1.458961	-7.954738	1.141594
C	-0.740583	-6.079985	-0.692811
C	-1.195546	-4.798382	-1.039773
C	1.023267	-5.153542	0.817634
C	0.565262	-3.869626	0.473754
C	-0.527745	-3.688927	-0.447350
O	2.054917	-5.481075	1.644483
O	-2.232592	-4.479871	-1.869424
C	-2.565470	-5.356026	-2.939466
H	-3.248608	-4.790496	-3.601405
H	-3.094885	-6.268513	-2.587892
H	-1.664539	-5.658187	-3.516052
C	2.524564	-4.546999	2.608813
H	3.211568	-5.107564	3.270661
H	1.692342	-4.131473	3.216646
H	3.090211	-3.712085	2.141184
C	-0.823402	-2.314326	-0.690319
S	1.194935	-2.295487	0.985511
C	0.000000	-1.435180	0.000000
H	-1.630024	-1.993211	-1.361286
C	0.000000	0.000000	0.000000
S	0.234946	0.868203	1.510732
C	0.641630	2.390125	0.727629
C	0.235036	0.877284	-1.064665
C	0.593019	2.219143	-0.678287
C	0.219452	0.812732	-2.486150
C	0.546689	2.034501	-3.106916
S	0.866345	3.240357	-1.965735
C	0.617067	2.279095	-4.559972
O	0.378342	1.376631	-5.350277
O	0.952308	3.517725	-5.004375
F	-0.065123	-0.264443	-3.246290
C	1.054950	3.861577	-6.334976
H	1.341516	4.928732	-6.370268
H	0.093573	3.716085	-6.875609
H	1.822303	3.252232	-6.861878
H	0.879812	3.278780	1.321510
H	-0.744739	-9.146471	0.486655
H	0.399033	-9.150570	-0.898184
H	-0.687683	-1.444158	0.832713
$end

$rem
JOBTYPE		SP
EXCHANGE	HF
CORRELATION	pRIMP2
BASIS		cc-pvtz
METHOD		rimp2
AUX_BASIS	rimp2-cc-pvtz
SOLVENT_METHOD	PCM
PURECART	11111
SYMMETRY	false
MEM_TOTAL	110000
SCF_CONVERGENCE = 6
THRESH=10
GUI = 2
$end

$solvent
dielectric 4.90
$end
--------------------------------------------------------------

             Standard Nuclear Orientation (Angstroms)
    I     Atom           X                Y                Z
 ----------------------------------------------------------------
    1      C      -0.1743790000    -8.5197410000    -0.2088860000
    2      C       0.6500520000    -7.6359670000     0.4721510000
    3      S      -1.3770580000    -7.6517400000    -1.1937170000
    4      C       0.3531050000    -6.2618940000     0.2251250000
    5      H       1.4589610000    -7.9547380000     1.1415940000
    6      C      -0.7405830000    -6.0799850000    -0.6928110000
    7      C      -1.1955460000    -4.7983820000    -1.0397730000
    8      C       1.0232670000    -5.1535420000     0.8176340000
    9      C       0.5652620000    -3.8696260000     0.4737540000
   10      C      -0.5277450000    -3.6889270000    -0.4473500000
   11      O       2.0549170000    -5.4810750000     1.6444830000
   12      O      -2.2325920000    -4.4798710000    -1.8694240000
   13      C      -2.5654700000    -5.3560260000    -2.9394660000
   14      H      -3.2486080000    -4.7904960000    -3.6014050000
   15      H      -3.0948850000    -6.2685130000    -2.5878920000
   16      H      -1.6645390000    -5.6581870000    -3.5160520000
   17      C       2.5245640000    -4.5469990000     2.6088130000
   18      H       3.2115680000    -5.1075640000     3.2706610000
   19      H       1.6923420000    -4.1314730000     3.2166460000
   20      H       3.0902110000    -3.7120850000     2.1411840000
   21      C      -0.8234020000    -2.3143260000    -0.6903190000
   22      S       1.1949350000    -2.2954870000     0.9855110000
   23      C       0.0000000000    -1.4351800000     0.0000000000
   24      H      -1.6300240000    -1.9932110000    -1.3612860000
   25      C       0.0000000000     0.0000000000     0.0000000000
   26      S       0.2349460000     0.8682030000     1.5107320000
   27      C       0.6416300000     2.3901250000     0.7276290000
   28      C       0.2350360000     0.8772840000    -1.0646650000
   29      C       0.5930190000     2.2191430000    -0.6782870000
   30      C       0.2194520000     0.8127320000    -2.4861500000
   31      C       0.5466890000     2.0345010000    -3.1069160000
   32      S       0.8663450000     3.2403570000    -1.9657350000
   33      C       0.6170670000     2.2790950000    -4.5599720000
   34      O       0.3783420000     1.3766310000    -5.3502770000
   35      O       0.9523080000     3.5177250000    -5.0043750000
   36      F      -0.0651230000    -0.2644430000    -3.2462900000
   37      C       1.0549500000     3.8615770000    -6.3349760000
   38      H       1.3415160000     4.9287320000    -6.3702680000
   39      H       0.0935730000     3.7160850000    -6.8756090000
   40      H       1.8223030000     3.2522320000    -6.8618780000
   41      H       0.8798120000     3.2787800000     1.3215100000
   42      H      -0.7447390000    -9.1464710000     0.4866550000
   43      H       0.3990330000    -9.1505700000    -0.8981840000
   44      H      -0.6876830000    -1.4441580000     0.8327130000
 ----------------------------------------------------------------

   11   -2755.3225102735      7.78e-07  Convergence criterion met
 Total energy in the final basis set =    -2755.3225102735
        RIMP2         total energy =     -2760.4140650527 a.u.

                    Orbital Energies (a.u.)
 --------------------------------------------------------------

 Alpha MOs
 -- Occupied --
-92.0175 -91.9949 -91.9800 -91.9579 -26.3363 -20.6125 -20.5873 -20.5867
-20.5505 -11.4108 -11.3783 -11.3145 -11.3089 -11.3076 -11.2979 -11.2974
-11.2946 -11.2887 -11.2850 -11.2836 -11.2820 -11.2820 -11.2805 -11.2729
-11.2727 -11.2582 -11.2579 -11.2494 -11.2365  -9.0160  -8.9990  -8.9823
 -8.9605  -6.6967  -6.6962  -6.6957  -6.6802  -6.6796  -6.6782  -6.6633
 -6.6624  -6.6611  -6.6418  -6.6408  -6.6398  -1.6492  -1.4722  -1.4106
 -1.4085  -1.3676  -1.2383  -1.2096  -1.1754  -1.1441  -1.0994  -1.0502
 -1.0463  -1.0306  -1.0090  -0.9982  -0.9725  -0.9597  -0.9487  -0.9403
 -0.8940  -0.8717  -0.8644  -0.8076  -0.7957  -0.7856  -0.7776  -0.7719
 -0.7649  -0.7327  -0.7219  -0.7172  -0.6974  -0.6925  -0.6822  -0.6789
 -0.6726  -0.6653  -0.6565  -0.6484  -0.6355  -0.6301  -0.6198  -0.6144
 -0.6109  -0.6068  -0.5954  -0.5929  -0.5795  -0.5673  -0.5587  -0.5522
 -0.5486  -0.5366  -0.5306  -0.5228  -0.5138  -0.5077  -0.5046  -0.5005
 -0.4865  -0.4852  -0.4781  -0.4727  -0.4623  -0.4616  -0.4599  -0.4459
 -0.4271  -0.4007  -0.3856  -0.3704  -0.3515  -0.2933  -0.2867  -0.2190

          Ground-State Mulliken Net Atomic Charges

     Atom                 Charge (a.u.)
  ----------------------------------------
      1 C                    -0.070069
      2 C                    -0.261212
      3 S                    -0.135461
      4 C                    -0.043674
      5 H                     0.193247
      6 C                    -0.051774
      7 C                     0.224218
      8 C                     0.223977
      9 C                    -0.076742
     10 C                    -0.051480
     11 O                    -0.334530
     12 O                    -0.343418
     13 C                    -0.082315
     14 H                     0.120489
     15 H                     0.091454
     16 H                     0.093305
     17 C                    -0.087358
     18 H                     0.123619
     19 H                     0.092054
     20 H                     0.090024
     21 C                    -0.257649
     22 S                    -0.070524
     23 C                     0.071458
     24 H                     0.205826
     25 C                    -0.105171
     26 S                     0.092109
     27 C                    -0.232343
     28 C                    -0.045378
     29 C                    -0.010187
     30 C                     0.376055
     31 C                    -0.147460
     32 S                     0.036989
     33 C                     0.459063
     34 O                    -0.449941
     35 O                    -0.297790
     36 F                    -0.212295
     37 C                    -0.054997
     38 H                     0.116670
     39 H                     0.084546
     40 H                     0.084676
     41 H                     0.216087
     42 H                     0.117073
     43 H                     0.115039
     44 H                     0.193794
  ----------------------------------------
  Sum of atomic charges =     0.000000

                    Cartesian Multipole Moments
 -----------------------------------------------------------------
    Charge (ESU x 10^10)
                -0.0000
    Dipole Moment (Debye)
         X       0.6332      Y       3.3926      Z       3.7736
       Tot       5.1138
    Quadrupole Moments (Debye-Ang)
        XX    -195.4668     XY       1.0340     YY    -175.7480
        XZ       5.4479     YZ     -12.6828     ZZ    -192.6249

 Total job time:  323.49s(wall), 10518.16s(cpu)
        *  Thank you very much for using Q-Chem.  Have a nice day.  *
