 Q-Chem 5.4, Q-Chem, Inc., Pleasanton, CA (2021)
 Q-Chem 5.4.0 for Intel X86 EM64T Linux

User input:
--------------------------------------------------------------
$molecule
0 1
C	0.046574	-8.519741	0.268090
C	-0.326886	-7.635967	-0.733920
S	0.595708	-7.651740	1.722318
C	-0.193236	-6.261894	-0.371516
H	-0.692700	-7.954738	-1.718130
C	0.294958	-6.079985	0.970283
C	0.515487	-4.798382	1.498243
C	-0.477358	-5.153542	-1.219725
C	-0.252655	-3.869626	-0.692914
C	0.233366	-3.688927	0.651289
O	-0.957369	-5.481075	-2.451623
O	0.998769	-4.479871	2.735264
C	0.752029	-5.356026	3.828387
H	1.012675	-4.790496	4.743213
H	1.386303	-6.268513	3.788623
H	-0.316492	-5.658187	3.877260
C	-0.881930	-4.546999	-3.521580
H	-1.145969	-5.107564	-4.438260
H	0.142712	-4.131473	-3.631868
H	-1.605610	-3.712085	-3.399425
C	0.367928	-2.314326	1.009535
S	-0.542088	-2.295487	-1.450945
C	0.000000	-1.435180	0.000000
H	0.730999	-1.993211	1.993920
C	0.000000	0.000000	0.000000
S	0.002233	0.899428	1.510732
C	0.001157	2.474749	0.727629
C	-0.000030	0.908223	-1.064665
C	-0.001545	2.297013	-0.678287
C	0.001624	0.841837	-2.486150
C	0.001494	2.106670	-3.106916
S	-0.001841	3.354171	-1.965735
C	0.006168	2.361146	-4.559972
O	0.009152	1.427646	-5.350277
O	0.009405	3.644337	-5.004375
F	0.005539	-0.272288	-3.246290
C	0.019554	4.003038	-6.334976
H	0.020155	5.108000	-6.370268
H	-0.871409	3.613681	-6.875609
H	0.918470	3.613062	-6.861878
H	0.001222	3.394771	1.321510
H	0.888291	-9.146471	-0.049086
H	-0.794665	-9.150570	0.578334
H	1.011908	-1.444158	-0.377309
$end

$rem
JOBTYPE		SP
EXCHANGE	HF
CORRELATION	pRIMP2
BASIS		cc-pvtz
METHOD		rimp2
AUX_BASIS	rimp2-cc-pvtz
SOLVENT_METHOD	PCM
PURECART	11111
SYMMETRY	false
MEM_TOTAL	110000
SCF_CONVERGENCE = 6
THRESH=10
GUI = 2
$end

$solvent
dielectric 4.90
$end
--------------------------------------------------------------

             Standard Nuclear Orientation (Angstroms)
    I     Atom           X                Y                Z
 ----------------------------------------------------------------
    1      C       0.0465740000    -8.5197410000     0.2680900000
    2      C      -0.3268860000    -7.6359670000    -0.7339200000
    3      S       0.5957080000    -7.6517400000     1.7223180000
    4      C      -0.1932360000    -6.2618940000    -0.3715160000
    5      H      -0.6927000000    -7.9547380000    -1.7181300000
    6      C       0.2949580000    -6.0799850000     0.9702830000
    7      C       0.5154870000    -4.7983820000     1.4982430000
    8      C      -0.4773580000    -5.1535420000    -1.2197250000
    9      C      -0.2526550000    -3.8696260000    -0.6929140000
   10      C       0.2333660000    -3.6889270000     0.6512890000
   11      O      -0.9573690000    -5.4810750000    -2.4516230000
   12      O       0.9987690000    -4.4798710000     2.7352640000
   13      C       0.7520290000    -5.3560260000     3.8283870000
   14      H       1.0126750000    -4.7904960000     4.7432130000
   15      H       1.3863030000    -6.2685130000     3.7886230000
   16      H      -0.3164920000    -5.6581870000     3.8772600000
   17      C      -0.8819300000    -4.5469990000    -3.5215800000
   18      H      -1.1459690000    -5.1075640000    -4.4382600000
   19      H       0.1427120000    -4.1314730000    -3.6318680000
   20      H      -1.6056100000    -3.7120850000    -3.3994250000
   21      C       0.3679280000    -2.3143260000     1.0095350000
   22      S      -0.5420880000    -2.2954870000    -1.4509450000
   23      C       0.0000000000    -1.4351800000     0.0000000000
   24      H       0.7309990000    -1.9932110000     1.9939200000
   25      C       0.0000000000     0.0000000000     0.0000000000
   26      S       0.0022330000     0.8994280000     1.5107320000
   27      C       0.0011570000     2.4747490000     0.7276290000
   28      C      -0.0000300000     0.9082230000    -1.0646650000
   29      C      -0.0015450000     2.2970130000    -0.6782870000
   30      C       0.0016240000     0.8418370000    -2.4861500000
   31      C       0.0014940000     2.1066700000    -3.1069160000
   32      S      -0.0018410000     3.3541710000    -1.9657350000
   33      C       0.0061680000     2.3611460000    -4.5599720000
   34      O       0.0091520000     1.4276460000    -5.3502770000
   35      O       0.0094050000     3.6443370000    -5.0043750000
   36      F       0.0055390000    -0.2722880000    -3.2462900000
   37      C       0.0195540000     4.0030380000    -6.3349760000
   38      H       0.0201550000     5.1080000000    -6.3702680000
   39      H      -0.8714090000     3.6136810000    -6.8756090000
   40      H       0.9184700000     3.6130620000    -6.8618780000
   41      H       0.0012220000     3.3947710000     1.3215100000
   42      H       0.8882910000    -9.1464710000    -0.0490860000
   43      H      -0.7946650000    -9.1505700000     0.5783340000
   44      H       1.0119080000    -1.4441580000    -0.3773090000
 ----------------------------------------------------------------

   11   -2755.3231893862      7.04e-07  Convergence criterion met
 Total energy in the final basis set =    -2755.3231893862
        RIMP2         total energy =     -2760.4149111048 a.u.

                    Orbital Energies (a.u.)
 --------------------------------------------------------------

 Alpha MOs
 -- Occupied --
-92.0142 -91.9920 -91.9769 -91.9607 -26.3351 -20.6107 -20.5882 -20.5881
-20.5472 -11.4080 -11.3790 -11.3263 -11.3103 -11.3100 -11.2967 -11.2915
-11.2879 -11.2866 -11.2841 -11.2838 -11.2831 -11.2821 -11.2765 -11.2764
-11.2722 -11.2629 -11.2600 -11.2521 -11.2423  -9.0127  -8.9962  -8.9795
 -8.9632  -6.6935  -6.6929  -6.6924  -6.6775  -6.6768  -6.6754  -6.6605
 -6.6596  -6.6582  -6.6445  -6.6435  -6.6425  -1.6503  -1.4702  -1.4115
 -1.4100  -1.3652  -1.2377  -1.2101  -1.1778  -1.1429  -1.1010  -1.0506
 -1.0472  -1.0288  -1.0089  -1.0003  -0.9712  -0.9602  -0.9495  -0.9404
 -0.8951  -0.8729  -0.8633  -0.8127  -0.7943  -0.7862  -0.7772  -0.7667
 -0.7620  -0.7342  -0.7197  -0.7177  -0.6982  -0.6945  -0.6849  -0.6775
 -0.6745  -0.6715  -0.6566  -0.6494  -0.6372  -0.6303  -0.6223  -0.6158
 -0.6109  -0.6045  -0.5966  -0.5911  -0.5788  -0.5670  -0.5632  -0.5592
 -0.5494  -0.5328  -0.5285  -0.5210  -0.5139  -0.5089  -0.5047  -0.4995
 -0.4850  -0.4818  -0.4812  -0.4684  -0.4609  -0.4604  -0.4587  -0.4478
 -0.4315  -0.3997  -0.3851  -0.3723  -0.3508  -0.2931  -0.2837  -0.2191

          Ground-State Mulliken Net Atomic Charges

     Atom                 Charge (a.u.)
  ----------------------------------------
      1 C                    -0.070948
      2 C                    -0.243449
      3 S                    -0.130233
      4 C                    -0.049526
      5 H                     0.195733
      6 C                    -0.048075
      7 C                     0.222849
      8 C                     0.231446
      9 C                    -0.081119
     10 C                    -0.032929
     11 O                    -0.334508
     12 O                    -0.344054
     13 C                    -0.082687
     14 H                     0.120179
     15 H                     0.092148
     16 H                     0.093016
     17 C                    -0.087984
     18 H                     0.124267
     19 H                     0.094019
     20 H                     0.090607
     21 C                    -0.309117
     22 S                    -0.080181
     23 C                     0.139673
     24 H                     0.197798
     25 C                    -0.050288
     26 S                     0.086102
     27 C                    -0.270508
     28 C                    -0.121138
     29 C                    -0.007551
     30 C                     0.396344
     31 C                    -0.153920
     32 S                     0.028057
     33 C                     0.462502
     34 O                    -0.456505
     35 O                    -0.298684
     36 F                    -0.209703
     37 C                    -0.055198
     38 H                     0.116361
     39 H                     0.084050
     40 H                     0.083872
     41 H                     0.213209
     42 H                     0.119654
     43 H                     0.117341
     44 H                     0.209079
  ----------------------------------------
  Sum of atomic charges =     0.000000

                    Cartesian Multipole Moments
 -----------------------------------------------------------------
    Charge (ESU x 10^10)
                -0.0000
    Dipole Moment (Debye)
         X       0.5505      Y       1.3918      Z       2.7868
       Tot       3.1633
    Quadrupole Moments (Debye-Ang)
        XX    -201.6124     XY       1.5088     YY    -167.5394
        XZ       0.4914     YZ      -5.5909     ZZ    -188.9032

 Total job time:  757.91s(wall), 10802.79s(cpu)
        *  Thank you very much for using Q-Chem.  Have a nice day.  *
