 Q-Chem 5.4, Q-Chem, Inc., Pleasanton, CA (2021)
 Q-Chem 5.4.0 for Intel X86 EM64T Linux

User input:
--------------------------------------------------------------
$molecule
0 1
C	-0.235306	-8.519741	-0.136647
C	0.772334	-7.635967	0.221346
S	-1.702286	-7.651740	-0.650746
C	0.408807	-6.261894	0.090779
H	1.761423	-7.954738	0.573754
C	-0.932876	-6.079985	-0.397735
C	-1.479069	-4.798382	-0.568166
C	1.241204	-5.153542	0.418347
C	0.693206	-3.869626	0.251852
C	-0.648921	-3.688927	-0.239872
O	2.493437	-5.481075	0.842486
O	-2.737331	-4.479871	-0.993092
C	-3.416110	-5.356026	-1.884752
H	-4.284447	-4.790496	-2.273124
H	-3.793352	-6.268513	-1.373310
H	-2.766716	-5.658187	-2.734702
C	3.264581	-4.546999	1.588030
H	4.136519	-5.107564	1.974995
H	2.690439	-4.131473	2.443843
H	3.636177	-3.712085	0.955140
C	-1.009848	-2.314326	-0.367068
S	1.459936	-2.295487	0.517386
C	0.000000	-1.435180	0.000000
H	-1.997308	-1.993211	-0.721689
C	0.000000	0.000000	0.000000
S	0.780044	0.447780	1.510732
C	2.143774	1.236372	0.727629
C	0.786529	0.454137	-1.064665
C	1.988499	1.149844	-0.678287
C	0.729864	0.419512	-2.486150
C	1.825177	1.052041	-3.106916
S	2.903877	1.678680	-1.965735
C	2.047896	1.175232	-4.559972
O	1.240953	0.705897	-5.350277
O	3.160791	1.814024	-5.004375
F	-0.233039	-0.140940	-3.246290
C	3.476510	1.984585	-6.334976
H	4.433735	2.536545	-6.370268
H	2.693835	2.561503	-6.875609
H	3.588239	1.011113	-6.861878
H	2.940569	1.696327	1.321510
H	-0.533380	-9.146471	0.712022
H	0.067771	-9.150570	-0.980494
H	-0.361406	-1.444158	1.017696
$end

$rem
JOBTYPE		SP
EXCHANGE	HF
CORRELATION	pRIMP2
BASIS		cc-pvtz
METHOD		rimp2
AUX_BASIS	rimp2-cc-pvtz
SOLVENT_METHOD	PCM
PURECART	11111
SYMMETRY	false
MEM_TOTAL	110000
SCF_CONVERGENCE = 6
THRESH=10
GUI = 2
$end

$solvent
dielectric 4.90
$end
--------------------------------------------------------------

             Standard Nuclear Orientation (Angstroms)
    I     Atom           X                Y                Z
 ----------------------------------------------------------------
    1      C      -0.2353060000    -8.5197410000    -0.1366470000
    2      C       0.7723340000    -7.6359670000     0.2213460000
    3      S      -1.7022860000    -7.6517400000    -0.6507460000
    4      C       0.4088070000    -6.2618940000     0.0907790000
    5      H       1.7614230000    -7.9547380000     0.5737540000
    6      C      -0.9328760000    -6.0799850000    -0.3977350000
    7      C      -1.4790690000    -4.7983820000    -0.5681660000
    8      C       1.2412040000    -5.1535420000     0.4183470000
    9      C       0.6932060000    -3.8696260000     0.2518520000
   10      C      -0.6489210000    -3.6889270000    -0.2398720000
   11      O       2.4934370000    -5.4810750000     0.8424860000
   12      O      -2.7373310000    -4.4798710000    -0.9930920000
   13      C      -3.4161100000    -5.3560260000    -1.8847520000
   14      H      -4.2844470000    -4.7904960000    -2.2731240000
   15      H      -3.7933520000    -6.2685130000    -1.3733100000
   16      H      -2.7667160000    -5.6581870000    -2.7347020000
   17      C       3.2645810000    -4.5469990000     1.5880300000
   18      H       4.1365190000    -5.1075640000     1.9749950000
   19      H       2.6904390000    -4.1314730000     2.4438430000
   20      H       3.6361770000    -3.7120850000     0.9551400000
   21      C      -1.0098480000    -2.3143260000    -0.3670680000
   22      S       1.4599360000    -2.2954870000     0.5173860000
   23      C       0.0000000000    -1.4351800000     0.0000000000
   24      H      -1.9973080000    -1.9932110000    -0.7216890000
   25      C       0.0000000000     0.0000000000     0.0000000000
   26      S       0.7800440000     0.4477800000     1.5107320000
   27      C       2.1437740000     1.2363720000     0.7276290000
   28      C       0.7865290000     0.4541370000    -1.0646650000
   29      C       1.9884990000     1.1498440000    -0.6782870000
   30      C       0.7298640000     0.4195120000    -2.4861500000
   31      C       1.8251770000     1.0520410000    -3.1069160000
   32      S       2.9038770000     1.6786800000    -1.9657350000
   33      C       2.0478960000     1.1752320000    -4.5599720000
   34      O       1.2409530000     0.7058970000    -5.3502770000
   35      O       3.1607910000     1.8140240000    -5.0043750000
   36      F      -0.2330390000    -0.1409400000    -3.2462900000
   37      C       3.4765100000     1.9845850000    -6.3349760000
   38      H       4.4337350000     2.5365450000    -6.3702680000
   39      H       2.6938350000     2.5615030000    -6.8756090000
   40      H       3.5882390000     1.0111130000    -6.8618780000
   41      H       2.9405690000     1.6963270000     1.3215100000
   42      H      -0.5333800000    -9.1464710000     0.7120220000
   43      H       0.0677710000    -9.1505700000    -0.9804940000
   44      H      -0.3614060000    -1.4441580000     1.0176960000
 ----------------------------------------------------------------

   11   -2755.2556359009      7.37e-07  Convergence criterion met
 Total energy in the final basis set =    -2755.2556359009
        RIMP2         total energy =     -2760.3666552947 a.u.

                    Orbital Energies (a.u.)
 --------------------------------------------------------------

 Alpha MOs
 -- Occupied --
-92.0168 -92.0076 -91.9683 -91.9543 -26.3353 -20.6167 -20.5848 -20.5835
-20.5585 -11.4175 -11.3761 -11.3297 -11.3145 -11.3063 -11.3011 -11.3011
-11.2931 -11.2909 -11.2828 -11.2807 -11.2787 -11.2721 -11.2699 -11.2681
-11.2670 -11.2547 -11.2489 -11.2460 -11.2293  -9.0164  -9.0110  -8.9713
 -8.9569  -6.6970  -6.6960  -6.6960  -6.6921  -6.6915  -6.6903  -6.6524
 -6.6515  -6.6502  -6.6382  -6.6372  -6.6362  -1.6484  -1.4770  -1.4073
 -1.4062  -1.3734  -1.2491  -1.2063  -1.1736  -1.1468  -1.0955  -1.0555
 -1.0421  -1.0356  -1.0055  -0.9933  -0.9772  -0.9596  -0.9460  -0.9388
 -0.8905  -0.8780  -0.8569  -0.8085  -0.7977  -0.7831  -0.7802  -0.7714
 -0.7612  -0.7339  -0.7198  -0.7178  -0.6975  -0.6937  -0.6824  -0.6787
 -0.6780  -0.6649  -0.6535  -0.6462  -0.6318  -0.6287  -0.6165  -0.6129
 -0.6125  -0.6107  -0.6044  -0.5903  -0.5729  -0.5619  -0.5590  -0.5524
 -0.5389  -0.5360  -0.5293  -0.5222  -0.5113  -0.5063  -0.5051  -0.4981
 -0.4909  -0.4832  -0.4760  -0.4684  -0.4652  -0.4629  -0.4526  -0.4428
 -0.4200  -0.3958  -0.3845  -0.3657  -0.3450  -0.3047  -0.2844  -0.2154

          Ground-State Mulliken Net Atomic Charges

     Atom                 Charge (a.u.)
  ----------------------------------------
      1 C                    -0.069175
      2 C                    -0.280212
      3 S                    -0.143543
      4 C                    -0.041706
      5 H                     0.190352
      6 C                    -0.056331
      7 C                     0.226536
      8 C                     0.220554
      9 C                    -0.079865
     10 C                    -0.053517
     11 O                    -0.336277
     12 O                    -0.342890
     13 C                    -0.082295
     14 H                     0.119470
     15 H                     0.091338
     16 H                     0.092814
     17 C                    -0.086363
     18 H                     0.122432
     19 H                     0.090009
     20 H                     0.088852
     21 C                    -0.281818
     22 S                    -0.095111
     23 C                     0.023398
     24 H                     0.205154
     25 C                    -0.176666
     26 S                     0.124658
     27 C                    -0.142532
     28 C                     0.005535
     29 C                    -0.030449
     30 C                     0.354268
     31 C                    -0.115938
     32 S                     0.076496
     33 C                     0.457453
     34 O                    -0.436277
     35 O                    -0.296190
     36 F                    -0.210358
     37 C                    -0.054776
     38 H                     0.117670
     39 H                     0.085912
     40 H                     0.086155
     41 H                     0.222871
     42 H                     0.114160
     43 H                     0.112048
     44 H                     0.184154
  ----------------------------------------
  Sum of atomic charges =     0.000000

                    Cartesian Multipole Moments
 -----------------------------------------------------------------
    Charge (ESU x 10^10)
                 0.0000
    Dipole Moment (Debye)
         X       5.1120      Y       4.8655      Z       3.0376
       Tot       7.6833
    Quadrupole Moments (Debye-Ang)
        XX    -174.9021     XY       6.7271     YY    -198.1056
        XZ      -2.3258     YZ      -7.2179     ZZ    -193.9497

 Total job time:  338.90s(wall), 11093.77s(cpu)
        *  Thank you very much for using Q-Chem.  Have a nice day.  *
