 Q-Chem 5.4, Q-Chem, Inc., Pleasanton, CA (2021)
 Q-Chem 5.4.0 for Intel X86 EM64T Linux

User input:
--------------------------------------------------------------
$molecule
0 1
C	-0.174379	-8.519741	-0.208886
C	0.650052	-7.635967	0.472151
S	-1.377058	-7.651740	-1.193717
C	0.353105	-6.261894	0.225125
H	1.458961	-7.954738	1.141594
C	-0.740583	-6.079985	-0.692811
C	-1.195546	-4.798382	-1.039773
C	1.023267	-5.153542	0.817634
C	0.565262	-3.869626	0.473754
C	-0.527745	-3.688927	-0.447350
O	2.054917	-5.481075	1.644483
O	-2.232592	-4.479871	-1.869424
C	-2.565470	-5.356026	-2.939466
H	-3.248608	-4.790496	-3.601405
H	-3.094885	-6.268513	-2.587892
H	-1.664539	-5.658187	-3.516052
C	2.524564	-4.546999	2.608813
H	3.211568	-5.107564	3.270661
H	1.692342	-4.131473	3.216646
H	3.090211	-3.712085	2.141184
C	-0.823402	-2.314326	-0.690319
S	1.194935	-2.295487	0.985511
C	0.000000	-1.435180	0.000000
H	-1.630024	-1.993211	-1.361286
C	0.000000	0.000000	0.000000
S	0.309721	0.844422	1.510732
C	0.847502	2.325108	0.727629
C	0.310602	0.853460	-1.064665
C	0.784173	2.159014	-0.678287
C	0.289451	0.790512	-2.486150
C	0.721927	1.979112	-3.106916
S	1.145464	3.152519	-1.965735
C	0.813355	2.216642	-4.559972
O	0.496884	1.338418	-5.350277
O	1.255274	3.421340	-5.004375
F	-0.087923	-0.257761	-3.246290
C	1.387494	3.754937	-6.334976
H	1.765978	4.793056	-6.370268
H	0.417095	3.693789	-6.875609
H	2.098820	3.081033	-6.861878
H	1.162229	3.189623	1.321510
H	-0.744739	-9.146471	0.486655
H	0.399033	-9.150570	-0.898184
H	-0.687683	-1.444158	0.832713
$end

$rem
JOBTYPE		SP
EXCHANGE	HF
CORRELATION	pRIMP2
BASIS		cc-pvtz
METHOD		rimp2
AUX_BASIS	rimp2-cc-pvtz
SOLVENT_METHOD	PCM
PURECART	11111
SYMMETRY	false
MEM_TOTAL	110000
SCF_CONVERGENCE = 6
THRESH=10
GUI = 2
$end

$solvent
dielectric 4.90
$end
--------------------------------------------------------------

             Standard Nuclear Orientation (Angstroms)
    I     Atom           X                Y                Z
 ----------------------------------------------------------------
    1      C      -0.1743790000    -8.5197410000    -0.2088860000
    2      C       0.6500520000    -7.6359670000     0.4721510000
    3      S      -1.3770580000    -7.6517400000    -1.1937170000
    4      C       0.3531050000    -6.2618940000     0.2251250000
    5      H       1.4589610000    -7.9547380000     1.1415940000
    6      C      -0.7405830000    -6.0799850000    -0.6928110000
    7      C      -1.1955460000    -4.7983820000    -1.0397730000
    8      C       1.0232670000    -5.1535420000     0.8176340000
    9      C       0.5652620000    -3.8696260000     0.4737540000
   10      C      -0.5277450000    -3.6889270000    -0.4473500000
   11      O       2.0549170000    -5.4810750000     1.6444830000
   12      O      -2.2325920000    -4.4798710000    -1.8694240000
   13      C      -2.5654700000    -5.3560260000    -2.9394660000
   14      H      -3.2486080000    -4.7904960000    -3.6014050000
   15      H      -3.0948850000    -6.2685130000    -2.5878920000
   16      H      -1.6645390000    -5.6581870000    -3.5160520000
   17      C       2.5245640000    -4.5469990000     2.6088130000
   18      H       3.2115680000    -5.1075640000     3.2706610000
   19      H       1.6923420000    -4.1314730000     3.2166460000
   20      H       3.0902110000    -3.7120850000     2.1411840000
   21      C      -0.8234020000    -2.3143260000    -0.6903190000
   22      S       1.1949350000    -2.2954870000     0.9855110000
   23      C       0.0000000000    -1.4351800000     0.0000000000
   24      H      -1.6300240000    -1.9932110000    -1.3612860000
   25      C       0.0000000000     0.0000000000     0.0000000000
   26      S       0.3097210000     0.8444220000     1.5107320000
   27      C       0.8475020000     2.3251080000     0.7276290000
   28      C       0.3106020000     0.8534600000    -1.0646650000
   29      C       0.7841730000     2.1590140000    -0.6782870000
   30      C       0.2894510000     0.7905120000    -2.4861500000
   31      C       0.7219270000     1.9791120000    -3.1069160000
   32      S       1.1454640000     3.1525190000    -1.9657350000
   33      C       0.8133550000     2.2166420000    -4.5599720000
   34      O       0.4968840000     1.3384180000    -5.3502770000
   35      O       1.2552740000     3.4213400000    -5.0043750000
   36      F      -0.0879230000    -0.2577610000    -3.2462900000
   37      C       1.3874940000     3.7549370000    -6.3349760000
   38      H       1.7659780000     4.7930560000    -6.3702680000
   39      H       0.4170950000     3.6937890000    -6.8756090000
   40      H       2.0988200000     3.0810330000    -6.8618780000
   41      H       1.1622290000     3.1896230000     1.3215100000
   42      H      -0.7447390000    -9.1464710000     0.4866550000
   43      H       0.3990330000    -9.1505700000    -0.8981840000
   44      H      -0.6876830000    -1.4441580000     0.8327130000
 ----------------------------------------------------------------

   11   -2755.3188894283      7.70e-07  Convergence criterion met
 Total energy in the final basis set =    -2755.3188894283
        RIMP2         total energy =     -2760.4119082748 a.u.

                    Orbital Energies (a.u.)
 --------------------------------------------------------------

 Alpha MOs
 -- Occupied --
-92.0176 -91.9955 -91.9796 -91.9576 -26.3363 -20.6127 -20.5870 -20.5865
-20.5509 -11.4111 -11.3782 -11.3122 -11.3087 -11.3071 -11.2988 -11.2978
-11.2963 -11.2888 -11.2849 -11.2832 -11.2819 -11.2811 -11.2811 -11.2728
-11.2723 -11.2579 -11.2573 -11.2491 -11.2359  -9.0162  -8.9996  -8.9819
 -8.9603  -6.6969  -6.6964  -6.6959  -6.6808  -6.6801  -6.6788  -6.6629
 -6.6620  -6.6607  -6.6415  -6.6406  -6.6395  -1.6492  -1.4725  -1.4103
 -1.4084  -1.3679  -1.2386  -1.2093  -1.1751  -1.1442  -1.0991  -1.0504
 -1.0460  -1.0308  -1.0088  -0.9979  -0.9727  -0.9597  -0.9484  -0.9402
 -0.8937  -0.8719  -0.8641  -0.8075  -0.7958  -0.7854  -0.7774  -0.7721
 -0.7647  -0.7325  -0.7219  -0.7173  -0.6972  -0.6926  -0.6820  -0.6791
 -0.6729  -0.6650  -0.6563  -0.6482  -0.6352  -0.6299  -0.6195  -0.6142
 -0.6109  -0.6071  -0.5959  -0.5929  -0.5787  -0.5670  -0.5585  -0.5526
 -0.5478  -0.5366  -0.5306  -0.5228  -0.5136  -0.5075  -0.5048  -0.5003
 -0.4864  -0.4853  -0.4773  -0.4729  -0.4625  -0.4618  -0.4596  -0.4457
 -0.4268  -0.4004  -0.3853  -0.3700  -0.3514  -0.2935  -0.2868  -0.2186

          Ground-State Mulliken Net Atomic Charges

     Atom                 Charge (a.u.)
  ----------------------------------------
      1 C                    -0.069960
      2 C                    -0.263168
      3 S                    -0.136091
      4 C                    -0.043107
      5 H                     0.192993
      6 C                    -0.052039
      7 C                     0.223151
      8 C                     0.222877
      9 C                    -0.077006
     10 C                    -0.049849
     11 O                    -0.334677
     12 O                    -0.343403
     13 C                    -0.082273
     14 H                     0.120437
     15 H                     0.091430
     16 H                     0.093258
     17 C                    -0.087354
     18 H                     0.123579
     19 H                     0.091921
     20 H                     0.089913
     21 C                    -0.258809
     22 S                    -0.069578
     23 C                     0.058645
     24 H                     0.205519
     25 C                    -0.096696
     26 S                     0.092749
     27 C                    -0.225929
     28 C                    -0.043468
     29 C                    -0.010837
     30 C                     0.369889
     31 C                    -0.144868
     32 S                     0.039471
     33 C                     0.458369
     34 O                    -0.449136
     35 O                    -0.297753
     36 F                    -0.211911
     37 C                    -0.054920
     38 H                     0.116731
     39 H                     0.084621
     40 H                     0.084726
     41 H                     0.216377
     42 H                     0.116817
     43 H                     0.114767
     44 H                     0.194594
  ----------------------------------------
  Sum of atomic charges =     0.000000

                    Cartesian Multipole Moments
 -----------------------------------------------------------------
    Charge (ESU x 10^10)
                -0.0000
    Dipole Moment (Debye)
         X       0.9712      Y       3.5697      Z       3.7303
       Tot       5.2537
    Quadrupole Moments (Debye-Ang)
        XX    -194.6616     XY       2.2978     YY    -177.3812
        XZ       4.4866     YZ     -12.4433     ZZ    -192.3831

 Total job time:  322.61s(wall), 10510.47s(cpu)
        *  Thank you very much for using Q-Chem.  Have a nice day.  *
