 Q-Chem 5.4, Q-Chem, Inc., Pleasanton, CA (2021)
 Q-Chem 5.4.0 for Intel X86 EM64T Linux

User input:
--------------------------------------------------------------
$molecule
0 1
C	0.174379	-8.519741	0.208886
C	-0.650052	-7.635967	-0.472151
S	1.377058	-7.651740	1.193717
C	-0.353105	-6.261894	-0.225125
H	-1.458961	-7.954738	-1.141594
C	0.740583	-6.079985	0.692811
C	1.195546	-4.798382	1.039773
C	-1.023267	-5.153542	-0.817634
C	-0.565262	-3.869626	-0.473754
C	0.527745	-3.688927	0.447350
O	-2.054917	-5.481075	-1.644483
O	2.232592	-4.479871	1.869424
C	2.565470	-5.356026	2.939466
H	3.248608	-4.790496	3.601405
H	3.094885	-6.268513	2.587892
H	1.664539	-5.658187	3.516052
C	-2.524564	-4.546999	-2.608813
H	-3.211568	-5.107564	-3.270661
H	-1.692342	-4.131473	-3.216646
H	-3.090211	-3.712085	-2.141184
C	0.823402	-2.314326	0.690319
S	-1.194935	-2.295487	-0.985511
C	0.000000	-1.435180	0.000000
H	1.630024	-1.993211	1.361286
C	0.000000	0.000000	0.000000
S	0.309721	0.844422	1.510732
C	0.847502	2.325108	0.727629
C	0.310602	0.853460	-1.064665
C	0.784173	2.159014	-0.678287
C	0.289451	0.790512	-2.486150
C	0.721927	1.979112	-3.106916
S	1.145464	3.152519	-1.965735
C	0.813355	2.216642	-4.559972
O	0.496884	1.338418	-5.350277
O	1.255274	3.421340	-5.004375
F	-0.087923	-0.257761	-3.246290
C	1.387494	3.754937	-6.334976
H	1.765978	4.793056	-6.370268
H	0.417095	3.693789	-6.875609
H	2.098820	3.081033	-6.861878
H	1.162229	3.189623	1.321510
H	0.744739	-9.146471	-0.486655
H	-0.399033	-9.150570	0.898184
H	0.687683	-1.444158	-0.832713
$end

$rem
JOBTYPE		SP
EXCHANGE	HF
CORRELATION	pRIMP2
BASIS		cc-pvtz
METHOD		rimp2
AUX_BASIS	rimp2-cc-pvtz
SOLVENT_METHOD	PCM
PURECART	11111
SYMMETRY	false
MEM_TOTAL	110000
SCF_CONVERGENCE = 6
THRESH=10
GUI = 2
$end

$solvent
dielectric 4.90
$end
--------------------------------------------------------------

             Standard Nuclear Orientation (Angstroms)
    I     Atom           X                Y                Z
 ----------------------------------------------------------------
    1      C       0.1743790000    -8.5197410000     0.2088860000
    2      C      -0.6500520000    -7.6359670000    -0.4721510000
    3      S       1.3770580000    -7.6517400000     1.1937170000
    4      C      -0.3531050000    -6.2618940000    -0.2251250000
    5      H      -1.4589610000    -7.9547380000    -1.1415940000
    6      C       0.7405830000    -6.0799850000     0.6928110000
    7      C       1.1955460000    -4.7983820000     1.0397730000
    8      C      -1.0232670000    -5.1535420000    -0.8176340000
    9      C      -0.5652620000    -3.8696260000    -0.4737540000
   10      C       0.5277450000    -3.6889270000     0.4473500000
   11      O      -2.0549170000    -5.4810750000    -1.6444830000
   12      O       2.2325920000    -4.4798710000     1.8694240000
   13      C       2.5654700000    -5.3560260000     2.9394660000
   14      H       3.2486080000    -4.7904960000     3.6014050000
   15      H       3.0948850000    -6.2685130000     2.5878920000
   16      H       1.6645390000    -5.6581870000     3.5160520000
   17      C      -2.5245640000    -4.5469990000    -2.6088130000
   18      H      -3.2115680000    -5.1075640000    -3.2706610000
   19      H      -1.6923420000    -4.1314730000    -3.2166460000
   20      H      -3.0902110000    -3.7120850000    -2.1411840000
   21      C       0.8234020000    -2.3143260000     0.6903190000
   22      S      -1.1949350000    -2.2954870000    -0.9855110000
   23      C       0.0000000000    -1.4351800000     0.0000000000
   24      H       1.6300240000    -1.9932110000     1.3612860000
   25      C       0.0000000000     0.0000000000     0.0000000000
   26      S       0.3097210000     0.8444220000     1.5107320000
   27      C       0.8475020000     2.3251080000     0.7276290000
   28      C       0.3106020000     0.8534600000    -1.0646650000
   29      C       0.7841730000     2.1590140000    -0.6782870000
   30      C       0.2894510000     0.7905120000    -2.4861500000
   31      C       0.7219270000     1.9791120000    -3.1069160000
   32      S       1.1454640000     3.1525190000    -1.9657350000
   33      C       0.8133550000     2.2166420000    -4.5599720000
   34      O       0.4968840000     1.3384180000    -5.3502770000
   35      O       1.2552740000     3.4213400000    -5.0043750000
   36      F      -0.0879230000    -0.2577610000    -3.2462900000
   37      C       1.3874940000     3.7549370000    -6.3349760000
   38      H       1.7659780000     4.7930560000    -6.3702680000
   39      H       0.4170950000     3.6937890000    -6.8756090000
   40      H       2.0988200000     3.0810330000    -6.8618780000
   41      H       1.1622290000     3.1896230000     1.3215100000
   42      H       0.7447390000    -9.1464710000    -0.4866550000
   43      H      -0.3990330000    -9.1505700000     0.8981840000
   44      H       0.6876830000    -1.4441580000    -0.8327130000
 ----------------------------------------------------------------

   11   -2755.3192200514      7.37e-07  Convergence criterion met
 Total energy in the final basis set =    -2755.3192200514
        RIMP2         total energy =     -2760.4137337666 a.u.

                    Orbital Energies (a.u.)
 --------------------------------------------------------------

 Alpha MOs
 -- Occupied --
-92.0160 -91.9961 -91.9755 -91.9587 -26.3362 -20.6126 -20.5875 -20.5864
-20.5505 -11.4109 -11.3787 -11.3165 -11.3092 -11.3070 -11.2981 -11.2980
-11.2922 -11.2889 -11.2834 -11.2832 -11.2827 -11.2825 -11.2817 -11.2738
-11.2727 -11.2592 -11.2583 -11.2500 -11.2377  -9.0143  -9.0001  -8.9779
 -8.9613  -6.6951  -6.6945  -6.6941  -6.6813  -6.6806  -6.6793  -6.6590
 -6.6581  -6.6568  -6.6425  -6.6416  -6.6406  -1.6497  -1.4723  -1.4101
 -1.4090  -1.3677  -1.2397  -1.2087  -1.1758  -1.1438  -1.0999  -1.0517
 -1.0459  -1.0297  -1.0082  -0.9981  -0.9725  -0.9595  -0.9485  -0.9408
 -0.8932  -0.8741  -0.8620  -0.8114  -0.7923  -0.7857  -0.7793  -0.7673
 -0.7623  -0.7333  -0.7190  -0.7179  -0.6978  -0.6928  -0.6870  -0.6790
 -0.6761  -0.6726  -0.6553  -0.6485  -0.6320  -0.6297  -0.6203  -0.6150
 -0.6104  -0.6068  -0.5963  -0.5937  -0.5802  -0.5653  -0.5586  -0.5573
 -0.5516  -0.5313  -0.5283  -0.5208  -0.5131  -0.5078  -0.5040  -0.5002
 -0.4878  -0.4852  -0.4783  -0.4679  -0.4618  -0.4617  -0.4603  -0.4461
 -0.4285  -0.3995  -0.3846  -0.3702  -0.3506  -0.2930  -0.2868  -0.2188

          Ground-State Mulliken Net Atomic Charges

     Atom                 Charge (a.u.)
  ----------------------------------------
      1 C                    -0.070268
      2 C                    -0.257046
      3 S                    -0.134439
      4 C                    -0.045961
      5 H                     0.193990
      6 C                    -0.050988
      7 C                     0.221002
      8 C                     0.231925
      9 C                    -0.082156
     10 C                    -0.048030
     11 O                    -0.335591
     12 O                    -0.343872
     13 C                    -0.082451
     14 H                     0.119867
     15 H                     0.092026
     16 H                     0.092778
     17 C                    -0.087126
     18 H                     0.122906
     19 H                     0.093844
     20 H                     0.089732
     21 C                    -0.267710
     22 S                    -0.066135
     23 C                     0.049149
     24 H                     0.209253
     25 C                    -0.049886
     26 S                     0.098171
     27 C                    -0.242597
     28 C                    -0.094171
     29 C                    -0.002915
     30 C                     0.363844
     31 C                    -0.137044
     32 S                     0.042750
     33 C                     0.458301
     34 O                    -0.450460
     35 O                    -0.297998
     36 F                    -0.210422
     37 C                    -0.054935
     38 H                     0.116721
     39 H                     0.084632
     40 H                     0.084461
     41 H                     0.214553
     42 H                     0.117890
     43 H                     0.115420
     44 H                     0.198986
  ----------------------------------------
  Sum of atomic charges =     0.000000

                    Cartesian Multipole Moments
 -----------------------------------------------------------------
    Charge (ESU x 10^10)
                -0.0000
    Dipole Moment (Debye)
         X       1.4523      Y       3.0124      Z       2.6149
       Tot       4.2452
    Quadrupole Moments (Debye-Ang)
        XX    -194.7973     XY       7.9419     YY    -174.9665
        XZ       4.4607     YZ      -7.6502     ZZ    -192.6694

 Total job time:  392.34s(wall), 10724.37s(cpu)
        *  Thank you very much for using Q-Chem.  Have a nice day.  *
