 Q-Chem 5.4, Q-Chem, Inc., Pleasanton, CA (2021)
 Q-Chem 5.4.0 for Intel X86 EM64T Linux

User input:
--------------------------------------------------------------
$molecule
0 1
C	0.046574	-8.519741	0.268090
C	-0.326886	-7.635967	-0.733920
S	0.595708	-7.651740	1.722318
C	-0.193236	-6.261894	-0.371516
H	-0.692700	-7.954738	-1.718130
C	0.294958	-6.079985	0.970283
C	0.515487	-4.798382	1.498243
C	-0.477358	-5.153542	-1.219725
C	-0.252655	-3.869626	-0.692914
C	0.233366	-3.688927	0.651289
O	-0.957369	-5.481075	-2.451623
O	0.998769	-4.479871	2.735264
C	0.752029	-5.356026	3.828387
H	1.012675	-4.790496	4.743213
H	1.386303	-6.268513	3.788623
H	-0.316492	-5.658187	3.877260
C	-0.881930	-4.546999	-3.521580
H	-1.145969	-5.107564	-4.438260
H	0.142712	-4.131473	-3.631868
H	-1.605610	-3.712085	-3.399425
C	0.367928	-2.314326	1.009535
S	-0.542088	-2.295487	-1.450945
C	0.000000	-1.435180	0.000000
H	0.730999	-1.993211	1.993920
C	0.000000	0.000000	0.000000
S	0.780044	0.447780	1.510732
C	2.143774	1.236372	0.727629
C	0.786529	0.454137	-1.064665
C	1.988499	1.149844	-0.678287
C	0.729864	0.419512	-2.486150
C	1.825177	1.052041	-3.106916
S	2.903877	1.678680	-1.965735
C	2.047896	1.175232	-4.559972
O	1.240953	0.705897	-5.350277
O	3.160791	1.814024	-5.004375
F	-0.233039	-0.140940	-3.246290
C	3.476510	1.984585	-6.334976
H	4.433735	2.536545	-6.370268
H	2.693835	2.561503	-6.875609
H	3.588239	1.011113	-6.861878
H	2.940569	1.696327	1.321510
H	0.888291	-9.146471	-0.049086
H	-0.794665	-9.150570	0.578334
H	1.011908	-1.444158	-0.377309
$end

$rem
JOBTYPE		SP
EXCHANGE	HF
CORRELATION	pRIMP2
BASIS		cc-pvtz
METHOD		rimp2
AUX_BASIS	rimp2-cc-pvtz
SOLVENT_METHOD	PCM
PURECART	11111
SYMMETRY	false
MEM_TOTAL	110000
SCF_CONVERGENCE = 6
THRESH=10
GUI = 2
$end

$solvent
dielectric 4.90
$end
--------------------------------------------------------------

             Standard Nuclear Orientation (Angstroms)
    I     Atom           X                Y                Z
 ----------------------------------------------------------------
    1      C       0.0465740000    -8.5197410000     0.2680900000
    2      C      -0.3268860000    -7.6359670000    -0.7339200000
    3      S       0.5957080000    -7.6517400000     1.7223180000
    4      C      -0.1932360000    -6.2618940000    -0.3715160000
    5      H      -0.6927000000    -7.9547380000    -1.7181300000
    6      C       0.2949580000    -6.0799850000     0.9702830000
    7      C       0.5154870000    -4.7983820000     1.4982430000
    8      C      -0.4773580000    -5.1535420000    -1.2197250000
    9      C      -0.2526550000    -3.8696260000    -0.6929140000
   10      C       0.2333660000    -3.6889270000     0.6512890000
   11      O      -0.9573690000    -5.4810750000    -2.4516230000
   12      O       0.9987690000    -4.4798710000     2.7352640000
   13      C       0.7520290000    -5.3560260000     3.8283870000
   14      H       1.0126750000    -4.7904960000     4.7432130000
   15      H       1.3863030000    -6.2685130000     3.7886230000
   16      H      -0.3164920000    -5.6581870000     3.8772600000
   17      C      -0.8819300000    -4.5469990000    -3.5215800000
   18      H      -1.1459690000    -5.1075640000    -4.4382600000
   19      H       0.1427120000    -4.1314730000    -3.6318680000
   20      H      -1.6056100000    -3.7120850000    -3.3994250000
   21      C       0.3679280000    -2.3143260000     1.0095350000
   22      S      -0.5420880000    -2.2954870000    -1.4509450000
   23      C       0.0000000000    -1.4351800000     0.0000000000
   24      H       0.7309990000    -1.9932110000     1.9939200000
   25      C       0.0000000000     0.0000000000     0.0000000000
   26      S       0.7800440000     0.4477800000     1.5107320000
   27      C       2.1437740000     1.2363720000     0.7276290000
   28      C       0.7865290000     0.4541370000    -1.0646650000
   29      C       1.9884990000     1.1498440000    -0.6782870000
   30      C       0.7298640000     0.4195120000    -2.4861500000
   31      C       1.8251770000     1.0520410000    -3.1069160000
   32      S       2.9038770000     1.6786800000    -1.9657350000
   33      C       2.0478960000     1.1752320000    -4.5599720000
   34      O       1.2409530000     0.7058970000    -5.3502770000
   35      O       3.1607910000     1.8140240000    -5.0043750000
   36      F      -0.2330390000    -0.1409400000    -3.2462900000
   37      C       3.4765100000     1.9845850000    -6.3349760000
   38      H       4.4337350000     2.5365450000    -6.3702680000
   39      H       2.6938350000     2.5615030000    -6.8756090000
   40      H       3.5882390000     1.0111130000    -6.8618780000
   41      H       2.9405690000     1.6963270000     1.3215100000
   42      H       0.8882910000    -9.1464710000    -0.0490860000
   43      H      -0.7946650000    -9.1505700000     0.5783340000
   44      H       1.0119080000    -1.4441580000    -0.3773090000
 ----------------------------------------------------------------

   11   -2755.2444176983      9.02e-07  Convergence criterion met
 Total energy in the final basis set =    -2755.2444176983
        RIMP2         total energy =     -2760.3647094056 a.u.

                    Orbital Energies (a.u.)
 --------------------------------------------------------------

 Alpha MOs
 -- Occupied --
-92.0186 -92.0049 -91.9700 -91.9565 -26.3344 -20.6145 -20.5866 -20.5844
-20.5540 -11.4139 -11.3777 -11.3183 -11.3077 -11.3058 -11.3041 -11.3036
-11.2904 -11.2900 -11.2870 -11.2826 -11.2817 -11.2792 -11.2789 -11.2699
-11.2694 -11.2562 -11.2526 -11.2480 -11.2335  -9.0179  -9.0084  -8.9730
 -8.9591  -6.6985  -6.6976  -6.6976  -6.6896  -6.6889  -6.6877  -6.6539
 -6.6531  -6.6518  -6.6403  -6.6394  -6.6384  -1.6493  -1.4745  -1.4088
 -1.4073  -1.3703  -1.2532  -1.2076  -1.1758  -1.1471  -1.0978  -1.0563
 -1.0440  -1.0345  -1.0053  -0.9964  -0.9760  -0.9582  -0.9480  -0.9409
 -0.8917  -0.8786  -0.8550  -0.8145  -0.7964  -0.7859  -0.7774  -0.7641
 -0.7580  -0.7322  -0.7218  -0.7169  -0.7005  -0.6932  -0.6882  -0.6808
 -0.6777  -0.6756  -0.6538  -0.6471  -0.6346  -0.6280  -0.6184  -0.6140
 -0.6104  -0.6093  -0.6043  -0.5941  -0.5734  -0.5665  -0.5602  -0.5566
 -0.5486  -0.5342  -0.5282  -0.5217  -0.5112  -0.5069  -0.5048  -0.4985
 -0.4874  -0.4842  -0.4749  -0.4647  -0.4637  -0.4592  -0.4525  -0.4445
 -0.4297  -0.3969  -0.3777  -0.3683  -0.3518  -0.3000  -0.2854  -0.2117

          Ground-State Mulliken Net Atomic Charges

     Atom                 Charge (a.u.)
  ----------------------------------------
      1 C                    -0.069503
      2 C                    -0.268600
      3 S                    -0.140713
      4 C                    -0.042415
      5 H                     0.192508
      6 C                    -0.050845
      7 C                     0.222290
      8 C                     0.221418
      9 C                    -0.067885
     10 C                    -0.047717
     11 O                    -0.335621
     12 O                    -0.344918
     13 C                    -0.082796
     14 H                     0.119104
     15 H                     0.092128
     16 H                     0.092954
     17 C                    -0.086877
     18 H                     0.122622
     19 H                     0.091503
     20 H                     0.091213
     21 C                    -0.277639
     22 S                    -0.101693
     23 C                     0.076224
     24 H                     0.200321
     25 C                    -0.140598
     26 S                     0.121371
     27 C                    -0.188036
     28 C                    -0.042621
     29 C                    -0.026321
     30 C                     0.349351
     31 C                    -0.121503
     32 S                     0.072257
     33 C                     0.457726
     34 O                    -0.444565
     35 O                    -0.297844
     36 F                    -0.208273
     37 C                    -0.054796
     38 H                     0.117127
     39 H                     0.085289
     40 H                     0.085072
     41 H                     0.221189
     42 H                     0.116045
     43 H                     0.113812
     44 H                     0.180253
  ----------------------------------------
  Sum of atomic charges =     0.000000

                    Cartesian Multipole Moments
 -----------------------------------------------------------------
    Charge (ESU x 10^10)
                -0.0000
    Dipole Moment (Debye)
         X       4.9078      Y       3.3073      Z       2.7378
       Tot       6.5208
    Quadrupole Moments (Debye-Ang)
        XX    -187.1650     XY      10.0563     YY    -191.7301
        XZ      -9.8772     YZ      -2.0641     ZZ    -185.3331

 Total job time:  344.39s(wall), 10964.86s(cpu)
        *  Thank you very much for using Q-Chem.  Have a nice day.  *
