 Q-Chem 5.4, Q-Chem, Inc., Pleasanton, CA (2021)
 Q-Chem 5.4.0 for Intel X86 EM64T Linux

User input:
--------------------------------------------------------------
$molecule
0 1
C	0.208002	-8.519741	0.175432
C	-0.722164	-7.635967	-0.352097
S	1.563424	-7.651740	0.936458
C	-0.386833	-6.261894	-0.160388
H	-1.635031	-7.954738	-0.870905
C	0.849637	-6.079985	0.553685
C	1.357938	-4.798382	0.816372
C	-1.149702	-5.153542	-0.627524
C	-0.638941	-3.869626	-0.368399
C	0.597409	-3.688927	0.348912
O	-2.309260	-5.481075	-1.262667
O	2.523296	-4.479871	1.453338
C	3.036927	-5.356026	2.449320
H	3.824632	-4.790496	2.982577
H	3.497250	-6.268513	2.011155
H	2.249807	-5.658187	3.173591
C	-2.939226	-4.546999	-2.130793
H	-3.730721	-5.107564	-2.663289
H	-2.225196	-4.131473	-2.873906
H	-3.415077	-3.712085	-1.572045
C	0.930765	-2.314326	0.536849
S	-1.347913	-2.295487	-0.763041
C	0.000000	-1.435180	0.000000
H	1.841645	-1.993211	1.057554
C	0.000000	0.000000	0.000000
S	0.234946	0.868203	1.510732
C	0.641630	2.390125	0.727629
C	0.235036	0.877284	-1.064665
C	0.593019	2.219143	-0.678287
C	0.219452	0.812732	-2.486150
C	0.546689	2.034501	-3.106916
S	0.866345	3.240357	-1.965735
C	0.617067	2.279095	-4.559972
O	0.378342	1.376631	-5.350277
O	0.952308	3.517725	-5.004375
F	-0.065123	-0.264443	-3.246290
C	1.054950	3.861577	-6.334976
H	1.341516	4.928732	-6.370268
H	0.093573	3.716085	-6.875609
H	1.822303	3.252232	-6.861878
H	0.879812	3.278780	1.321510
H	0.648918	-9.146471	-0.608584
H	-0.237003	-9.150570	0.953830
H	0.532637	-1.444158	-0.939477
$end

$rem
JOBTYPE		SP
EXCHANGE	HF
CORRELATION	pRIMP2
BASIS		cc-pvtz
METHOD		rimp2
AUX_BASIS	rimp2-cc-pvtz
SOLVENT_METHOD	PCM
PURECART	11111
SYMMETRY	false
MEM_TOTAL	110000
SCF_CONVERGENCE = 6
THRESH=10
GUI = 2
$end

$solvent
dielectric 4.90
$end
--------------------------------------------------------------

             Standard Nuclear Orientation (Angstroms)
    I     Atom           X                Y                Z
 ----------------------------------------------------------------
    1      C       0.2080020000    -8.5197410000     0.1754320000
    2      C      -0.7221640000    -7.6359670000    -0.3520970000
    3      S       1.5634240000    -7.6517400000     0.9364580000
    4      C      -0.3868330000    -6.2618940000    -0.1603880000
    5      H      -1.6350310000    -7.9547380000    -0.8709050000
    6      C       0.8496370000    -6.0799850000     0.5536850000
    7      C       1.3579380000    -4.7983820000     0.8163720000
    8      C      -1.1497020000    -5.1535420000    -0.6275240000
    9      C      -0.6389410000    -3.8696260000    -0.3683990000
   10      C       0.5974090000    -3.6889270000     0.3489120000
   11      O      -2.3092600000    -5.4810750000    -1.2626670000
   12      O       2.5232960000    -4.4798710000     1.4533380000
   13      C       3.0369270000    -5.3560260000     2.4493200000
   14      H       3.8246320000    -4.7904960000     2.9825770000
   15      H       3.4972500000    -6.2685130000     2.0111550000
   16      H       2.2498070000    -5.6581870000     3.1735910000
   17      C      -2.9392260000    -4.5469990000    -2.1307930000
   18      H      -3.7307210000    -5.1075640000    -2.6632890000
   19      H      -2.2251960000    -4.1314730000    -2.8739060000
   20      H      -3.4150770000    -3.7120850000    -1.5720450000
   21      C       0.9307650000    -2.3143260000     0.5368490000
   22      S      -1.3479130000    -2.2954870000    -0.7630410000
   23      C       0.0000000000    -1.4351800000     0.0000000000
   24      H       1.8416450000    -1.9932110000     1.0575540000
   25      C       0.0000000000     0.0000000000     0.0000000000
   26      S       0.2349460000     0.8682030000     1.5107320000
   27      C       0.6416300000     2.3901250000     0.7276290000
   28      C       0.2350360000     0.8772840000    -1.0646650000
   29      C       0.5930190000     2.2191430000    -0.6782870000
   30      C       0.2194520000     0.8127320000    -2.4861500000
   31      C       0.5466890000     2.0345010000    -3.1069160000
   32      S       0.8663450000     3.2403570000    -1.9657350000
   33      C       0.6170670000     2.2790950000    -4.5599720000
   34      O       0.3783420000     1.3766310000    -5.3502770000
   35      O       0.9523080000     3.5177250000    -5.0043750000
   36      F      -0.0651230000    -0.2644430000    -3.2462900000
   37      C       1.0549500000     3.8615770000    -6.3349760000
   38      H       1.3415160000     4.9287320000    -6.3702680000
   39      H       0.0935730000     3.7160850000    -6.8756090000
   40      H       1.8223030000     3.2522320000    -6.8618780000
   41      H       0.8798120000     3.2787800000     1.3215100000
   42      H       0.6489180000    -9.1464710000    -0.6085840000
   43      H      -0.2370030000    -9.1505700000     0.9538300000
   44      H       0.5326370000    -1.4441580000    -0.9394770000
 ----------------------------------------------------------------

   11   -2755.3238497907      7.34e-07  Convergence criterion met
 Total energy in the final basis set =    -2755.3238497907
        RIMP2         total energy =     -2760.4168296803 a.u.

                    Orbital Energies (a.u.)
 --------------------------------------------------------------

 Alpha MOs
 -- Occupied --
-92.0150 -91.9964 -91.9760 -91.9585 -26.3375 -20.6130 -20.5874 -20.5865
-20.5512 -11.4115 -11.3791 -11.3151 -11.3091 -11.3071 -11.2993 -11.2979
-11.2938 -11.2890 -11.2837 -11.2836 -11.2831 -11.2827 -11.2817 -11.2736
-11.2727 -11.2589 -11.2582 -11.2499 -11.2375  -9.0134  -9.0004  -8.9784
 -8.9611  -6.6941  -6.6936  -6.6932  -6.6817  -6.6810  -6.6796  -6.6595
 -6.6586  -6.6573  -6.6424  -6.6415  -6.6404  -1.6507  -1.4727  -1.4101
 -1.4090  -1.3682  -1.2394  -1.2086  -1.1755  -1.1437  -1.1000  -1.0519
 -1.0458  -1.0297  -1.0085  -0.9979  -0.9727  -0.9595  -0.9486  -0.9410
 -0.8931  -0.8743  -0.8624  -0.8110  -0.7926  -0.7855  -0.7804  -0.7681
 -0.7627  -0.7335  -0.7192  -0.7188  -0.6978  -0.6925  -0.6874  -0.6794
 -0.6762  -0.6731  -0.6552  -0.6484  -0.6312  -0.6298  -0.6202  -0.6150
 -0.6105  -0.6072  -0.5962  -0.5938  -0.5818  -0.5651  -0.5582  -0.5564
 -0.5516  -0.5316  -0.5281  -0.5211  -0.5131  -0.5077  -0.5038  -0.5004
 -0.4881  -0.4854  -0.4781  -0.4685  -0.4624  -0.4620  -0.4603  -0.4460
 -0.4266  -0.4010  -0.3851  -0.3701  -0.3504  -0.2930  -0.2877  -0.2197

          Ground-State Mulliken Net Atomic Charges

     Atom                 Charge (a.u.)
  ----------------------------------------
      1 C                    -0.070349
      2 C                    -0.257120
      3 S                    -0.134387
      4 C                    -0.045925
      5 H                     0.193847
      6 C                    -0.050960
      7 C                     0.221267
      8 C                     0.232259
      9 C                    -0.083394
     10 C                    -0.053096
     11 O                    -0.335480
     12 O                    -0.343794
     13 C                    -0.082439
     14 H                     0.119838
     15 H                     0.092053
     16 H                     0.092710
     17 C                    -0.086861
     18 H                     0.122809
     19 H                     0.093870
     20 H                     0.089696
     21 C                    -0.250038
     22 S                    -0.067573
     23 C                     0.045030
     24 H                     0.209763
     25 C                    -0.065830
     26 S                     0.099489
     27 C                    -0.239280
     28 C                    -0.090355
     29 C                    -0.004064
     30 C                     0.368130
     31 C                    -0.134327
     32 S                     0.042487
     33 C                     0.458707
     34 O                    -0.449482
     35 O                    -0.297698
     36 F                    -0.212686
     37 C                    -0.055008
     38 H                     0.116817
     39 H                     0.084752
     40 H                     0.084625
     41 H                     0.214723
     42 H                     0.117856
     43 H                     0.115297
     44 H                     0.194122
  ----------------------------------------
  Sum of atomic charges =     0.000000

                    Cartesian Multipole Moments
 -----------------------------------------------------------------
    Charge (ESU x 10^10)
                -0.0000
    Dipole Moment (Debye)
         X       1.0952      Y       3.2774      Z       2.5600
       Tot       4.3005
    Quadrupole Moments (Debye-Ang)
        XX    -192.4811     XY       7.2688     YY    -174.0910
        XZ       6.3070     YZ      -8.7770     ZZ    -195.5561

 Total job time:  574.28s(wall), 11117.36s(cpu)
        *  Thank you very much for using Q-Chem.  Have a nice day.  *
