 Q-Chem 5.4, Q-Chem, Inc., Pleasanton, CA (2021)
 Q-Chem 5.4.0 for Intel X86 EM64T Linux

User input:
--------------------------------------------------------------
$molecule
0 1
C	-0.255929	-8.519741	0.092419
C	0.666007	-7.635967	-0.449364
S	-1.592708	-7.651740	0.885736
C	0.332317	-6.261894	-0.254813
H	1.571741	-7.954738	-0.980526
C	-0.904324	-6.079985	0.458965
C	-1.385968	-4.798382	0.767823
C	1.118303	-5.153542	-0.681909
C	0.638514	-3.869626	-0.369139
C	-0.600871	-3.688927	0.342916
O	2.248132	-5.481075	-1.368544
O	-2.520275	-4.479871	1.458570
C	-3.639637	-5.356026	1.405396
H	-4.495304	-4.790496	1.820940
H	-3.490336	-6.268513	2.023129
H	-3.873314	-5.658187	0.361595
C	3.314934	-4.546999	-1.480048
H	4.171837	-5.107564	-1.899255
H	3.601473	-4.131473	-0.490123
H	3.068969	-3.712085	-2.171521
C	-0.930308	-2.314326	0.537642
S	1.334769	-2.295487	-0.785807
C	-0.000000	-1.435180	-0.000000
H	-1.836691	-1.993211	1.066134
C	0.000000	0.000000	0.000000
S	0.158383	0.885376	1.510732
C	0.430876	2.436951	0.727629
C	0.157682	0.894430	-1.064665
C	0.397351	2.262384	-0.678287
C	0.147783	0.828765	-2.486150
C	0.367291	2.074406	-3.106916
S	0.580633	3.303533	-1.965735
C	0.416083	2.324204	-4.559972
O	0.256921	1.404367	-5.350277
O	0.642094	3.587338	-5.004375
F	-0.041828	-0.269113	-3.246290
C	0.714377	3.938827	-6.334976
H	0.906844	5.026898	-6.370268
H	-0.230661	3.710099	-6.875609
H	1.531918	3.398681	-6.861878
H	0.590699	3.342984	1.321510
H	0.202590	-9.146471	0.866272
H	-0.707539	-9.150570	-0.682165
H	0.547293	-1.444158	0.931016
$end

$rem
JOBTYPE		SP
EXCHANGE	HF
CORRELATION	pRIMP2
BASIS		cc-pvtz
METHOD		rimp2
AUX_BASIS	rimp2-cc-pvtz
SOLVENT_METHOD	PCM
PURECART	11111
SYMMETRY	false
MEM_TOTAL	110000
SCF_CONVERGENCE = 6
THRESH=10
GUI = 2
$end

$solvent
dielectric 4.90
$end
--------------------------------------------------------------

             Standard Nuclear Orientation (Angstroms)
    I     Atom           X                Y                Z
 ----------------------------------------------------------------
    1      C      -0.2559290000    -8.5197410000     0.0924190000
    2      C       0.6660070000    -7.6359670000    -0.4493640000
    3      S      -1.5927080000    -7.6517400000     0.8857360000
    4      C       0.3323170000    -6.2618940000    -0.2548130000
    5      H       1.5717410000    -7.9547380000    -0.9805260000
    6      C      -0.9043240000    -6.0799850000     0.4589650000
    7      C      -1.3859680000    -4.7983820000     0.7678230000
    8      C       1.1183030000    -5.1535420000    -0.6819090000
    9      C       0.6385140000    -3.8696260000    -0.3691390000
   10      C      -0.6008710000    -3.6889270000     0.3429160000
   11      O       2.2481320000    -5.4810750000    -1.3685440000
   12      O      -2.5202750000    -4.4798710000     1.4585700000
   13      C      -3.6396370000    -5.3560260000     1.4053960000
   14      H      -4.4953040000    -4.7904960000     1.8209400000
   15      H      -3.4903360000    -6.2685130000     2.0231290000
   16      H      -3.8733140000    -5.6581870000     0.3615950000
   17      C       3.3149340000    -4.5469990000    -1.4800480000
   18      H       4.1718370000    -5.1075640000    -1.8992550000
   19      H       3.6014730000    -4.1314730000    -0.4901230000
   20      H       3.0689690000    -3.7120850000    -2.1715210000
   21      C      -0.9303080000    -2.3143260000     0.5376420000
   22      S       1.3347690000    -2.2954870000    -0.7858070000
   23      C       0.0000000000    -1.4351800000     0.0000000000
   24      H      -1.8366910000    -1.9932110000     1.0661340000
   25      C       0.0000000000     0.0000000000     0.0000000000
   26      S       0.1583830000     0.8853760000     1.5107320000
   27      C       0.4308760000     2.4369510000     0.7276290000
   28      C       0.1576820000     0.8944300000    -1.0646650000
   29      C       0.3973510000     2.2623840000    -0.6782870000
   30      C       0.1477830000     0.8287650000    -2.4861500000
   31      C       0.3672910000     2.0744060000    -3.1069160000
   32      S       0.5806330000     3.3035330000    -1.9657350000
   33      C       0.4160830000     2.3242040000    -4.5599720000
   34      O       0.2569210000     1.4043670000    -5.3502770000
   35      O       0.6420940000     3.5873380000    -5.0043750000
   36      F      -0.0418280000    -0.2691130000    -3.2462900000
   37      C       0.7143770000     3.9388270000    -6.3349760000
   38      H       0.9068440000     5.0268980000    -6.3702680000
   39      H      -0.2306610000     3.7100990000    -6.8756090000
   40      H       1.5319180000     3.3986810000    -6.8618780000
   41      H       0.5906990000     3.3429840000     1.3215100000
   42      H       0.2025900000    -9.1464710000     0.8662720000
   43      H      -0.7075390000    -9.1505700000    -0.6821650000
   44      H       0.5472930000    -1.4441580000     0.9310160000
 ----------------------------------------------------------------

   11   -2755.3243591164      8.03e-07  Convergence criterion met
 Total energy in the final basis set =    -2755.3243591164
        RIMP2         total energy =     -2760.4144704996 a.u.

                    Orbital Energies (a.u.)
 --------------------------------------------------------------

 Alpha MOs
 -- Occupied --
-92.0172 -91.9946 -91.9784 -91.9582 -26.3347 -20.6124 -20.5874 -20.5867
-20.5503 -11.4106 -11.3782 -11.3158 -11.3091 -11.3073 -11.2978 -11.2974
-11.2941 -11.2886 -11.2842 -11.2832 -11.2829 -11.2821 -11.2810 -11.2731
-11.2729 -11.2582 -11.2582 -11.2496 -11.2369  -9.0157  -8.9987  -8.9805
 -8.9608  -6.6965  -6.6959  -6.6954  -6.6800  -6.6793  -6.6780  -6.6616
 -6.6607  -6.6595  -6.6421  -6.6411  -6.6401  -1.6477  -1.4720  -1.4103
 -1.4090  -1.3673  -1.2384  -1.2095  -1.1756  -1.1441  -1.0994  -1.0504
 -1.0458  -1.0312  -1.0084  -0.9979  -0.9723  -0.9597  -0.9486  -0.9406
 -0.8935  -0.8711  -0.8647  -0.8100  -0.7924  -0.7854  -0.7765  -0.7725
 -0.7656  -0.7331  -0.7210  -0.7158  -0.6970  -0.6924  -0.6822  -0.6787
 -0.6720  -0.6655  -0.6563  -0.6486  -0.6363  -0.6287  -0.6200  -0.6149
 -0.6108  -0.6066  -0.5956  -0.5928  -0.5818  -0.5645  -0.5625  -0.5570
 -0.5496  -0.5344  -0.5279  -0.5215  -0.5128  -0.5076  -0.5033  -0.5017
 -0.4866  -0.4852  -0.4775  -0.4698  -0.4617  -0.4614  -0.4611  -0.4467
 -0.4253  -0.4020  -0.3858  -0.3705  -0.3514  -0.2928  -0.2876  -0.2197

          Ground-State Mulliken Net Atomic Charges

     Atom                 Charge (a.u.)
  ----------------------------------------
      1 C                    -0.070094
      2 C                    -0.258994
      3 S                    -0.135654
      4 C                    -0.044968
      5 H                     0.193567
      6 C                    -0.050158
      7 C                     0.223959
      8 C                     0.225125
      9 C                    -0.073396
     10 C                    -0.036371
     11 O                    -0.334778
     12 O                    -0.343719
     13 C                    -0.082539
     14 H                     0.119841
     15 H                     0.091930
     16 H                     0.093303
     17 C                    -0.087083
     18 H                     0.123415
     19 H                     0.091918
     20 H                     0.091337
     21 C                    -0.286476
     22 S                    -0.075152
     23 C                     0.096057
     24 H                     0.203642
     25 C                    -0.066507
     26 S                     0.098188
     27 C                    -0.241762
     28 C                    -0.118236
     29 C                    -0.002886
     30 C                     0.400823
     31 C                    -0.153549
     32 S                     0.036065
     33 C                     0.461189
     34 O                    -0.449511
     35 O                    -0.297843
     36 F                    -0.211160
     37 C                    -0.055038
     38 H                     0.116569
     39 H                     0.084710
     40 H                     0.084586
     41 H                     0.215735
     42 H                     0.117331
     43 H                     0.115283
     44 H                     0.191299
  ----------------------------------------
  Sum of atomic charges =     0.000000

                    Cartesian Multipole Moments
 -----------------------------------------------------------------
    Charge (ESU x 10^10)
                -0.0000
    Dipole Moment (Debye)
         X       1.0502      Y       3.3741      Z       3.6000
       Tot       5.0446
    Quadrupole Moments (Debye-Ang)
        XX    -183.1886     XY      -0.6281     YY    -174.7187
        XZ      -5.5512     YZ      -8.4601     ZZ    -205.4911

 Total job time:  330.56s(wall), 10285.68s(cpu)
        *  Thank you very much for using Q-Chem.  Have a nice day.  *
