 Q-Chem 5.4, Q-Chem, Inc., Pleasanton, CA (2021)
 Q-Chem 5.4.0 for Intel X86 EM64T Linux

User input:
--------------------------------------------------------------
$molecule
0 1
C	-0.000687	-8.519741	0.272104
C	-0.194476	-7.635967	-0.779533
S	0.287581	-7.651740	1.799596
C	-0.125787	-6.261894	-0.399427
H	-0.383826	-7.954738	-1.812314
C	0.121989	-6.079985	1.006762
C	0.247488	-4.798382	1.564994
C	-0.258303	-5.153542	-1.284087
C	-0.128493	-3.869626	-0.726260
C	0.116725	-3.688927	0.681918
O	-0.517104	-5.481075	-2.580622
O	0.508622	-4.479871	2.867144
C	0.075811	-5.356026	3.900814
H	0.173640	-4.790496	4.847002
H	0.707354	-6.268513	3.971794
H	-0.984963	-5.658187	3.763397
C	-0.257016	-4.546999	-3.621225
H	-0.357864	-5.107564	-4.569828
H	0.771211	-4.131473	-3.551910
H	-0.990913	-3.712085	-3.626592
C	0.187034	-2.314326	1.058088
S	-0.281899	-2.295487	-1.523035
C	-0.000000	-1.435180	-0.000000
H	0.373653	-1.993211	2.090565
C	0.000000	0.000000	0.000000
S	0.451648	0.777811	1.510732
C	1.238377	2.142617	0.727629
C	0.454085	0.786559	-1.064665
C	1.147169	1.990043	-0.678287
C	0.422325	0.728240	-2.486150
C	1.054629	1.823683	-3.106916
S	1.675491	2.905718	-1.965735
C	1.185914	2.041729	-4.559972
O	0.721749	1.231802	-5.350277
O	1.830313	3.151386	-5.004375
F	-0.131347	-0.238577	-3.246290
C	2.018453	3.456956	-6.334976
H	2.571455	4.413580	-6.370268
H	1.052178	3.565244	-6.875609
H	2.601950	2.669768	-6.861878
H	1.698444	2.939346	1.321510
H	0.883319	-9.146471	0.105910
H	-0.883019	-9.150570	0.431555
H	1.062054	-1.444158	-0.195861
$end

$rem
JOBTYPE		SP
EXCHANGE	HF
CORRELATION	pRIMP2
BASIS		cc-pvtz
METHOD		rimp2
AUX_BASIS	rimp2-cc-pvtz
SOLVENT_METHOD	PCM
PURECART	11111
SYMMETRY	false
MEM_TOTAL	110000
SCF_CONVERGENCE = 6
THRESH=10
GUI = 2
$end

$solvent
dielectric 4.90
$end
--------------------------------------------------------------

             Standard Nuclear Orientation (Angstroms)
    I     Atom           X                Y                Z
 ----------------------------------------------------------------
    1      C      -0.0006870000    -8.5197410000     0.2721040000
    2      C      -0.1944760000    -7.6359670000    -0.7795330000
    3      S       0.2875810000    -7.6517400000     1.7995960000
    4      C      -0.1257870000    -6.2618940000    -0.3994270000
    5      H      -0.3838260000    -7.9547380000    -1.8123140000
    6      C       0.1219890000    -6.0799850000     1.0067620000
    7      C       0.2474880000    -4.7983820000     1.5649940000
    8      C      -0.2583030000    -5.1535420000    -1.2840870000
    9      C      -0.1284930000    -3.8696260000    -0.7262600000
   10      C       0.1167250000    -3.6889270000     0.6819180000
   11      O      -0.5171040000    -5.4810750000    -2.5806220000
   12      O       0.5086220000    -4.4798710000     2.8671440000
   13      C       0.0758110000    -5.3560260000     3.9008140000
   14      H       0.1736400000    -4.7904960000     4.8470020000
   15      H       0.7073540000    -6.2685130000     3.9717940000
   16      H      -0.9849630000    -5.6581870000     3.7633970000
   17      C      -0.2570160000    -4.5469990000    -3.6212250000
   18      H      -0.3578640000    -5.1075640000    -4.5698280000
   19      H       0.7712110000    -4.1314730000    -3.5519100000
   20      H      -0.9909130000    -3.7120850000    -3.6265920000
   21      C       0.1870340000    -2.3143260000     1.0580880000
   22      S      -0.2818990000    -2.2954870000    -1.5230350000
   23      C       0.0000000000    -1.4351800000     0.0000000000
   24      H       0.3736530000    -1.9932110000     2.0905650000
   25      C       0.0000000000     0.0000000000     0.0000000000
   26      S       0.4516480000     0.7778110000     1.5107320000
   27      C       1.2383770000     2.1426170000     0.7276290000
   28      C       0.4540850000     0.7865590000    -1.0646650000
   29      C       1.1471690000     1.9900430000    -0.6782870000
   30      C       0.4223250000     0.7282400000    -2.4861500000
   31      C       1.0546290000     1.8236830000    -3.1069160000
   32      S       1.6754910000     2.9057180000    -1.9657350000
   33      C       1.1859140000     2.0417290000    -4.5599720000
   34      O       0.7217490000     1.2318020000    -5.3502770000
   35      O       1.8303130000     3.1513860000    -5.0043750000
   36      F      -0.1313470000    -0.2385770000    -3.2462900000
   37      C       2.0184530000     3.4569560000    -6.3349760000
   38      H       2.5714550000     4.4135800000    -6.3702680000
   39      H       1.0521780000     3.5652440000    -6.8756090000
   40      H       2.6019500000     2.6697680000    -6.8618780000
   41      H       1.6984440000     2.9393460000     1.3215100000
   42      H       0.8833190000    -9.1464710000     0.1059100000
   43      H      -0.8830190000    -9.1505700000     0.4315550000
   44      H       1.0620540000    -1.4441580000    -0.1958610000
 ----------------------------------------------------------------

   11   -2755.3069799949      6.13e-07  Convergence criterion met
 Total energy in the final basis set =    -2755.3069799949
        RIMP2         total energy =     -2760.4049999567 a.u.

                    Orbital Energies (a.u.)
 --------------------------------------------------------------

 Alpha MOs
 -- Occupied --
-92.0137 -91.9933 -91.9747 -91.9606 -26.3351 -20.6110 -20.5880 -20.5880
-20.5477 -11.4085 -11.3788 -11.3214 -11.3105 -11.3096 -11.2975 -11.2929
-11.2881 -11.2866 -11.2861 -11.2838 -11.2836 -11.2815 -11.2763 -11.2762
-11.2700 -11.2620 -11.2599 -11.2521 -11.2428  -9.0125  -8.9974  -8.9775
 -8.9631  -6.6933  -6.6926  -6.6921  -6.6787  -6.6780  -6.6767  -6.6584
 -6.6576  -6.6562  -6.6444  -6.6434  -6.6424  -1.6508  -1.4706  -1.4114
 -1.4098  -1.3656  -1.2405  -1.2091  -1.1782  -1.1440  -1.0998  -1.0514
 -1.0469  -1.0297  -1.0076  -0.9998  -0.9718  -0.9597  -0.9496  -0.9405
 -0.8947  -0.8724  -0.8619  -0.8132  -0.7955  -0.7861  -0.7763  -0.7656
 -0.7614  -0.7336  -0.7211  -0.7176  -0.6986  -0.6954  -0.6850  -0.6778
 -0.6746  -0.6725  -0.6562  -0.6491  -0.6363  -0.6295  -0.6223  -0.6156
 -0.6109  -0.6050  -0.5976  -0.5927  -0.5759  -0.5676  -0.5633  -0.5591
 -0.5493  -0.5325  -0.5294  -0.5208  -0.5135  -0.5087  -0.5045  -0.4998
 -0.4845  -0.4832  -0.4790  -0.4649  -0.4606  -0.4592  -0.4589  -0.4480
 -0.4318  -0.3994  -0.3841  -0.3722  -0.3512  -0.2935  -0.2840  -0.2180

          Ground-State Mulliken Net Atomic Charges

     Atom                 Charge (a.u.)
  ----------------------------------------
      1 C                    -0.071226
      2 C                    -0.242011
      3 S                    -0.130490
      4 C                    -0.049813
      5 H                     0.196017
      6 C                    -0.046093
      7 C                     0.216778
      8 C                     0.233647
      9 C                    -0.077880
     10 C                    -0.027940
     11 O                    -0.334530
     12 O                    -0.344018
     13 C                    -0.082736
     14 H                     0.120085
     15 H                     0.092002
     16 H                     0.093023
     17 C                    -0.087858
     18 H                     0.124101
     19 H                     0.093185
     20 H                     0.092048
     21 C                    -0.319232
     22 S                    -0.087008
     23 C                     0.083997
     24 H                     0.199030
     25 C                     0.021670
     26 S                     0.083806
     27 C                    -0.257300
     28 C                    -0.133504
     29 C                    -0.015645
     30 C                     0.370112
     31 C                    -0.143058
     32 S                     0.038998
     33 C                     0.457660
     34 O                    -0.454962
     35 O                    -0.298817
     36 F                    -0.208202
     37 C                    -0.055014
     38 H                     0.116409
     39 H                     0.084157
     40 H                     0.083948
     41 H                     0.214834
     42 H                     0.119890
     43 H                     0.117585
     44 H                     0.214359
  ----------------------------------------
  Sum of atomic charges =     0.000000

                    Cartesian Multipole Moments
 -----------------------------------------------------------------
    Charge (ESU x 10^10)
                 0.0000
    Dipole Moment (Debye)
         X       2.0352      Y       1.2198      Z       2.8597
       Tot       3.7159
    Quadrupole Moments (Debye-Ang)
        XX    -197.5065     XY       7.1170     YY    -170.2095
        XZ      -7.9290     YZ      -4.0756     ZZ    -189.0182

 Total job time:  385.20s(wall), 14114.72s(cpu)
        *  Thank you very much for using Q-Chem.  Have a nice day.  *
