 Q-Chem 5.4, Q-Chem, Inc., Pleasanton, CA (2021)
 Q-Chem 5.4.0 for Intel X86 EM64T Linux

User input:
--------------------------------------------------------------
$molecule
0 1
C	-8.181783	-2.383936	0.187882
C	-7.593449	-1.128518	0.139491
S	-6.952775	-3.671698	0.218911
C	-6.166465	-1.159226	0.132628
H	-8.164612	-0.192063	0.109019
C	-5.633289	-2.495091	0.187743
C	-4.249617	-2.729199	0.164777
C	-5.317053	-0.018460	0.056590
C	-3.931075	-0.252514	0.029292
C	-3.398678	-1.590024	0.087348
O	-5.964564	1.179721	0.037841
O	-3.609364	-3.935430	0.182582
C	-4.219143	-5.040218	0.839133
H	-3.434018	-5.813979	0.936800
H	-5.060520	-5.467889	0.251170
H	-4.586929	-4.762728	1.850647
C	-5.307138	2.341837	-0.452339
H	-6.088170	3.119755	-0.547647
H	-4.847682	2.163863	-1.448302
H	-4.528642	2.709642	0.250781
C	-1.972092	-1.617219	0.078055
S	-2.609779	0.925851	-0.014657
C	-1.389570	-0.358280	0.021760
H	-1.398841	-2.552228	0.111095
C	0.000000	0.000000	0.000000
S	1.248606	-1.237024	0.045184
C	2.578046	-0.086149	-0.009273
C	0.613130	1.256674	-0.056766
C	2.054408	1.229661	-0.060695
C	0.193391	2.615156	-0.114857
C	1.262800	3.531437	-0.158991
S	2.756033	2.739044	-0.128456
C	1.145817	5.000431	-0.226240
O	0.044347	5.531794	-0.247006
O	2.277086	5.750539	-0.266889
F	-1.075424	3.072206	-0.132595
C	2.291612	7.126856	-0.336240
H	3.352630	7.436815	-0.355020
H	1.783518	7.590897	0.537948
H	1.778157	7.500639	-1.249699
H	3.617334	-0.430990	0.000713
H	-8.795256	-2.569165	-0.701624
H	-8.787505	-2.506624	1.093380
H	-1.405323	-0.398686	-1.057369
$end

$rem
JOBTYPE		SP
EXCHANGE	HF
CORRELATION	pRIMP2
BASIS		cc-pvtz
METHOD		rimp2
AUX_BASIS	rimp2-cc-pvtz
SOLVENT_METHOD	PCM
PURECART	11111
SYMMETRY	false
MEM_TOTAL	110000
SCF_CONVERGENCE = 6
THRESH=10
GUI = 2
$end

$solvent
dielectric 4.90
$end
--------------------------------------------------------------

             Standard Nuclear Orientation (Angstroms)
    I     Atom           X                Y                Z
 ----------------------------------------------------------------
    1      C      -8.1817830000    -2.3839360000     0.1878820000
    2      C      -7.5934490000    -1.1285180000     0.1394910000
    3      S      -6.9527750000    -3.6716980000     0.2189110000
    4      C      -6.1664650000    -1.1592260000     0.1326280000
    5      H      -8.1646120000    -0.1920630000     0.1090190000
    6      C      -5.6332890000    -2.4950910000     0.1877430000
    7      C      -4.2496170000    -2.7291990000     0.1647770000
    8      C      -5.3170530000    -0.0184600000     0.0565900000
    9      C      -3.9310750000    -0.2525140000     0.0292920000
   10      C      -3.3986780000    -1.5900240000     0.0873480000
   11      O      -5.9645640000     1.1797210000     0.0378410000
   12      O      -3.6093640000    -3.9354300000     0.1825820000
   13      C      -4.2191430000    -5.0402180000     0.8391330000
   14      H      -3.4340180000    -5.8139790000     0.9368000000
   15      H      -5.0605200000    -5.4678890000     0.2511700000
   16      H      -4.5869290000    -4.7627280000     1.8506470000
   17      C      -5.3071380000     2.3418370000    -0.4523390000
   18      H      -6.0881700000     3.1197550000    -0.5476470000
   19      H      -4.8476820000     2.1638630000    -1.4483020000
   20      H      -4.5286420000     2.7096420000     0.2507810000
   21      C      -1.9720920000    -1.6172190000     0.0780550000
   22      S      -2.6097790000     0.9258510000    -0.0146570000
   23      C      -1.3895700000    -0.3582800000     0.0217600000
   24      H      -1.3988410000    -2.5522280000     0.1110950000
   25      C       0.0000000000     0.0000000000     0.0000000000
   26      S       1.2486060000    -1.2370240000     0.0451840000
   27      C       2.5780460000    -0.0861490000    -0.0092730000
   28      C       0.6131300000     1.2566740000    -0.0567660000
   29      C       2.0544080000     1.2296610000    -0.0606950000
   30      C       0.1933910000     2.6151560000    -0.1148570000
   31      C       1.2628000000     3.5314370000    -0.1589910000
   32      S       2.7560330000     2.7390440000    -0.1284560000
   33      C       1.1458170000     5.0004310000    -0.2262400000
   34      O       0.0443470000     5.5317940000    -0.2470060000
   35      O       2.2770860000     5.7505390000    -0.2668890000
   36      F      -1.0754240000     3.0722060000    -0.1325950000
   37      C       2.2916120000     7.1268560000    -0.3362400000
   38      H       3.3526300000     7.4368150000    -0.3550200000
   39      H       1.7835180000     7.5908970000     0.5379480000
   40      H       1.7781570000     7.5006390000    -1.2496990000
   41      H       3.6173340000    -0.4309900000     0.0007130000
   42      H      -8.7952560000    -2.5691650000    -0.7016240000
   43      H      -8.7875050000    -2.5066240000     1.0933800000
   44      H      -1.4053230000    -0.3986860000    -1.0573690000
 ----------------------------------------------------------------

   11   -2755.3214343636      7.01e-07  Convergence criterion met
 Total energy in the final basis set =    -2755.3214343636
        RIMP2         total energy =     -2760.4126137649 a.u.

                    Orbital Energies (a.u.)
 --------------------------------------------------------------

 Alpha MOs
 -- Occupied --
-92.0132 -91.9910 -91.9763 -91.9612 -26.3356 -20.6103 -20.5886 -20.5883
-20.5466 -11.4075 -11.3793 -11.3278 -11.3114 -11.3100 -11.2962 -11.2905
-11.2877 -11.2873 -11.2842 -11.2839 -11.2820 -11.2807 -11.2773 -11.2754
-11.2717 -11.2637 -11.2604 -11.2527 -11.2439  -9.0118  -8.9952  -8.9790
 -8.9638  -6.6927  -6.6921  -6.6915  -6.6765  -6.6758  -6.6745  -6.6599
 -6.6591  -6.6576  -6.6450  -6.6441  -6.6430  -1.6516  -1.4698  -1.4120
 -1.4102  -1.3647  -1.2375  -1.2103  -1.1785  -1.1428  -1.1011  -1.0505
 -1.0473  -1.0290  -1.0087  -1.0008  -0.9711  -0.9602  -0.9498  -0.9402
 -0.8954  -0.8723  -0.8638  -0.8133  -0.7960  -0.7864  -0.7766  -0.7665
 -0.7625  -0.7341  -0.7209  -0.7186  -0.6983  -0.6952  -0.6844  -0.6772
 -0.6726  -0.6719  -0.6569  -0.6496  -0.6386  -0.6302  -0.6228  -0.6160
 -0.6109  -0.6041  -0.5971  -0.5908  -0.5773  -0.5683  -0.5647  -0.5594
 -0.5493  -0.5331  -0.5290  -0.5211  -0.5137  -0.5090  -0.5047  -0.4994
 -0.4839  -0.4812  -0.4808  -0.4674  -0.4601  -0.4599  -0.4580  -0.4484
 -0.4320  -0.3998  -0.3859  -0.3728  -0.3508  -0.2933  -0.2832  -0.2193

          Ground-State Mulliken Net Atomic Charges

     Atom                 Charge (a.u.)
  ----------------------------------------
      1 C                    -0.071161
      2 C                    -0.238475
      3 S                    -0.129107
      4 C                    -0.053372
      5 H                     0.196308
      6 C                    -0.046242
      7 C                     0.220192
      8 C                     0.237045
      9 C                    -0.076567
     10 C                    -0.015317
     11 O                    -0.334118
     12 O                    -0.344128
     13 C                    -0.082802
     14 H                     0.120222
     15 H                     0.092159
     16 H                     0.093138
     17 C                    -0.089596
     18 H                     0.125009
     19 H                     0.093274
     20 H                     0.092755
     21 C                    -0.349447
     22 S                    -0.093969
     23 C                     0.173570
     24 H                     0.193947
     25 C                    -0.050919
     26 S                     0.075616
     27 C                    -0.274314
     28 C                    -0.113163
     29 C                    -0.017842
     30 C                     0.397812
     31 C                    -0.148276
     32 S                     0.025103
     33 C                     0.463181
     34 O                    -0.457276
     35 O                    -0.298669
     36 F                    -0.210649
     37 C                    -0.055347
     38 H                     0.116319
     39 H                     0.084048
     40 H                     0.083716
     41 H                     0.214011
     42 H                     0.120273
     43 H                     0.118057
     44 H                     0.215001
  ----------------------------------------
  Sum of atomic charges =     0.000000

                    Cartesian Multipole Moments
 -----------------------------------------------------------------
    Charge (ESU x 10^10)
                -0.0000
    Dipole Moment (Debye)
         X       1.6557      Y      -2.6491      Z      -0.5900
       Tot       3.1792
    Quadrupole Moments (Debye-Ang)
        XX    -169.4441     XY      10.5913     YY    -187.4459
        XZ       0.7571     YZ      -6.1012     ZZ    -199.2359

 Total job time:  339.68s(wall), 10878.65s(cpu)
        *  Thank you very much for using Q-Chem.  Have a nice day.  *
