 Q-Chem 5.4, Q-Chem, Inc., Pleasanton, CA (2021)
 Q-Chem 5.4.0 for Intel X86 EM64T Linux

User input:
--------------------------------------------------------------
$molecule
0 1
C	-0.092419	-8.519741	-0.255929
C	0.449364	-7.635967	0.666007
S	-0.885736	-7.651740	-1.592708
C	0.254813	-6.261894	0.332317
H	0.980526	-7.954738	1.571741
C	-0.458965	-6.079985	-0.904324
C	-0.767823	-4.798382	-1.385968
C	0.681909	-5.153542	1.118303
C	0.369139	-3.869626	0.638514
C	-0.342916	-3.688927	-0.600871
O	1.368544	-5.481075	2.248132
O	-1.458570	-4.479871	-2.520275
C	-1.405396	-5.356026	-3.639637
H	-1.820940	-4.790496	-4.495304
H	-2.023129	-6.268513	-3.490336
H	-0.361595	-5.658187	-3.873314
C	1.480048	-4.546999	3.314934
H	1.899255	-5.107564	4.171837
H	0.490123	-4.131473	3.601473
H	2.171521	-3.712085	3.068969
C	-0.537642	-2.314326	-0.930308
S	0.785807	-2.295487	1.334769
C	-0.000000	-1.435180	-0.000000
H	-1.066134	-1.993211	-1.836691
C	0.000000	0.000000	0.000000
S	0.158383	0.885376	1.510732
C	0.430876	2.436951	0.727629
C	0.157682	0.894430	-1.064665
C	0.397351	2.262384	-0.678287
C	0.147783	0.828765	-2.486150
C	0.367291	2.074406	-3.106916
S	0.580633	3.303533	-1.965735
C	0.416083	2.324204	-4.559972
O	0.256921	1.404367	-5.350277
O	0.642094	3.587338	-5.004375
F	-0.041828	-0.269113	-3.246290
C	0.714377	3.938827	-6.334976
H	0.906844	5.026898	-6.370268
H	-0.230661	3.710099	-6.875609
H	1.531918	3.398681	-6.861878
H	0.590699	3.342984	1.321510
H	-0.866272	-9.146471	0.202590
H	0.682165	-9.150570	-0.707539
H	-0.931016	-1.444158	0.547293
$end

$rem
JOBTYPE		SP
EXCHANGE	HF
CORRELATION	pRIMP2
BASIS		cc-pvtz
METHOD		rimp2
AUX_BASIS	rimp2-cc-pvtz
SOLVENT_METHOD	PCM
PURECART	11111
SYMMETRY	false
MEM_TOTAL	110000
SCF_CONVERGENCE = 6
THRESH=10
GUI = 2
$end

$solvent
dielectric 4.90
$end
--------------------------------------------------------------

             Standard Nuclear Orientation (Angstroms)
    I     Atom           X                Y                Z
 ----------------------------------------------------------------
    1      C      -0.0924190000    -8.5197410000    -0.2559290000
    2      C       0.4493640000    -7.6359670000     0.6660070000
    3      S      -0.8857360000    -7.6517400000    -1.5927080000
    4      C       0.2548130000    -6.2618940000     0.3323170000
    5      H       0.9805260000    -7.9547380000     1.5717410000
    6      C      -0.4589650000    -6.0799850000    -0.9043240000
    7      C      -0.7678230000    -4.7983820000    -1.3859680000
    8      C       0.6819090000    -5.1535420000     1.1183030000
    9      C       0.3691390000    -3.8696260000     0.6385140000
   10      C      -0.3429160000    -3.6889270000    -0.6008710000
   11      O       1.3685440000    -5.4810750000     2.2481320000
   12      O      -1.4585700000    -4.4798710000    -2.5202750000
   13      C      -1.4053960000    -5.3560260000    -3.6396370000
   14      H      -1.8209400000    -4.7904960000    -4.4953040000
   15      H      -2.0231290000    -6.2685130000    -3.4903360000
   16      H      -0.3615950000    -5.6581870000    -3.8733140000
   17      C       1.4800480000    -4.5469990000     3.3149340000
   18      H       1.8992550000    -5.1075640000     4.1718370000
   19      H       0.4901230000    -4.1314730000     3.6014730000
   20      H       2.1715210000    -3.7120850000     3.0689690000
   21      C      -0.5376420000    -2.3143260000    -0.9303080000
   22      S       0.7858070000    -2.2954870000     1.3347690000
   23      C       0.0000000000    -1.4351800000     0.0000000000
   24      H      -1.0661340000    -1.9932110000    -1.8366910000
   25      C       0.0000000000     0.0000000000     0.0000000000
   26      S       0.1583830000     0.8853760000     1.5107320000
   27      C       0.4308760000     2.4369510000     0.7276290000
   28      C       0.1576820000     0.8944300000    -1.0646650000
   29      C       0.3973510000     2.2623840000    -0.6782870000
   30      C       0.1477830000     0.8287650000    -2.4861500000
   31      C       0.3672910000     2.0744060000    -3.1069160000
   32      S       0.5806330000     3.3035330000    -1.9657350000
   33      C       0.4160830000     2.3242040000    -4.5599720000
   34      O       0.2569210000     1.4043670000    -5.3502770000
   35      O       0.6420940000     3.5873380000    -5.0043750000
   36      F      -0.0418280000    -0.2691130000    -3.2462900000
   37      C       0.7143770000     3.9388270000    -6.3349760000
   38      H       0.9068440000     5.0268980000    -6.3702680000
   39      H      -0.2306610000     3.7100990000    -6.8756090000
   40      H       1.5319180000     3.3986810000    -6.8618780000
   41      H       0.5906990000     3.3429840000     1.3215100000
   42      H      -0.8662720000    -9.1464710000     0.2025900000
   43      H       0.6821650000    -9.1505700000    -0.7075390000
   44      H      -0.9310160000    -1.4441580000     0.5472930000
 ----------------------------------------------------------------

   11   -2755.3245084966      7.60e-07  Convergence criterion met
 Total energy in the final basis set =    -2755.3245084966
        RIMP2         total energy =     -2760.4151107030 a.u.

                    Orbital Energies (a.u.)
 --------------------------------------------------------------

 Alpha MOs
 -- Occupied --
-92.0155 -91.9930 -91.9828 -91.9590 -26.3377 -20.6116 -20.5889 -20.5870
-20.5487 -11.4093 -11.3792 -11.3218 -11.3105 -11.3096 -11.2968 -11.2945
-11.2883 -11.2878 -11.2860 -11.2852 -11.2850 -11.2821 -11.2781 -11.2742
-11.2724 -11.2601 -11.2594 -11.2506 -11.2395  -9.0142  -8.9971  -8.9850
 -8.9616  -6.6950  -6.6944  -6.6938  -6.6784  -6.6777  -6.6764  -6.6661
 -6.6652  -6.6639  -6.6428  -6.6419  -6.6409  -1.6510  -1.4712  -1.4122
 -1.4089  -1.3663  -1.2380  -1.2108  -1.1768  -1.1438  -1.1005  -1.0500
 -1.0477  -1.0295  -1.0100  -0.9997  -0.9719  -0.9600  -0.9497  -0.9406
 -0.8953  -0.8719  -0.8643  -0.8088  -0.7969  -0.7871  -0.7768  -0.7704
 -0.7650  -0.7329  -0.7227  -0.7185  -0.6984  -0.6933  -0.6838  -0.6782
 -0.6720  -0.6678  -0.6575  -0.6491  -0.6386  -0.6306  -0.6210  -0.6152
 -0.6098  -0.6057  -0.5951  -0.5923  -0.5785  -0.5699  -0.5597  -0.5512
 -0.5498  -0.5365  -0.5327  -0.5226  -0.5148  -0.5088  -0.5059  -0.5009
 -0.4852  -0.4842  -0.4800  -0.4721  -0.4622  -0.4609  -0.4590  -0.4469
 -0.4311  -0.3993  -0.3874  -0.3716  -0.3514  -0.2940  -0.2850  -0.2188

          Ground-State Mulliken Net Atomic Charges

     Atom                 Charge (a.u.)
  ----------------------------------------
      1 C                    -0.070578
      2 C                    -0.253187
      3 S                    -0.132865
      4 C                    -0.046500
      5 H                     0.194246
      6 C                    -0.052042
      7 C                     0.226012
      8 C                     0.228094
      9 C                    -0.076353
     10 C                    -0.050919
     11 O                    -0.333663
     12 O                    -0.343004
     13 C                    -0.082566
     14 H                     0.121332
     15 H                     0.091579
     16 H                     0.093051
     17 C                    -0.088089
     18 H                     0.124423
     19 H                     0.092938
     20 H                     0.090095
     21 C                    -0.272812
     22 S                    -0.080808
     23 C                     0.111586
     24 H                     0.204608
     25 C                    -0.112574
     26 S                     0.076710
     27 C                    -0.246204
     28 C                    -0.039962
     29 C                    -0.020582
     30 C                     0.389553
     31 C                    -0.148611
     32 S                     0.030847
     33 C                     0.459879
     34 O                    -0.453463
     35 O                    -0.298215
     36 F                    -0.214501
     37 C                    -0.055069
     38 H                     0.116492
     39 H                     0.084202
     40 H                     0.084349
     41 H                     0.215394
     42 H                     0.118271
     43 H                     0.116142
     44 H                     0.202762
  ----------------------------------------
  Sum of atomic charges =     0.000000

                    Cartesian Multipole Moments
 -----------------------------------------------------------------
    Charge (ESU x 10^10)
                -0.0000
    Dipole Moment (Debye)
         X       0.0690      Y       2.2749      Z       3.8841
       Tot       4.5018
    Quadrupole Moments (Debye-Ang)
        XX    -200.3523     XY       0.4203     YY    -171.4189
        XZ       1.8314     YZ     -13.7097     ZZ    -189.1642

 Total job time:  337.65s(wall), 10363.77s(cpu)
        *  Thank you very much for using Q-Chem.  Have a nice day.  *
