 Q-Chem 5.4, Q-Chem, Inc., Pleasanton, CA (2021)
 Q-Chem 5.4.0 for Intel X86 EM64T Linux

User input:
--------------------------------------------------------------
$molecule
0 1
C	-0.267851	-8.519741	-0.047927
C	0.801461	-7.635967	-0.056157
S	-1.822194	-7.651740	-0.029285
C	0.415201	-6.261894	-0.054516
H	1.851431	-7.954738	-0.063290
C	-1.012650	-6.079985	-0.054687
C	-1.584194	-4.798382	-0.028030
C	1.309433	-5.153542	-0.031399
C	0.737539	-3.869626	-0.000427
C	-0.691828	-3.688927	-0.003462
O	2.631211	-5.481075	-0.061128
O	-2.911907	-4.479871	0.003021
C	-3.854716	-5.356026	-0.602710
H	-4.803517	-4.790496	-0.670671
H	-4.034285	-6.268513	0.006913
H	-3.535185	-5.658187	-1.623507
C	3.610841	-4.546999	0.375708
H	4.562544	-5.107564	0.441115
H	3.364029	-4.131473	1.376277
H	3.743566	-3.712085	-0.346107
C	-1.074491	-2.314326	0.000458
S	1.548848	-2.295487	-0.013144
C	-0.000000	-1.435180	-0.000000
H	-2.123688	-1.993211	0.004953
C	0.000000	0.000000	0.000000
S	0.382139	0.814215	1.510732
C	1.046923	2.242395	0.727629
C	0.383804	0.823142	-1.064665
C	0.969360	2.082453	-0.678287
C	0.357247	0.762277	-2.486150
C	0.891671	1.908660	-3.106916
S	1.415865	3.040689	-1.965735
C	1.003453	2.137318	-4.559972
O	0.611644	1.290019	-5.350277
O	1.548687	3.298916	-5.004375
F	-0.110054	-0.249117	-3.246290
C	1.709479	3.619721	-6.334976
H	2.177001	4.620902	-6.370268
H	0.737443	3.643380	-6.875609
H	2.359363	2.886384	-6.861878
H	1.435800	3.076190	1.321510
H	-0.257688	-9.146471	0.851509
H	-0.271664	-9.150570	-0.944542
H	0.008462	-1.444158	1.079930
$end

$rem
JOBTYPE		SP
EXCHANGE	HF
CORRELATION	pRIMP2
BASIS		cc-pvtz
METHOD		rimp2
AUX_BASIS	rimp2-cc-pvtz
SOLVENT_METHOD	PCM
PURECART	11111
SYMMETRY	false
MEM_TOTAL	110000
SCF_CONVERGENCE = 6
THRESH=10
GUI = 2
$end

$solvent
dielectric 4.90
$end
--------------------------------------------------------------

             Standard Nuclear Orientation (Angstroms)
    I     Atom           X                Y                Z
 ----------------------------------------------------------------
    1      C      -0.2678510000    -8.5197410000    -0.0479270000
    2      C       0.8014610000    -7.6359670000    -0.0561570000
    3      S      -1.8221940000    -7.6517400000    -0.0292850000
    4      C       0.4152010000    -6.2618940000    -0.0545160000
    5      H       1.8514310000    -7.9547380000    -0.0632900000
    6      C      -1.0126500000    -6.0799850000    -0.0546870000
    7      C      -1.5841940000    -4.7983820000    -0.0280300000
    8      C       1.3094330000    -5.1535420000    -0.0313990000
    9      C       0.7375390000    -3.8696260000    -0.0004270000
   10      C      -0.6918280000    -3.6889270000    -0.0034620000
   11      O       2.6312110000    -5.4810750000    -0.0611280000
   12      O      -2.9119070000    -4.4798710000     0.0030210000
   13      C      -3.8547160000    -5.3560260000    -0.6027100000
   14      H      -4.8035170000    -4.7904960000    -0.6706710000
   15      H      -4.0342850000    -6.2685130000     0.0069130000
   16      H      -3.5351850000    -5.6581870000    -1.6235070000
   17      C       3.6108410000    -4.5469990000     0.3757080000
   18      H       4.5625440000    -5.1075640000     0.4411150000
   19      H       3.3640290000    -4.1314730000     1.3762770000
   20      H       3.7435660000    -3.7120850000    -0.3461070000
   21      C      -1.0744910000    -2.3143260000     0.0004580000
   22      S       1.5488480000    -2.2954870000    -0.0131440000
   23      C       0.0000000000    -1.4351800000     0.0000000000
   24      H      -2.1236880000    -1.9932110000     0.0049530000
   25      C       0.0000000000     0.0000000000     0.0000000000
   26      S       0.3821390000     0.8142150000     1.5107320000
   27      C       1.0469230000     2.2423950000     0.7276290000
   28      C       0.3838040000     0.8231420000    -1.0646650000
   29      C       0.9693600000     2.0824530000    -0.6782870000
   30      C       0.3572470000     0.7622770000    -2.4861500000
   31      C       0.8916710000     1.9086600000    -3.1069160000
   32      S       1.4158650000     3.0406890000    -1.9657350000
   33      C       1.0034530000     2.1373180000    -4.5599720000
   34      O       0.6116440000     1.2900190000    -5.3502770000
   35      O       1.5486870000     3.2989160000    -5.0043750000
   36      F      -0.1100540000    -0.2491170000    -3.2462900000
   37      C       1.7094790000     3.6197210000    -6.3349760000
   38      H       2.1770010000     4.6209020000    -6.3702680000
   39      H       0.7374430000     3.6433800000    -6.8756090000
   40      H       2.3593630000     2.8863840000    -6.8618780000
   41      H       1.4358000000     3.0761900000     1.3215100000
   42      H      -0.2576880000    -9.1464710000     0.8515090000
   43      H      -0.2716640000    -9.1505700000    -0.9445420000
   44      H       0.0084620000    -1.4441580000     1.0799300000
 ----------------------------------------------------------------

   11   -2755.3154402086      7.24e-07  Convergence criterion met
 Total energy in the final basis set =    -2755.3154402086
        RIMP2         total energy =     -2760.4092777886 a.u.

                    Orbital Energies (a.u.)
 --------------------------------------------------------------

 Alpha MOs
 -- Occupied --
-92.0190 -91.9975 -91.9768 -91.9570 -26.3353 -20.6135 -20.5865 -20.5860
-20.5524 -11.4123 -11.3774 -11.3083 -11.3059 -11.3046 -11.3023 -11.3019
-11.2981 -11.2892 -11.2840 -11.2833 -11.2822 -11.2821 -11.2789 -11.2713
-11.2711 -11.2572 -11.2551 -11.2485 -11.2348  -9.0174  -9.0015  -8.9790
 -8.9596  -6.6981  -6.6975  -6.6970  -6.6827  -6.6821  -6.6807  -6.6601
 -6.6592  -6.6579  -6.6408  -6.6399  -6.6389  -1.6482  -1.4733  -1.4095
 -1.4082  -1.3689  -1.2395  -1.2081  -1.1745  -1.1446  -1.0981  -1.0510
 -1.0447  -1.0321  -1.0078  -0.9964  -0.9734  -0.9594  -0.9479  -0.9401
 -0.8925  -0.8724  -0.8632  -0.8085  -0.7938  -0.7841  -0.7769  -0.7748
 -0.7646  -0.7330  -0.7212  -0.7166  -0.6965  -0.6929  -0.6807  -0.6796
 -0.6735  -0.6638  -0.6556  -0.6479  -0.6318  -0.6294  -0.6190  -0.6141
 -0.6112  -0.6081  -0.5972  -0.5924  -0.5806  -0.5636  -0.5595  -0.5550
 -0.5466  -0.5355  -0.5283  -0.5219  -0.5122  -0.5068  -0.5040  -0.5006
 -0.4883  -0.4856  -0.4754  -0.4705  -0.4632  -0.4623  -0.4604  -0.4454
 -0.4220  -0.4031  -0.3844  -0.3692  -0.3505  -0.2939  -0.2887  -0.2198

          Ground-State Mulliken Net Atomic Charges

     Atom                 Charge (a.u.)
  ----------------------------------------
      1 C                    -0.069776
      2 C                    -0.265159
      3 S                    -0.138176
      4 C                    -0.042458
      5 H                     0.192725
      6 C                    -0.054144
      7 C                     0.225599
      8 C                     0.223280
      9 C                    -0.074023
     10 C                    -0.047404
     11 O                    -0.334828
     12 O                    -0.343207
     13 C                    -0.082294
     14 H                     0.119731
     15 H                     0.091520
     16 H                     0.093284
     17 C                    -0.086796
     18 H                     0.123123
     19 H                     0.091441
     20 H                     0.090511
     21 C                    -0.260988
     22 S                    -0.071273
     23 C                     0.032155
     24 H                     0.203856
     25 C                    -0.033399
     26 S                     0.104948
     27 C                    -0.223375
     28 C                    -0.113822
     29 C                     0.005260
     30 C                     0.373067
     31 C                    -0.148193
     32 S                     0.047787
     33 C                     0.458380
     34 O                    -0.446050
     35 O                    -0.297479
     36 F                    -0.210803
     37 C                    -0.054893
     38 H                     0.116848
     39 H                     0.084932
     40 H                     0.085046
     41 H                     0.217633
     42 H                     0.116307
     43 H                     0.114299
     44 H                     0.186811
  ----------------------------------------
  Sum of atomic charges =     0.000000

                    Cartesian Multipole Moments
 -----------------------------------------------------------------
    Charge (ESU x 10^10)
                -0.0000
    Dipole Moment (Debye)
         X       1.8532      Y       4.2163      Z       3.6000
       Tot       5.8456
    Quadrupole Moments (Debye-Ang)
        XX    -182.0138     XY       2.8384     YY    -179.7482
        XZ       0.7755     YZ      -9.9982     ZZ    -203.1274

 Total job time:  364.36s(wall), 11666.36s(cpu)
        *  Thank you very much for using Q-Chem.  Have a nice day.  *
