 Q-Chem 5.4, Q-Chem, Inc., Pleasanton, CA (2021)
 Q-Chem 5.4.0 for Intel X86 EM64T Linux

User input:
--------------------------------------------------------------
$molecule
0 1
C	-0.135457	-8.519741	-0.235993
C	0.558188	-7.635967	0.577858
S	-1.148850	-7.651740	-1.414705
C	0.308648	-6.261894	0.283020
H	1.238560	-7.954738	1.377597
C	-0.609026	-6.079985	-0.810887
C	-0.996828	-4.798382	-1.231581
C	0.865740	-5.153542	0.982901
C	0.474408	-3.869626	0.564713
C	-0.442046	-3.688927	-0.532196
O	1.738137	-5.481075	1.976332
O	-1.874052	-4.479871	-2.228709
C	-2.016062	-5.356026	-3.340298
H	-2.573877	-4.790496	-4.110807
H	-2.598484	-6.268513	-3.085998
H	-1.028695	-5.658187	-3.751679
C	2.033195	-4.546999	3.007565
H	2.594833	-5.107564	3.778655
H	1.108067	-4.131473	3.461650
H	2.671451	-3.712085	2.645264
C	-0.691020	-2.314326	-0.822814
S	1.005649	-2.295487	1.178037
C	-0.000000	-1.435180	-0.000000
H	-1.368875	-1.993211	-1.623656
C	0.000000	0.000000	0.000000
S	0.451648	0.777811	1.510732
C	1.238377	2.142617	0.727629
C	0.454085	0.786559	-1.064665
C	1.147169	1.990043	-0.678287
C	0.422325	0.728240	-2.486150
C	1.054629	1.823683	-3.106916
S	1.675491	2.905718	-1.965735
C	1.185914	2.041729	-4.559972
O	0.721749	1.231802	-5.350277
O	1.830313	3.151386	-5.004375
F	-0.131347	-0.238577	-3.246290
C	2.018453	3.456956	-6.334976
H	2.571455	4.413580	-6.370268
H	1.052178	3.565244	-6.875609
H	2.601950	2.669768	-6.861878
H	1.698444	2.939346	1.321510
H	-0.817932	-9.146471	0.349939
H	0.548939	-9.150570	-0.815247
H	-0.821835	-1.444158	0.700647
$end

$rem
JOBTYPE		SP
EXCHANGE	HF
CORRELATION	pRIMP2
BASIS		cc-pvtz
METHOD		rimp2
AUX_BASIS	rimp2-cc-pvtz
SOLVENT_METHOD	PCM
PURECART	11111
SYMMETRY	false
MEM_TOTAL	110000
SCF_CONVERGENCE = 6
THRESH=10
GUI = 2
$end

$solvent
dielectric 4.90
$end
--------------------------------------------------------------

             Standard Nuclear Orientation (Angstroms)
    I     Atom           X                Y                Z
 ----------------------------------------------------------------
    1      C      -0.1354570000    -8.5197410000    -0.2359930000
    2      C       0.5581880000    -7.6359670000     0.5778580000
    3      S      -1.1488500000    -7.6517400000    -1.4147050000
    4      C       0.3086480000    -6.2618940000     0.2830200000
    5      H       1.2385600000    -7.9547380000     1.3775970000
    6      C      -0.6090260000    -6.0799850000    -0.8108870000
    7      C      -0.9968280000    -4.7983820000    -1.2315810000
    8      C       0.8657400000    -5.1535420000     0.9829010000
    9      C       0.4744080000    -3.8696260000     0.5647130000
   10      C      -0.4420460000    -3.6889270000    -0.5321960000
   11      O       1.7381370000    -5.4810750000     1.9763320000
   12      O      -1.8740520000    -4.4798710000    -2.2287090000
   13      C      -2.0160620000    -5.3560260000    -3.3402980000
   14      H      -2.5738770000    -4.7904960000    -4.1108070000
   15      H      -2.5984840000    -6.2685130000    -3.0859980000
   16      H      -1.0286950000    -5.6581870000    -3.7516790000
   17      C       2.0331950000    -4.5469990000     3.0075650000
   18      H       2.5948330000    -5.1075640000     3.7786550000
   19      H       1.1080670000    -4.1314730000     3.4616500000
   20      H       2.6714510000    -3.7120850000     2.6452640000
   21      C      -0.6910200000    -2.3143260000    -0.8228140000
   22      S       1.0056490000    -2.2954870000     1.1780370000
   23      C       0.0000000000    -1.4351800000     0.0000000000
   24      H      -1.3688750000    -1.9932110000    -1.6236560000
   25      C       0.0000000000     0.0000000000     0.0000000000
   26      S       0.4516480000     0.7778110000     1.5107320000
   27      C       1.2383770000     2.1426170000     0.7276290000
   28      C       0.4540850000     0.7865590000    -1.0646650000
   29      C       1.1471690000     1.9900430000    -0.6782870000
   30      C       0.4223250000     0.7282400000    -2.4861500000
   31      C       1.0546290000     1.8236830000    -3.1069160000
   32      S       1.6754910000     2.9057180000    -1.9657350000
   33      C       1.1859140000     2.0417290000    -4.5599720000
   34      O       0.7217490000     1.2318020000    -5.3502770000
   35      O       1.8303130000     3.1513860000    -5.0043750000
   36      F      -0.1313470000    -0.2385770000    -3.2462900000
   37      C       2.0184530000     3.4569560000    -6.3349760000
   38      H       2.5714550000     4.4135800000    -6.3702680000
   39      H       1.0521780000     3.5652440000    -6.8756090000
   40      H       2.6019500000     2.6697680000    -6.8618780000
   41      H       1.6984440000     2.9393460000     1.3215100000
   42      H      -0.8179320000    -9.1464710000     0.3499390000
   43      H       0.5489390000    -9.1505700000    -0.8152470000
   44      H      -0.8218350000    -1.4441580000     0.7006470000
 ----------------------------------------------------------------

   11   -2755.3070688686      7.57e-07  Convergence criterion met
 Total energy in the final basis set =    -2755.3070688686
        RIMP2         total energy =     -2760.4045853954 a.u.

                    Orbital Energies (a.u.)
 --------------------------------------------------------------

 Alpha MOs
 -- Occupied --
-92.0170 -91.9966 -91.9797 -91.9571 -26.3368 -20.6131 -20.5866 -20.5862
-20.5516 -11.4117 -11.3782 -11.3085 -11.3085 -11.3064 -11.3000 -11.2994
-11.2979 -11.2891 -11.2848 -11.2825 -11.2821 -11.2816 -11.2797 -11.2725
-11.2716 -11.2575 -11.2564 -11.2486 -11.2348  -9.0157  -9.0006  -8.9819
 -8.9598  -6.6965  -6.6959  -6.6954  -6.6818  -6.6812  -6.6798  -6.6629
 -6.6621  -6.6607  -6.6410  -6.6401  -6.6390  -1.6499  -1.4729  -1.4100
 -1.4080  -1.3684  -1.2398  -1.2090  -1.1748  -1.1445  -1.0985  -1.0511
 -1.0457  -1.0310  -1.0085  -0.9976  -0.9732  -0.9596  -0.9482  -0.9400
 -0.8937  -0.8725  -0.8633  -0.8075  -0.7968  -0.7855  -0.7768  -0.7715
 -0.7638  -0.7320  -0.7224  -0.7181  -0.6969  -0.6931  -0.6824  -0.6794
 -0.6735  -0.6652  -0.6561  -0.6480  -0.6362  -0.6292  -0.6190  -0.6138
 -0.6106  -0.6076  -0.5969  -0.5929  -0.5764  -0.5676  -0.5582  -0.5532
 -0.5460  -0.5368  -0.5312  -0.5228  -0.5138  -0.5078  -0.5057  -0.4998
 -0.4865  -0.4844  -0.4758  -0.4729  -0.4628  -0.4620  -0.4579  -0.4451
 -0.4280  -0.3985  -0.3849  -0.3693  -0.3514  -0.2943  -0.2861  -0.2169

          Ground-State Mulliken Net Atomic Charges

     Atom                 Charge (a.u.)
  ----------------------------------------
      1 C                    -0.069808
      2 C                    -0.266392
      3 S                    -0.136883
      4 C                    -0.042544
      5 H                     0.192563
      6 C                    -0.053146
      7 C                     0.222724
      8 C                     0.221100
      9 C                    -0.078916
     10 C                    -0.049737
     11 O                    -0.334745
     12 O                    -0.343287
     13 C                    -0.082335
     14 H                     0.120598
     15 H                     0.091541
     16 H                     0.092931
     17 C                    -0.087727
     18 H                     0.123753
     19 H                     0.091827
     20 H                     0.089547
     21 C                    -0.266236
     22 S                    -0.073372
     23 C                     0.054603
     24 H                     0.204817
     25 C                    -0.098253
     26 S                     0.089086
     27 C                    -0.212302
     28 C                    -0.032711
     29 C                    -0.018964
     30 C                     0.366885
     31 C                    -0.138181
     32 S                     0.043526
     33 C                     0.457569
     34 O                    -0.448373
     35 O                    -0.297737
     36 F                    -0.212035
     37 C                    -0.054944
     38 H                     0.116871
     39 H                     0.084663
     40 H                     0.084900
     41 H                     0.217071
     42 H                     0.116453
     43 H                     0.114223
     44 H                     0.201375
  ----------------------------------------
  Sum of atomic charges =     0.000000

                    Cartesian Multipole Moments
 -----------------------------------------------------------------
    Charge (ESU x 10^10)
                 0.0000
    Dipole Moment (Debye)
         X       1.5555      Y       3.6636      Z       3.6326
       Tot       5.3887
    Quadrupole Moments (Debye-Ang)
        XX    -194.9620     XY       4.7877     YY    -180.9019
        XZ       0.6937     YZ     -12.1733     ZZ    -189.4922

 Total job time:  320.40s(wall), 10393.72s(cpu)
        *  Thank you very much for using Q-Chem.  Have a nice day.  *
