 Q-Chem 5.4, Q-Chem, Inc., Pleasanton, CA (2021)
 Q-Chem 5.4.0 for Intel X86 EM64T Linux

User input:
--------------------------------------------------------------
$molecule
0 1
C	0.136647	-8.519741	-0.235306
C	-0.221346	-7.635967	0.772334
S	0.650746	-7.651740	-1.702286
C	-0.090779	-6.261894	0.408807
H	-0.573754	-7.954738	1.761423
C	0.397735	-6.079985	-0.932876
C	0.568166	-4.798382	-1.479069
C	-0.418347	-5.153542	1.241204
C	-0.251852	-3.869626	0.693206
C	0.239872	-3.688927	-0.648921
O	-0.842486	-5.481075	2.493437
O	0.993092	-4.479871	-2.737331
C	1.884752	-5.356026	-3.416110
H	2.273124	-4.790496	-4.284447
H	1.373310	-6.268513	-3.793352
H	2.734702	-5.658187	-2.766716
C	-1.588030	-4.546999	3.264581
H	-1.974995	-5.107564	4.136519
H	-2.443843	-4.131473	2.690439
H	-0.955140	-3.712085	3.636177
C	0.367068	-2.314326	-1.009848
S	-0.517386	-2.295487	1.459936
C	0.000000	-1.435180	0.000000
H	0.721689	-1.993211	-1.997308
C	0.000000	0.000000	0.000000
S	0.234946	0.868203	1.510732
C	0.641630	2.390125	0.727629
C	0.235036	0.877284	-1.064665
C	0.593019	2.219143	-0.678287
C	0.219452	0.812732	-2.486150
C	0.546689	2.034501	-3.106916
S	0.866345	3.240357	-1.965735
C	0.617067	2.279095	-4.559972
O	0.378342	1.376631	-5.350277
O	0.952308	3.517725	-5.004375
F	-0.065123	-0.264443	-3.246290
C	1.054950	3.861577	-6.334976
H	1.341516	4.928732	-6.370268
H	0.093573	3.716085	-6.875609
H	1.822303	3.252232	-6.861878
H	0.879812	3.278780	1.321510
H	-0.712022	-9.146471	-0.533380
H	0.980494	-9.150570	0.067771
H	-1.017696	-1.444158	-0.361406
$end

$rem
JOBTYPE		SP
EXCHANGE	HF
CORRELATION	pRIMP2
BASIS		cc-pvtz
METHOD		rimp2
AUX_BASIS	rimp2-cc-pvtz
SOLVENT_METHOD	PCM
PURECART	11111
SYMMETRY	false
MEM_TOTAL	110000
SCF_CONVERGENCE = 6
THRESH=10
GUI = 2
$end

$solvent
dielectric 4.90
$end
--------------------------------------------------------------

             Standard Nuclear Orientation (Angstroms)
    I     Atom           X                Y                Z
 ----------------------------------------------------------------
    1      C       0.1366470000    -8.5197410000    -0.2353060000
    2      C      -0.2213460000    -7.6359670000     0.7723340000
    3      S       0.6507460000    -7.6517400000    -1.7022860000
    4      C      -0.0907790000    -6.2618940000     0.4088070000
    5      H      -0.5737540000    -7.9547380000     1.7614230000
    6      C       0.3977350000    -6.0799850000    -0.9328760000
    7      C       0.5681660000    -4.7983820000    -1.4790690000
    8      C      -0.4183470000    -5.1535420000     1.2412040000
    9      C      -0.2518520000    -3.8696260000     0.6932060000
   10      C       0.2398720000    -3.6889270000    -0.6489210000
   11      O      -0.8424860000    -5.4810750000     2.4934370000
   12      O       0.9930920000    -4.4798710000    -2.7373310000
   13      C       1.8847520000    -5.3560260000    -3.4161100000
   14      H       2.2731240000    -4.7904960000    -4.2844470000
   15      H       1.3733100000    -6.2685130000    -3.7933520000
   16      H       2.7347020000    -5.6581870000    -2.7667160000
   17      C      -1.5880300000    -4.5469990000     3.2645810000
   18      H      -1.9749950000    -5.1075640000     4.1365190000
   19      H      -2.4438430000    -4.1314730000     2.6904390000
   20      H      -0.9551400000    -3.7120850000     3.6361770000
   21      C       0.3670680000    -2.3143260000    -1.0098480000
   22      S      -0.5173860000    -2.2954870000     1.4599360000
   23      C       0.0000000000    -1.4351800000     0.0000000000
   24      H       0.7216890000    -1.9932110000    -1.9973080000
   25      C       0.0000000000     0.0000000000     0.0000000000
   26      S       0.2349460000     0.8682030000     1.5107320000
   27      C       0.6416300000     2.3901250000     0.7276290000
   28      C       0.2350360000     0.8772840000    -1.0646650000
   29      C       0.5930190000     2.2191430000    -0.6782870000
   30      C       0.2194520000     0.8127320000    -2.4861500000
   31      C       0.5466890000     2.0345010000    -3.1069160000
   32      S       0.8663450000     3.2403570000    -1.9657350000
   33      C       0.6170670000     2.2790950000    -4.5599720000
   34      O       0.3783420000     1.3766310000    -5.3502770000
   35      O       0.9523080000     3.5177250000    -5.0043750000
   36      F      -0.0651230000    -0.2644430000    -3.2462900000
   37      C       1.0549500000     3.8615770000    -6.3349760000
   38      H       1.3415160000     4.9287320000    -6.3702680000
   39      H       0.0935730000     3.7160850000    -6.8756090000
   40      H       1.8223030000     3.2522320000    -6.8618780000
   41      H       0.8798120000     3.2787800000     1.3215100000
   42      H      -0.7120220000    -9.1464710000    -0.5333800000
   43      H       0.9804940000    -9.1505700000     0.0677710000
   44      H      -1.0176960000    -1.4441580000    -0.3614060000
 ----------------------------------------------------------------

   11   -2755.3214175902      6.98e-07  Convergence criterion met
 Total energy in the final basis set =    -2755.3214175902
        RIMP2         total energy =     -2760.4144552195 a.u.

                    Orbital Energies (a.u.)
 --------------------------------------------------------------

 Alpha MOs
 -- Occupied --
-92.0149 -91.9934 -91.9832 -91.9597 -26.3393 -20.6112 -20.5898 -20.5873
-20.5481 -11.4088 -11.3796 -11.3234 -11.3121 -11.3101 -11.2974 -11.2934
-11.2881 -11.2864 -11.2864 -11.2858 -11.2848 -11.2825 -11.2779 -11.2751
-11.2722 -11.2613 -11.2602 -11.2515 -11.2415  -9.0134  -8.9975  -8.9854
 -8.9623  -6.6942  -6.6936  -6.6931  -6.6788  -6.6781  -6.6768  -6.6665
 -6.6656  -6.6644  -6.6435  -6.6426  -6.6416  -1.6532  -1.4708  -1.4130
 -1.4092  -1.3659  -1.2385  -1.2109  -1.1776  -1.1436  -1.1013  -1.0508
 -1.0484  -1.0285  -1.0106  -1.0004  -0.9716  -0.9603  -0.9504  -0.9411
 -0.8961  -0.8736  -0.8630  -0.8098  -0.7967  -0.7877  -0.7762  -0.7716
 -0.7629  -0.7349  -0.7220  -0.7197  -0.6991  -0.6948  -0.6851  -0.6780
 -0.6736  -0.6720  -0.6578  -0.6495  -0.6396  -0.6298  -0.6218  -0.6158
 -0.6096  -0.6053  -0.5956  -0.5921  -0.5790  -0.5707  -0.5602  -0.5529
 -0.5467  -0.5365  -0.5316  -0.5231  -0.5144  -0.5093  -0.5067  -0.5023
 -0.4849  -0.4842  -0.4792  -0.4695  -0.4632  -0.4608  -0.4590  -0.4483
 -0.4326  -0.3982  -0.3883  -0.3721  -0.3507  -0.2941  -0.2851  -0.2188

          Ground-State Mulliken Net Atomic Charges

     Atom                 Charge (a.u.)
  ----------------------------------------
      1 C                    -0.071006
      2 C                    -0.247957
      3 S                    -0.131271
      4 C                    -0.051507
      5 H                     0.194917
      6 C                    -0.049756
      7 C                     0.222497
      8 C                     0.237654
      9 C                    -0.076061
     10 C                    -0.031408
     11 O                    -0.333524
     12 O                    -0.342436
     13 C                    -0.083207
     14 H                     0.121456
     15 H                     0.092199
     16 H                     0.092613
     17 C                    -0.088331
     18 H                     0.125145
     19 H                     0.093623
     20 H                     0.090353
     21 C                    -0.334422
     22 S                    -0.093479
     23 C                     0.143908
     24 H                     0.205737
     25 C                    -0.065508
     26 S                     0.096650
     27 C                    -0.271218
     28 C                    -0.089446
     29 C                    -0.002740
     30 C                     0.381015
     31 C                    -0.149544
     32 S                     0.034780
     33 C                     0.462818
     34 O                    -0.454913
     35 O                    -0.298599
     36 F                    -0.216212
     37 C                    -0.055028
     38 H                     0.116480
     39 H                     0.084244
     40 H                     0.084085
     41 H                     0.213711
     42 H                     0.119143
     43 H                     0.116760
     44 H                     0.207784
  ----------------------------------------
  Sum of atomic charges =     0.000000

                    Cartesian Multipole Moments
 -----------------------------------------------------------------
    Charge (ESU x 10^10)
                 0.0000
    Dipole Moment (Debye)
         X       0.0125      Y       1.6800      Z       3.4651
       Tot       3.8509
    Quadrupole Moments (Debye-Ang)
        XX    -193.1892     XY       5.2392     YY    -169.1757
        XZ     -12.0264     YZ     -13.9741     ZZ    -196.1260

 Total job time:  328.36s(wall), 10585.50s(cpu)
        *  Thank you very much for using Q-Chem.  Have a nice day.  *
