 Q-Chem 5.4, Q-Chem, Inc., Pleasanton, CA (2021)
 Q-Chem 5.4.0 for Intel X86 EM64T Linux

User input:
--------------------------------------------------------------
$molecule
0 1
C	-0.135457	-8.519741	-0.235993
C	0.558188	-7.635967	0.577858
S	-1.148850	-7.651740	-1.414705
C	0.308648	-6.261894	0.283020
H	1.238560	-7.954738	1.377597
C	-0.609026	-6.079985	-0.810887
C	-0.996828	-4.798382	-1.231581
C	0.865740	-5.153542	0.982901
C	0.474408	-3.869626	0.564713
C	-0.442046	-3.688927	-0.532196
O	1.738137	-5.481075	1.976332
O	-1.874052	-4.479871	-2.228709
C	-2.016062	-5.356026	-3.340298
H	-2.573877	-4.790496	-4.110807
H	-2.598484	-6.268513	-3.085998
H	-1.028695	-5.658187	-3.751679
C	2.033195	-4.546999	3.007565
H	2.594833	-5.107564	3.778655
H	1.108067	-4.131473	3.461650
H	2.671451	-3.712085	2.645264
C	-0.691020	-2.314326	-0.822814
S	1.005649	-2.295487	1.178037
C	0.000000	-1.435180	0.000000
H	-1.368875	-1.993211	-1.623656
C	0.000000	0.000000	0.000000
S	0.002233	0.899428	1.510732
C	0.001157	2.474749	0.727629
C	-0.000030	0.908223	-1.064665
C	-0.001545	2.297013	-0.678287
C	0.001624	0.841837	-2.486150
C	0.001494	2.106670	-3.106916
S	-0.001841	3.354171	-1.965735
C	0.006168	2.361146	-4.559972
O	0.009152	1.427646	-5.350277
O	0.009405	3.644337	-5.004375
F	0.005539	-0.272288	-3.246290
C	0.019554	4.003038	-6.334976
H	0.020155	5.108000	-6.370268
H	-0.871409	3.613681	-6.875609
H	0.918470	3.613062	-6.861878
H	0.001222	3.394771	1.321510
H	-0.817932	-9.146471	0.349939
H	0.548939	-9.150570	-0.815247
H	-0.821835	-1.444158	0.700647
$end

$rem
JOBTYPE		SP
EXCHANGE	HF
CORRELATION	pRIMP2
BASIS		cc-pvtz
METHOD		rimp2
AUX_BASIS	rimp2-cc-pvtz
SOLVENT_METHOD	PCM
PURECART	11111
SYMMETRY	false
MEM_TOTAL	110000
SCF_CONVERGENCE = 6
THRESH=10
GUI = 2
$end

$solvent
dielectric 4.90
$end
--------------------------------------------------------------

             Standard Nuclear Orientation (Angstroms)
    I     Atom           X                Y                Z
 ----------------------------------------------------------------
    1      C      -0.1354570000    -8.5197410000    -0.2359930000
    2      C       0.5581880000    -7.6359670000     0.5778580000
    3      S      -1.1488500000    -7.6517400000    -1.4147050000
    4      C       0.3086480000    -6.2618940000     0.2830200000
    5      H       1.2385600000    -7.9547380000     1.3775970000
    6      C      -0.6090260000    -6.0799850000    -0.8108870000
    7      C      -0.9968280000    -4.7983820000    -1.2315810000
    8      C       0.8657400000    -5.1535420000     0.9829010000
    9      C       0.4744080000    -3.8696260000     0.5647130000
   10      C      -0.4420460000    -3.6889270000    -0.5321960000
   11      O       1.7381370000    -5.4810750000     1.9763320000
   12      O      -1.8740520000    -4.4798710000    -2.2287090000
   13      C      -2.0160620000    -5.3560260000    -3.3402980000
   14      H      -2.5738770000    -4.7904960000    -4.1108070000
   15      H      -2.5984840000    -6.2685130000    -3.0859980000
   16      H      -1.0286950000    -5.6581870000    -3.7516790000
   17      C       2.0331950000    -4.5469990000     3.0075650000
   18      H       2.5948330000    -5.1075640000     3.7786550000
   19      H       1.1080670000    -4.1314730000     3.4616500000
   20      H       2.6714510000    -3.7120850000     2.6452640000
   21      C      -0.6910200000    -2.3143260000    -0.8228140000
   22      S       1.0056490000    -2.2954870000     1.1780370000
   23      C       0.0000000000    -1.4351800000     0.0000000000
   24      H      -1.3688750000    -1.9932110000    -1.6236560000
   25      C       0.0000000000     0.0000000000     0.0000000000
   26      S       0.0022330000     0.8994280000     1.5107320000
   27      C       0.0011570000     2.4747490000     0.7276290000
   28      C      -0.0000300000     0.9082230000    -1.0646650000
   29      C      -0.0015450000     2.2970130000    -0.6782870000
   30      C       0.0016240000     0.8418370000    -2.4861500000
   31      C       0.0014940000     2.1066700000    -3.1069160000
   32      S      -0.0018410000     3.3541710000    -1.9657350000
   33      C       0.0061680000     2.3611460000    -4.5599720000
   34      O       0.0091520000     1.4276460000    -5.3502770000
   35      O       0.0094050000     3.6443370000    -5.0043750000
   36      F       0.0055390000    -0.2722880000    -3.2462900000
   37      C       0.0195540000     4.0030380000    -6.3349760000
   38      H       0.0201550000     5.1080000000    -6.3702680000
   39      H      -0.8714090000     3.6136810000    -6.8756090000
   40      H       0.9184700000     3.6130620000    -6.8618780000
   41      H       0.0012220000     3.3947710000     1.3215100000
   42      H      -0.8179320000    -9.1464710000     0.3499390000
   43      H       0.5489390000    -9.1505700000    -0.8152470000
   44      H      -0.8218350000    -1.4441580000     0.7006470000
 ----------------------------------------------------------------

   11   -2755.3276968004      7.86e-07  Convergence criterion met
 Total energy in the final basis set =    -2755.3276968004
        RIMP2         total energy =     -2760.4168756982 a.u.

                    Orbital Energies (a.u.)
 --------------------------------------------------------------

 Alpha MOs
 -- Occupied --
-92.0156 -91.9932 -91.9817 -91.9588 -26.3369 -20.6119 -20.5885 -20.5870
-20.5493 -11.4097 -11.3790 -11.3210 -11.3098 -11.3095 -11.2968 -11.2954
-11.2893 -11.2884 -11.2857 -11.2848 -11.2848 -11.2822 -11.2790 -11.2740
-11.2730 -11.2599 -11.2592 -11.2504 -11.2389  -9.0142  -8.9974  -8.9839
 -8.9614  -6.6951  -6.6945  -6.6939  -6.6787  -6.6780  -6.6766  -6.6650
 -6.6641  -6.6628  -6.6427  -6.6417  -6.6407  -1.6499  -1.4715  -1.4118
 -1.4089  -1.3667  -1.2380  -1.2106  -1.1766  -1.1439  -1.1003  -1.0499
 -1.0474  -1.0299  -1.0096  -0.9994  -0.9720  -0.9600  -0.9495  -0.9406
 -0.8949  -0.8715  -0.8646  -0.8081  -0.7964  -0.7866  -0.7775  -0.7710
 -0.7654  -0.7331  -0.7222  -0.7176  -0.6982  -0.6927  -0.6831  -0.6784
 -0.6720  -0.6672  -0.6573  -0.6489  -0.6376  -0.6306  -0.6208  -0.6151
 -0.6105  -0.6060  -0.5949  -0.5926  -0.5804  -0.5689  -0.5595  -0.5516
 -0.5500  -0.5362  -0.5317  -0.5227  -0.5144  -0.5083  -0.5050  -0.5009
 -0.4864  -0.4842  -0.4801  -0.4719  -0.4624  -0.4611  -0.4598  -0.4467
 -0.4293  -0.4006  -0.3869  -0.3715  -0.3516  -0.2937  -0.2856  -0.2193

          Ground-State Mulliken Net Atomic Charges

     Atom                 Charge (a.u.)
  ----------------------------------------
      1 C                    -0.070473
      2 C                    -0.254391
      3 S                    -0.133118
      4 C                    -0.046314
      5 H                     0.194097
      6 C                    -0.051921
      7 C                     0.225442
      8 C                     0.230636
      9 C                    -0.078701
     10 C                    -0.061065
     11 O                    -0.334011
     12 O                    -0.343220
     13 C                    -0.082524
     14 H                     0.120907
     15 H                     0.091590
     16 H                     0.093211
     17 C                    -0.087661
     18 H                     0.124091
     19 H                     0.092556
     20 H                     0.090240
     21 C                    -0.254925
     22 S                    -0.077122
     23 C                     0.112780
     24 H                     0.205656
     25 C                    -0.122230
     26 S                     0.085971
     27 C                    -0.250433
     28 C                    -0.061370
     29 C                    -0.013104
     30 C                     0.401388
     31 C                    -0.151045
     32 S                     0.030473
     33 C                     0.461485
     34 O                    -0.452711
     35 O                    -0.298069
     36 F                    -0.214438
     37 C                    -0.055153
     38 H                     0.116580
     39 H                     0.084333
     40 H                     0.084467
     41 H                     0.215308
     42 H                     0.118019
     43 H                     0.115894
     44 H                     0.198874
  ----------------------------------------
  Sum of atomic charges =     0.000000

                    Cartesian Multipole Moments
 -----------------------------------------------------------------
    Charge (ESU x 10^10)
                 0.0000
    Dipole Moment (Debye)
         X      -0.3709      Y       2.5645      Z       3.8680
       Tot       4.6557
    Quadrupole Moments (Debye-Ang)
        XX    -199.0540     XY      -2.5936     YY    -171.6437
        XZ       6.3716     YZ     -13.4644     ZZ    -190.7694

 Total job time:  346.77s(wall), 11717.02s(cpu)
        *  Thank you very much for using Q-Chem.  Have a nice day.  *
