 Q-Chem 5.4, Q-Chem, Inc., Pleasanton, CA (2021)
 Q-Chem 5.4.0 for Intel X86 EM64T Linux

User input:
--------------------------------------------------------------
$molecule
0 1
C	-0.136647	-8.519741	0.235306
C	0.221346	-7.635967	-0.772334
S	-0.650746	-7.651740	1.702286
C	0.090779	-6.261894	-0.408807
H	0.573754	-7.954738	-1.761423
C	-0.397735	-6.079985	0.932876
C	-0.568166	-4.798382	1.479069
C	0.418347	-5.153542	-1.241204
C	0.251852	-3.869626	-0.693206
C	-0.239872	-3.688927	0.648921
O	0.842486	-5.481075	-2.493437
O	-0.993092	-4.479871	2.737331
C	-1.884752	-5.356026	3.416110
H	-2.273124	-4.790496	4.284447
H	-1.373310	-6.268513	3.793352
H	-2.734702	-5.658187	2.766716
C	1.588030	-4.546999	-3.264581
H	1.974995	-5.107564	-4.136519
H	2.443843	-4.131473	-2.690439
H	0.955140	-3.712085	-3.636177
C	-0.367068	-2.314326	1.009848
S	0.517386	-2.295487	-1.459936
C	-0.000000	-1.435180	-0.000000
H	-0.721689	-1.993211	1.997308
C	0.000000	0.000000	0.000000
S	0.382139	0.814215	1.510732
C	1.046923	2.242395	0.727629
C	0.383804	0.823142	-1.064665
C	0.969360	2.082453	-0.678287
C	0.357247	0.762277	-2.486150
C	0.891671	1.908660	-3.106916
S	1.415865	3.040689	-1.965735
C	1.003453	2.137318	-4.559972
O	0.611644	1.290019	-5.350277
O	1.548687	3.298916	-5.004375
F	-0.110054	-0.249117	-3.246290
C	1.709479	3.619721	-6.334976
H	2.177001	4.620902	-6.370268
H	0.737443	3.643380	-6.875609
H	2.359363	2.886384	-6.861878
H	1.435800	3.076190	1.321510
H	0.712022	-9.146471	0.533380
H	-0.980494	-9.150570	-0.067771
H	1.017696	-1.444158	0.361406
$end

$rem
JOBTYPE		SP
EXCHANGE	HF
CORRELATION	pRIMP2
BASIS		cc-pvtz
METHOD		rimp2
AUX_BASIS	rimp2-cc-pvtz
SOLVENT_METHOD	PCM
PURECART	11111
SYMMETRY	false
MEM_TOTAL	110000
SCF_CONVERGENCE = 6
THRESH=10
GUI = 2
$end

$solvent
dielectric 4.90
$end
--------------------------------------------------------------

             Standard Nuclear Orientation (Angstroms)
    I     Atom           X                Y                Z
 ----------------------------------------------------------------
    1      C      -0.1366470000    -8.5197410000     0.2353060000
    2      C       0.2213460000    -7.6359670000    -0.7723340000
    3      S      -0.6507460000    -7.6517400000     1.7022860000
    4      C       0.0907790000    -6.2618940000    -0.4088070000
    5      H       0.5737540000    -7.9547380000    -1.7614230000
    6      C      -0.3977350000    -6.0799850000     0.9328760000
    7      C      -0.5681660000    -4.7983820000     1.4790690000
    8      C       0.4183470000    -5.1535420000    -1.2412040000
    9      C       0.2518520000    -3.8696260000    -0.6932060000
   10      C      -0.2398720000    -3.6889270000     0.6489210000
   11      O       0.8424860000    -5.4810750000    -2.4934370000
   12      O      -0.9930920000    -4.4798710000     2.7373310000
   13      C      -1.8847520000    -5.3560260000     3.4161100000
   14      H      -2.2731240000    -4.7904960000     4.2844470000
   15      H      -1.3733100000    -6.2685130000     3.7933520000
   16      H      -2.7347020000    -5.6581870000     2.7667160000
   17      C       1.5880300000    -4.5469990000    -3.2645810000
   18      H       1.9749950000    -5.1075640000    -4.1365190000
   19      H       2.4438430000    -4.1314730000    -2.6904390000
   20      H       0.9551400000    -3.7120850000    -3.6361770000
   21      C      -0.3670680000    -2.3143260000     1.0098480000
   22      S       0.5173860000    -2.2954870000    -1.4599360000
   23      C       0.0000000000    -1.4351800000     0.0000000000
   24      H      -0.7216890000    -1.9932110000     1.9973080000
   25      C       0.0000000000     0.0000000000     0.0000000000
   26      S       0.3821390000     0.8142150000     1.5107320000
   27      C       1.0469230000     2.2423950000     0.7276290000
   28      C       0.3838040000     0.8231420000    -1.0646650000
   29      C       0.9693600000     2.0824530000    -0.6782870000
   30      C       0.3572470000     0.7622770000    -2.4861500000
   31      C       0.8916710000     1.9086600000    -3.1069160000
   32      S       1.4158650000     3.0406890000    -1.9657350000
   33      C       1.0034530000     2.1373180000    -4.5599720000
   34      O       0.6116440000     1.2900190000    -5.3502770000
   35      O       1.5486870000     3.2989160000    -5.0043750000
   36      F      -0.1100540000    -0.2491170000    -3.2462900000
   37      C       1.7094790000     3.6197210000    -6.3349760000
   38      H       2.1770010000     4.6209020000    -6.3702680000
   39      H       0.7374430000     3.6433800000    -6.8756090000
   40      H       2.3593630000     2.8863840000    -6.8618780000
   41      H       1.4358000000     3.0761900000     1.3215100000
   42      H       0.7120220000    -9.1464710000     0.5333800000
   43      H      -0.9804940000    -9.1505700000    -0.0677710000
   44      H       1.0176960000    -1.4441580000     0.3614060000
 ----------------------------------------------------------------

   11   -2755.3133427339      6.87e-07  Convergence criterion met
 Total energy in the final basis set =    -2755.3133427339
        RIMP2         total energy =     -2760.4078389304 a.u.

                    Orbital Energies (a.u.)
 --------------------------------------------------------------

 Alpha MOs
 -- Occupied --
-92.0107 -91.9920 -91.9763 -91.9609 -26.3345 -20.6110 -20.5884 -20.5881
-20.5478 -11.4085 -11.3790 -11.3223 -11.3108 -11.3098 -11.2964 -11.2931
-11.2880 -11.2869 -11.2858 -11.2843 -11.2837 -11.2829 -11.2779 -11.2767
-11.2700 -11.2630 -11.2602 -11.2524 -11.2432  -9.0099  -8.9962  -8.9789
 -8.9634  -6.6907  -6.6901  -6.6895  -6.6775  -6.6768  -6.6754  -6.6598
 -6.6590  -6.6576  -6.6446  -6.6437  -6.6427  -1.6494  -1.4705  -1.4117
 -1.4100  -1.3656  -1.2397  -1.2096  -1.1784  -1.1439  -1.1001  -1.0512
 -1.0470  -1.0303  -1.0080  -0.9999  -0.9714  -0.9601  -0.9499  -0.9406
 -0.8951  -0.8710  -0.8633  -0.8122  -0.7948  -0.7860  -0.7762  -0.7662
 -0.7650  -0.7336  -0.7213  -0.7165  -0.6976  -0.6949  -0.6841  -0.6777
 -0.6718  -0.6713  -0.6568  -0.6494  -0.6383  -0.6292  -0.6225  -0.6159
 -0.6111  -0.6049  -0.5968  -0.5924  -0.5779  -0.5675  -0.5643  -0.5595
 -0.5484  -0.5339  -0.5285  -0.5211  -0.5138  -0.5088  -0.5043  -0.5004
 -0.4845  -0.4830  -0.4795  -0.4659  -0.4622  -0.4605  -0.4591  -0.4485
 -0.4295  -0.4013  -0.3840  -0.3731  -0.3512  -0.2941  -0.2834  -0.2186

          Ground-State Mulliken Net Atomic Charges

     Atom                 Charge (a.u.)
  ----------------------------------------
      1 C                    -0.071228
      2 C                    -0.241614
      3 S                    -0.129668
      4 C                    -0.053105
      5 H                     0.196060
      6 C                    -0.045633
      7 C                     0.215259
      8 C                     0.232735
      9 C                    -0.079489
     10 C                    -0.009124
     11 O                    -0.334108
     12 O                    -0.343667
     13 C                    -0.082710
     14 H                     0.120161
     15 H                     0.091838
     16 H                     0.093229
     17 C                    -0.090313
     18 H                     0.124635
     19 H                     0.092400
     20 H                     0.093576
     21 C                    -0.344867
     22 S                    -0.090473
     23 C                     0.132386
     24 H                     0.199180
     25 C                     0.037170
     26 S                     0.079586
     27 C                    -0.260996
     28 C                    -0.172231
     29 C                    -0.009387
     30 C                     0.366673
     31 C                    -0.145053
     32 S                     0.034232
     33 C                     0.458770
     34 O                    -0.454156
     35 O                    -0.298706
     36 F                    -0.206377
     37 C                    -0.054926
     38 H                     0.116415
     39 H                     0.084276
     40 H                     0.083918
     41 H                     0.213942
     42 H                     0.119954
     43 H                     0.117787
     44 H                     0.213651
  ----------------------------------------
  Sum of atomic charges =     0.000000

                    Cartesian Multipole Moments
 -----------------------------------------------------------------
    Charge (ESU x 10^10)
                 0.0000
    Dipole Moment (Debye)
         X       1.9111      Y       1.1619      Z       3.1178
       Tot       3.8370
    Quadrupole Moments (Debye-Ang)
        XX    -191.6597     XY       4.1084     YY    -168.3914
        XZ     -13.5242     YZ      -4.7156     ZZ    -195.9043

 Total job time:  340.84s(wall), 10390.04s(cpu)
        *  Thank you very much for using Q-Chem.  Have a nice day.  *
