 Q-Chem 5.4, Q-Chem, Inc., Pleasanton, CA (2021)
 Q-Chem 5.4.0 for Intel X86 EM64T Linux

User input:
--------------------------------------------------------------
$molecule
0 1
C	0.174379	-8.519741	0.208886
C	-0.650052	-7.635967	-0.472151
S	1.377058	-7.651740	1.193717
C	-0.353105	-6.261894	-0.225125
H	-1.458961	-7.954738	-1.141594
C	0.740583	-6.079985	0.692811
C	1.195546	-4.798382	1.039773
C	-1.023267	-5.153542	-0.817634
C	-0.565262	-3.869626	-0.473754
C	0.527745	-3.688927	0.447350
O	-2.054917	-5.481075	-1.644483
O	2.232592	-4.479871	1.869424
C	2.565470	-5.356026	2.939466
H	3.248608	-4.790496	3.601405
H	3.094885	-6.268513	2.587892
H	1.664539	-5.658187	3.516052
C	-2.524564	-4.546999	-2.608813
H	-3.211568	-5.107564	-3.270661
H	-1.692342	-4.131473	-3.216646
H	-3.090211	-3.712085	-2.141184
C	0.823402	-2.314326	0.690319
S	-1.194935	-2.295487	-0.985511
C	-0.000000	-1.435180	-0.000000
H	1.630024	-1.993211	1.361286
C	0.000000	0.000000	0.000000
S	0.579852	0.687566	1.510732
C	1.591625	1.895024	0.727629
C	0.583771	0.695758	-1.064665
C	1.475308	1.760606	-0.678287
C	0.542366	0.643841	-2.486150
C	1.355286	1.612843	-3.106916
S	2.154609	2.570627	-1.965735
C	1.522440	1.804778	-4.559972
O	0.924684	1.087757	-5.350277
O	2.349739	2.785679	-5.004375
F	-0.170780	-0.212144	-3.246290
C	2.588082	3.053936	-6.334976
H	3.298799	3.899999	-6.370268
H	1.655291	3.328371	-6.875609
H	3.026021	2.177385	-6.861878
H	2.183053	2.599759	1.321510
H	0.744739	-9.146471	-0.486655
H	-0.399033	-9.150570	0.898184
H	0.687683	-1.444158	-0.832713
$end

$rem
JOBTYPE		SP
EXCHANGE	HF
CORRELATION	pRIMP2
BASIS		cc-pvtz
METHOD		rimp2
AUX_BASIS	rimp2-cc-pvtz
SOLVENT_METHOD	PCM
PURECART	11111
SYMMETRY	false
MEM_TOTAL	110000
SCF_CONVERGENCE = 6
THRESH=10
GUI = 2
$end

$solvent
dielectric 4.90
$end
--------------------------------------------------------------

             Standard Nuclear Orientation (Angstroms)
    I     Atom           X                Y                Z
 ----------------------------------------------------------------
    1      C       0.1743790000    -8.5197410000     0.2088860000
    2      C      -0.6500520000    -7.6359670000    -0.4721510000
    3      S       1.3770580000    -7.6517400000     1.1937170000
    4      C      -0.3531050000    -6.2618940000    -0.2251250000
    5      H      -1.4589610000    -7.9547380000    -1.1415940000
    6      C       0.7405830000    -6.0799850000     0.6928110000
    7      C       1.1955460000    -4.7983820000     1.0397730000
    8      C      -1.0232670000    -5.1535420000    -0.8176340000
    9      C      -0.5652620000    -3.8696260000    -0.4737540000
   10      C       0.5277450000    -3.6889270000     0.4473500000
   11      O      -2.0549170000    -5.4810750000    -1.6444830000
   12      O       2.2325920000    -4.4798710000     1.8694240000
   13      C       2.5654700000    -5.3560260000     2.9394660000
   14      H       3.2486080000    -4.7904960000     3.6014050000
   15      H       3.0948850000    -6.2685130000     2.5878920000
   16      H       1.6645390000    -5.6581870000     3.5160520000
   17      C      -2.5245640000    -4.5469990000    -2.6088130000
   18      H      -3.2115680000    -5.1075640000    -3.2706610000
   19      H      -1.6923420000    -4.1314730000    -3.2166460000
   20      H      -3.0902110000    -3.7120850000    -2.1411840000
   21      C       0.8234020000    -2.3143260000     0.6903190000
   22      S      -1.1949350000    -2.2954870000    -0.9855110000
   23      C       0.0000000000    -1.4351800000     0.0000000000
   24      H       1.6300240000    -1.9932110000     1.3612860000
   25      C       0.0000000000     0.0000000000     0.0000000000
   26      S       0.5798520000     0.6875660000     1.5107320000
   27      C       1.5916250000     1.8950240000     0.7276290000
   28      C       0.5837710000     0.6957580000    -1.0646650000
   29      C       1.4753080000     1.7606060000    -0.6782870000
   30      C       0.5423660000     0.6438410000    -2.4861500000
   31      C       1.3552860000     1.6128430000    -3.1069160000
   32      S       2.1546090000     2.5706270000    -1.9657350000
   33      C       1.5224400000     1.8047780000    -4.5599720000
   34      O       0.9246840000     1.0877570000    -5.3502770000
   35      O       2.3497390000     2.7856790000    -5.0043750000
   36      F      -0.1707800000    -0.2121440000    -3.2462900000
   37      C       2.5880820000     3.0539360000    -6.3349760000
   38      H       3.2987990000     3.8999990000    -6.3702680000
   39      H       1.6552910000     3.3283710000    -6.8756090000
   40      H       3.0260210000     2.1773850000    -6.8618780000
   41      H       2.1830530000     2.5997590000     1.3215100000
   42      H       0.7447390000    -9.1464710000    -0.4866550000
   43      H      -0.3990330000    -9.1505700000     0.8981840000
   44      H       0.6876830000    -1.4441580000    -0.8327130000
 ----------------------------------------------------------------

   11   -2755.2923556298      7.59e-07  Convergence criterion met
 Total energy in the final basis set =    -2755.2923556298
        RIMP2         total energy =     -2760.3961965064 a.u.

                    Orbital Energies (a.u.)
 --------------------------------------------------------------

 Alpha MOs
 -- Occupied --
-92.0179 -92.0006 -91.9715 -91.9572 -26.3359 -20.6142 -20.5869 -20.5845
-20.5533 -11.4133 -11.3782 -11.3083 -11.3041 -11.3038 -11.3036 -11.3033
-11.2999 -11.2897 -11.2847 -11.2828 -11.2822 -11.2809 -11.2787 -11.2723
-11.2716 -11.2567 -11.2559 -11.2484 -11.2339  -9.0163  -9.0044  -8.9741
 -8.9598  -6.6970  -6.6964  -6.6961  -6.6856  -6.6850  -6.6837  -6.6552
 -6.6543  -6.6530  -6.6410  -6.6401  -6.6391  -1.6495  -1.4741  -1.4092
 -1.4075  -1.3697  -1.2440  -1.2074  -1.1747  -1.1453  -1.0985  -1.0536
 -1.0442  -1.0317  -1.0066  -0.9962  -0.9743  -0.9587  -0.9477  -0.9408
 -0.8916  -0.8760  -0.8592  -0.8117  -0.7936  -0.7848  -0.7795  -0.7665
 -0.7604  -0.7324  -0.7193  -0.7182  -0.6977  -0.6921  -0.6883  -0.6804
 -0.6760  -0.6744  -0.6541  -0.6475  -0.6307  -0.6289  -0.6188  -0.6145
 -0.6101  -0.6088  -0.5989  -0.5947  -0.5774  -0.5640  -0.5575  -0.5562
 -0.5525  -0.5311  -0.5278  -0.5206  -0.5118  -0.5069  -0.5046  -0.4992
 -0.4892  -0.4857  -0.4755  -0.4654  -0.4639  -0.4626  -0.4580  -0.4446
 -0.4284  -0.3970  -0.3824  -0.3683  -0.3506  -0.2956  -0.2865  -0.2159

          Ground-State Mulliken Net Atomic Charges

     Atom                 Charge (a.u.)
  ----------------------------------------
      1 C                    -0.069589
      2 C                    -0.267769
      3 S                    -0.138227
      4 C                    -0.042487
      5 H                     0.192669
      6 C                    -0.052358
      7 C                     0.223608
      8 C                     0.222034
      9 C                    -0.071414
     10 C                    -0.051367
     11 O                    -0.336181
     12 O                    -0.344278
     13 C                    -0.082450
     14 H                     0.119393
     15 H                     0.092089
     16 H                     0.092756
     17 C                    -0.086882
     18 H                     0.122251
     19 H                     0.092912
     20 H                     0.089692
     21 C                    -0.275273
     22 S                    -0.080908
     23 C                     0.055694
     24 H                     0.207928
     25 C                    -0.080324
     26 S                     0.107271
     27 C                    -0.214500
     28 C                    -0.071321
     29 C                    -0.006757
     30 C                     0.340580
     31 C                    -0.129489
     32 S                     0.057680
     33 C                     0.457897
     34 O                    -0.445923
     35 O                    -0.297678
     36 F                    -0.208339
     37 C                    -0.054704
     38 H                     0.117069
     39 H                     0.085085
     40 H                     0.084976
     41 H                     0.216794
     42 H                     0.116443
     43 H                     0.113938
     44 H                     0.199458
  ----------------------------------------
  Sum of atomic charges =     0.000000

                    Cartesian Multipole Moments
 -----------------------------------------------------------------
    Charge (ESU x 10^10)
                 0.0000
    Dipole Moment (Debye)
         X       3.1140      Y       3.8674      Z       2.5169
       Tot       5.5667
    Quadrupole Moments (Debye-Ang)
        XX    -189.6378     XY      11.1759     YY    -184.7492
        XZ       0.4755     YZ      -6.5585     ZZ    -191.1814

 Total job time:  326.96s(wall), 10757.73s(cpu)
        *  Thank you very much for using Q-Chem.  Have a nice day.  *
