 Q-Chem 5.4, Q-Chem, Inc., Pleasanton, CA (2021)
 Q-Chem 5.4.0 for Intel X86 EM64T Linux

User input:
--------------------------------------------------------------
$molecule
0 1
C	0.208886	-8.519741	-0.174379
C	-0.472151	-7.635967	0.650052
S	1.193717	-7.651740	-1.377058
C	-0.225125	-6.261894	0.353105
H	-1.141594	-7.954738	1.458961
C	0.692811	-6.079985	-0.740583
C	1.039773	-4.798382	-1.195546
C	-0.817634	-5.153542	1.023267
C	-0.473754	-3.869626	0.565262
C	0.447350	-3.688927	-0.527745
O	-1.644483	-5.481075	2.054917
O	1.869424	-4.479871	-2.232592
C	2.939466	-5.356026	-2.565470
H	3.601405	-4.790496	-3.248608
H	2.587892	-6.268513	-3.094885
H	3.516052	-5.658187	-1.664539
C	-2.608813	-4.546999	2.524564
H	-3.270661	-5.107564	3.211568
H	-3.216646	-4.131473	1.692342
H	-2.141184	-3.712085	3.090211
C	0.690319	-2.314326	-0.823402
S	-0.985511	-2.295487	1.194935
C	0.000000	-1.435180	0.000000
H	1.361286	-1.993211	-1.630024
C	0.000000	0.000000	0.000000
S	0.780044	0.447780	1.510732
C	2.143774	1.236372	0.727629
C	0.786529	0.454137	-1.064665
C	1.988499	1.149844	-0.678287
C	0.729864	0.419512	-2.486150
C	1.825177	1.052041	-3.106916
S	2.903877	1.678680	-1.965735
C	2.047896	1.175232	-4.559972
O	1.240953	0.705897	-5.350277
O	3.160791	1.814024	-5.004375
F	-0.233039	-0.140940	-3.246290
C	3.476510	1.984585	-6.334976
H	4.433735	2.536545	-6.370268
H	2.693835	2.561503	-6.875609
H	3.588239	1.011113	-6.861878
H	2.940569	1.696327	1.321510
H	-0.486655	-9.146471	-0.744739
H	0.898184	-9.150570	0.399033
H	-0.832713	-1.444158	-0.687683
$end

$rem
JOBTYPE		SP
EXCHANGE	HF
CORRELATION	pRIMP2
BASIS		cc-pvtz
METHOD		rimp2
AUX_BASIS	rimp2-cc-pvtz
SOLVENT_METHOD	PCM
PURECART	11111
SYMMETRY	false
MEM_TOTAL	110000
SCF_CONVERGENCE = 6
THRESH=10
GUI = 2
$end

$solvent
dielectric 4.90
$end
--------------------------------------------------------------

             Standard Nuclear Orientation (Angstroms)
    I     Atom           X                Y                Z
 ----------------------------------------------------------------
    1      C       0.2088860000    -8.5197410000    -0.1743790000
    2      C      -0.4721510000    -7.6359670000     0.6500520000
    3      S       1.1937170000    -7.6517400000    -1.3770580000
    4      C      -0.2251250000    -6.2618940000     0.3531050000
    5      H      -1.1415940000    -7.9547380000     1.4589610000
    6      C       0.6928110000    -6.0799850000    -0.7405830000
    7      C       1.0397730000    -4.7983820000    -1.1955460000
    8      C      -0.8176340000    -5.1535420000     1.0232670000
    9      C      -0.4737540000    -3.8696260000     0.5652620000
   10      C       0.4473500000    -3.6889270000    -0.5277450000
   11      O      -1.6444830000    -5.4810750000     2.0549170000
   12      O       1.8694240000    -4.4798710000    -2.2325920000
   13      C       2.9394660000    -5.3560260000    -2.5654700000
   14      H       3.6014050000    -4.7904960000    -3.2486080000
   15      H       2.5878920000    -6.2685130000    -3.0948850000
   16      H       3.5160520000    -5.6581870000    -1.6645390000
   17      C      -2.6088130000    -4.5469990000     2.5245640000
   18      H      -3.2706610000    -5.1075640000     3.2115680000
   19      H      -3.2166460000    -4.1314730000     1.6923420000
   20      H      -2.1411840000    -3.7120850000     3.0902110000
   21      C       0.6903190000    -2.3143260000    -0.8234020000
   22      S      -0.9855110000    -2.2954870000     1.1949350000
   23      C       0.0000000000    -1.4351800000     0.0000000000
   24      H       1.3612860000    -1.9932110000    -1.6300240000
   25      C       0.0000000000     0.0000000000     0.0000000000
   26      S       0.7800440000     0.4477800000     1.5107320000
   27      C       2.1437740000     1.2363720000     0.7276290000
   28      C       0.7865290000     0.4541370000    -1.0646650000
   29      C       1.9884990000     1.1498440000    -0.6782870000
   30      C       0.7298640000     0.4195120000    -2.4861500000
   31      C       1.8251770000     1.0520410000    -3.1069160000
   32      S       2.9038770000     1.6786800000    -1.9657350000
   33      C       2.0478960000     1.1752320000    -4.5599720000
   34      O       1.2409530000     0.7058970000    -5.3502770000
   35      O       3.1607910000     1.8140240000    -5.0043750000
   36      F      -0.2330390000    -0.1409400000    -3.2462900000
   37      C       3.4765100000     1.9845850000    -6.3349760000
   38      H       4.4337350000     2.5365450000    -6.3702680000
   39      H       2.6938350000     2.5615030000    -6.8756090000
   40      H       3.5882390000     1.0111130000    -6.8618780000
   41      H       2.9405690000     1.6963270000     1.3215100000
   42      H      -0.4866550000    -9.1464710000    -0.7447390000
   43      H       0.8981840000    -9.1505700000     0.3990330000
   44      H      -0.8327130000    -1.4441580000    -0.6876830000
 ----------------------------------------------------------------

   11   -2755.2567902286      7.72e-07  Convergence criterion met
 Total energy in the final basis set =    -2755.2567902286
        RIMP2         total energy =     -2760.3705360948 a.u.

                    Orbital Energies (a.u.)
 --------------------------------------------------------------

 Alpha MOs
 -- Occupied --
-92.0117 -92.0088 -91.9740 -91.9551 -26.3386 -20.6171 -20.5860 -20.5842
-20.5584 -11.4177 -11.3790 -11.3255 -11.3141 -11.3076 -11.3036 -11.3026
-11.2966 -11.2912 -11.2828 -11.2819 -11.2808 -11.2762 -11.2737 -11.2724
-11.2682 -11.2554 -11.2517 -11.2465 -11.2300  -9.0122  -9.0113  -8.9762
 -8.9577  -6.6933  -6.6927  -6.6919  -6.6915  -6.6909  -6.6908  -6.6574
 -6.6565  -6.6553  -6.6390  -6.6381  -6.6370  -1.6517  -1.4774  -1.4083
 -1.4070  -1.3736  -1.2503  -1.2071  -1.1737  -1.1473  -1.0982  -1.0570
 -1.0436  -1.0345  -1.0064  -0.9957  -0.9765  -0.9600  -0.9474  -0.9410
 -0.8922  -0.8784  -0.8575  -0.8080  -0.7996  -0.7850  -0.7789  -0.7738
 -0.7586  -0.7345  -0.7229  -0.7168  -0.6979  -0.6942  -0.6845  -0.6830
 -0.6798  -0.6721  -0.6545  -0.6471  -0.6380  -0.6267  -0.6171  -0.6142
 -0.6128  -0.6109  -0.6049  -0.5931  -0.5788  -0.5678  -0.5572  -0.5554
 -0.5403  -0.5340  -0.5281  -0.5225  -0.5112  -0.5078  -0.5061  -0.4997
 -0.4916  -0.4815  -0.4700  -0.4684  -0.4653  -0.4629  -0.4546  -0.4429
 -0.4228  -0.3951  -0.3827  -0.3665  -0.3509  -0.3035  -0.2863  -0.2130

          Ground-State Mulliken Net Atomic Charges

     Atom                 Charge (a.u.)
  ----------------------------------------
      1 C                    -0.068735
      2 C                    -0.279489
      3 S                    -0.143207
      4 C                    -0.040818
      5 H                     0.190890
      6 C                    -0.054997
      7 C                     0.230865
      8 C                     0.225154
      9 C                    -0.070303
     10 C                    -0.057142
     11 O                    -0.335944
     12 O                    -0.344597
     13 C                    -0.082681
     14 H                     0.119320
     15 H                     0.092625
     16 H                     0.092309
     17 C                    -0.086730
     18 H                     0.123331
     19 H                     0.092009
     20 H                     0.089158
     21 C                    -0.278524
     22 S                    -0.109249
     23 C                     0.090175
     24 H                     0.196608
     25 C                    -0.200095
     26 S                     0.121529
     27 C                    -0.149667
     28 C                    -0.046297
     29 C                    -0.027512
     30 C                     0.357750
     31 C                    -0.118650
     32 S                     0.079825
     33 C                     0.459108
     34 O                    -0.437939
     35 O                    -0.296663
     36 F                    -0.214053
     37 C                    -0.054760
     38 H                     0.117759
     39 H                     0.086062
     40 H                     0.085981
     41 H                     0.220163
     42 H                     0.114755
     43 H                     0.112270
     44 H                     0.200407
  ----------------------------------------
  Sum of atomic charges =     0.000000

                    Cartesian Multipole Moments
 -----------------------------------------------------------------
    Charge (ESU x 10^10)
                 0.0000
    Dipole Moment (Debye)
         X       4.6696      Y       4.3730      Z       2.1053
       Tot       6.7350
    Quadrupole Moments (Debye-Ang)
        XX    -172.3224     XY      11.4855     YY    -195.9051
        XZ     -19.3095     YZ      -9.0118     ZZ    -197.4256

 Total job time:  336.27s(wall), 10969.56s(cpu)
        *  Thank you very much for using Q-Chem.  Have a nice day.  *
