 Q-Chem 5.4, Q-Chem, Inc., Pleasanton, CA (2021)
 Q-Chem 5.4.0 for Intel X86 EM64T Linux

User input:
--------------------------------------------------------------
$molecule
0 1
C	-0.255459	-8.519741	-0.093711
C	0.799036	-7.635967	0.083869
S	-1.789425	-7.651740	-0.345260
C	0.418360	-6.261894	0.018411
H	1.834294	-7.954738	0.259169
C	-0.987769	-6.079985	-0.229701
C	-1.555260	-4.798382	-0.302697
C	1.294992	-5.153542	0.196459
C	0.726408	-3.869626	0.127651
C	-0.680716	-3.688927	-0.123544
O	2.601852	-5.481075	0.396706
O	-2.868193	-4.479871	-0.502673
C	-3.691495	-5.356026	-1.262918
H	-4.614080	-4.790496	-1.494604
H	-3.974195	-6.268513	-0.693738
H	-3.199559	-5.658187	-2.212720
C	3.490743	-4.546999	0.997016
H	4.416630	-5.107564	1.226691
H	3.073934	-4.131473	1.939526
H	3.746794	-3.712085	0.309214
C	-1.058247	-2.314326	-0.186133
S	1.527599	-2.295487	0.256010
C	0.000000	-1.435180	0.000000
H	-2.092285	-1.993211	-0.363896
C	0.000000	0.000000	0.000000
S	0.080615	0.895811	1.510732
C	0.216842	2.465231	0.727629
C	0.079127	0.904769	-1.064665
C	0.198659	2.288406	-0.678287
C	0.074988	0.838492	-2.486150
C	0.185097	2.098524	-3.106916
S	0.290501	3.341568	-1.965735
C	0.211932	2.351623	-4.559972
O	0.133545	1.421416	-5.350277
O	0.326994	3.629649	-5.004375
F	-0.018214	-0.271734	-3.246290
C	0.368367	3.986101	-6.334976
H	0.465270	5.086806	-6.370268
H	-0.553140	3.675878	-6.875609
H	1.229874	3.519263	-6.861878
H	0.297091	3.381746	1.321510
H	-0.401636	-9.146471	0.793825
H	-0.103519	-9.150570	-0.977367
H	-0.179195	-1.444158	1.064992
$end

$rem
JOBTYPE		SP
EXCHANGE	HF
CORRELATION	pRIMP2
BASIS		cc-pvtz
METHOD		rimp2
AUX_BASIS	rimp2-cc-pvtz
SOLVENT_METHOD	PCM
PURECART	11111
SYMMETRY	false
MEM_TOTAL	110000
SCF_CONVERGENCE = 6
THRESH=10
GUI = 2
$end

$solvent
dielectric 4.90
$end
--------------------------------------------------------------

             Standard Nuclear Orientation (Angstroms)
    I     Atom           X                Y                Z
 ----------------------------------------------------------------
    1      C      -0.2554590000    -8.5197410000    -0.0937110000
    2      C       0.7990360000    -7.6359670000     0.0838690000
    3      S      -1.7894250000    -7.6517400000    -0.3452600000
    4      C       0.4183600000    -6.2618940000     0.0184110000
    5      H       1.8342940000    -7.9547380000     0.2591690000
    6      C      -0.9877690000    -6.0799850000    -0.2297010000
    7      C      -1.5552600000    -4.7983820000    -0.3026970000
    8      C       1.2949920000    -5.1535420000     0.1964590000
    9      C       0.7264080000    -3.8696260000     0.1276510000
   10      C      -0.6807160000    -3.6889270000    -0.1235440000
   11      O       2.6018520000    -5.4810750000     0.3967060000
   12      O      -2.8681930000    -4.4798710000    -0.5026730000
   13      C      -3.6914950000    -5.3560260000    -1.2629180000
   14      H      -4.6140800000    -4.7904960000    -1.4946040000
   15      H      -3.9741950000    -6.2685130000    -0.6937380000
   16      H      -3.1995590000    -5.6581870000    -2.2127200000
   17      C       3.4907430000    -4.5469990000     0.9970160000
   18      H       4.4166300000    -5.1075640000     1.2266910000
   19      H       3.0739340000    -4.1314730000     1.9395260000
   20      H       3.7467940000    -3.7120850000     0.3092140000
   21      C      -1.0582470000    -2.3143260000    -0.1861330000
   22      S       1.5275990000    -2.2954870000     0.2560100000
   23      C       0.0000000000    -1.4351800000     0.0000000000
   24      H      -2.0922850000    -1.9932110000    -0.3638960000
   25      C       0.0000000000     0.0000000000     0.0000000000
   26      S       0.0806150000     0.8958110000     1.5107320000
   27      C       0.2168420000     2.4652310000     0.7276290000
   28      C       0.0791270000     0.9047690000    -1.0646650000
   29      C       0.1986590000     2.2884060000    -0.6782870000
   30      C       0.0749880000     0.8384920000    -2.4861500000
   31      C       0.1850970000     2.0985240000    -3.1069160000
   32      S       0.2905010000     3.3415680000    -1.9657350000
   33      C       0.2119320000     2.3516230000    -4.5599720000
   34      O       0.1335450000     1.4214160000    -5.3502770000
   35      O       0.3269940000     3.6296490000    -5.0043750000
   36      F      -0.0182140000    -0.2717340000    -3.2462900000
   37      C       0.3683670000     3.9861010000    -6.3349760000
   38      H       0.4652700000     5.0868060000    -6.3702680000
   39      H      -0.5531400000     3.6758780000    -6.8756090000
   40      H       1.2298740000     3.5192630000    -6.8618780000
   41      H       0.2970910000     3.3817460000     1.3215100000
   42      H      -0.4016360000    -9.1464710000     0.7938250000
   43      H      -0.1035190000    -9.1505700000    -0.9773670000
   44      H      -0.1791950000    -1.4441580000     1.0649920000
 ----------------------------------------------------------------

   11   -2755.3265155121      7.48e-07  Convergence criterion met
 Total energy in the final basis set =    -2755.3265155121
        RIMP2         total energy =     -2760.4165355702 a.u.

                    Orbital Energies (a.u.)
 --------------------------------------------------------------

 Alpha MOs
 -- Occupied --
-92.0196 -91.9957 -91.9775 -91.9578 -26.3354 -20.6128 -20.5869 -20.5867
-20.5512 -11.4113 -11.3777 -11.3114 -11.3088 -11.3069 -11.2992 -11.2979
-11.2966 -11.2889 -11.2844 -11.2828 -11.2823 -11.2812 -11.2809 -11.2726
-11.2723 -11.2579 -11.2574 -11.2493 -11.2365  -9.0179  -8.9997  -8.9797
 -8.9604  -6.6986  -6.6980  -6.6975  -6.6810  -6.6803  -6.6790  -6.6608
 -6.6599  -6.6586  -6.6417  -6.6408  -6.6397  -1.6483  -1.4726  -1.4101
 -1.4086  -1.3680  -1.2378  -1.2089  -1.1751  -1.1440  -1.0991  -1.0501
 -1.0456  -1.0312  -1.0084  -0.9974  -0.9727  -0.9595  -0.9484  -0.9404
 -0.8931  -0.8715  -0.8647  -0.8082  -0.7939  -0.7848  -0.7779  -0.7740
 -0.7653  -0.7331  -0.7214  -0.7165  -0.6971  -0.6923  -0.6814  -0.6791
 -0.6726  -0.6641  -0.6561  -0.6483  -0.6318  -0.6307  -0.6197  -0.6145
 -0.6109  -0.6072  -0.5957  -0.5925  -0.5825  -0.5652  -0.5589  -0.5539
 -0.5494  -0.5353  -0.5282  -0.5224  -0.5130  -0.5073  -0.5035  -0.5012
 -0.4879  -0.4861  -0.4779  -0.4702  -0.4623  -0.4619  -0.4609  -0.4460
 -0.4231  -0.4031  -0.3851  -0.3701  -0.3511  -0.2923  -0.2890  -0.2209

          Ground-State Mulliken Net Atomic Charges

     Atom                 Charge (a.u.)
  ----------------------------------------
      1 C                    -0.070205
      2 C                    -0.260214
      3 S                    -0.135781
      4 C                    -0.043516
      5 H                     0.193311
      6 C                    -0.052341
      7 C                     0.228375
      8 C                     0.224986
      9 C                    -0.079318
     10 C                    -0.059525
     11 O                    -0.334877
     12 O                    -0.343558
     13 C                    -0.082356
     14 H                     0.119939
     15 H                     0.091593
     16 H                     0.093363
     17 C                    -0.086456
     18 H                     0.123045
     19 H                     0.091630
     20 H                     0.090618
     21 C                    -0.242043
     22 S                    -0.071601
     23 C                     0.065822
     24 H                     0.204353
     25 C                    -0.093224
     26 S                     0.103663
     27 C                    -0.238931
     28 C                    -0.075975
     29 C                    -0.002802
     30 C                     0.393113
     31 C                    -0.155941
     32 S                     0.039506
     33 C                     0.460229
     34 O                    -0.448634
     35 O                    -0.297568
     36 F                    -0.212369
     37 C                    -0.055146
     38 H                     0.116705
     39 H                     0.084754
     40 H                     0.084817
     41 H                     0.216889
     42 H                     0.117078
     43 H                     0.115085
     44 H                     0.183507
  ----------------------------------------
  Sum of atomic charges =     0.000000

                    Cartesian Multipole Moments
 -----------------------------------------------------------------
    Charge (ESU x 10^10)
                -0.0000
    Dipole Moment (Debye)
         X       0.3439      Y       3.8341      Z       3.7545
       Tot       5.3773
    Quadrupole Moments (Debye-Ang)
        XX    -187.2279     XY      -2.2071     YY    -174.7161
        XZ       6.8357     YZ     -11.3455     ZZ    -201.5760

 Total job time:  326.06s(wall), 10593.94s(cpu)
        *  Thank you very much for using Q-Chem.  Have a nice day.  *
