 Q-Chem 5.4, Q-Chem, Inc., Pleasanton, CA (2021)
 Q-Chem 5.4.0 for Intel X86 EM64T Linux

User input:
--------------------------------------------------------------
$molecule
0 1
C	-0.208002	-8.519741	-0.175432
C	0.722164	-7.635967	0.352097
S	-1.563424	-7.651740	-0.936458
C	0.386833	-6.261894	0.160388
H	1.635031	-7.954738	0.870905
C	-0.849637	-6.079985	-0.553685
C	-1.357938	-4.798382	-0.816372
C	1.149702	-5.153542	0.627524
C	0.638941	-3.869626	0.368399
C	-0.597409	-3.688927	-0.348912
O	2.309260	-5.481075	1.262667
O	-2.523296	-4.479871	-1.453338
C	-3.036927	-5.356026	-2.449320
H	-3.824632	-4.790496	-2.982577
H	-3.497250	-6.268513	-2.011155
H	-2.249807	-5.658187	-3.173591
C	2.939226	-4.546999	2.130793
H	3.730721	-5.107564	2.663289
H	2.225196	-4.131473	2.873906
H	3.415077	-3.712085	1.572045
C	-0.930765	-2.314326	-0.536849
S	1.347913	-2.295487	0.763041
C	0.000000	-1.435180	0.000000
H	-1.841645	-1.993211	-1.057554
C	0.000000	0.000000	0.000000
S	0.080615	0.895811	1.510732
C	0.216842	2.465231	0.727629
C	0.079127	0.904769	-1.064665
C	0.198659	2.288406	-0.678287
C	0.074988	0.838492	-2.486150
C	0.185097	2.098524	-3.106916
S	0.290501	3.341568	-1.965735
C	0.211932	2.351623	-4.559972
O	0.133545	1.421416	-5.350277
O	0.326994	3.629649	-5.004375
F	-0.018214	-0.271734	-3.246290
C	0.368367	3.986101	-6.334976
H	0.465270	5.086806	-6.370268
H	-0.553140	3.675878	-6.875609
H	1.229874	3.519263	-6.861878
H	0.297091	3.381746	1.321510
H	-0.648918	-9.146471	0.608584
H	0.237003	-9.150570	-0.953830
H	-0.532637	-1.444158	0.939477
$end

$rem
JOBTYPE		SP
EXCHANGE	HF
CORRELATION	pRIMP2
BASIS		cc-pvtz
METHOD		rimp2
AUX_BASIS	rimp2-cc-pvtz
SOLVENT_METHOD	PCM
PURECART	11111
SYMMETRY	false
MEM_TOTAL	110000
SCF_CONVERGENCE = 6
THRESH=10
GUI = 2
$end

$solvent
dielectric 4.90
$end
--------------------------------------------------------------

             Standard Nuclear Orientation (Angstroms)
    I     Atom           X                Y                Z
 ----------------------------------------------------------------
    1      C      -0.2080020000    -8.5197410000    -0.1754320000
    2      C       0.7221640000    -7.6359670000     0.3520970000
    3      S      -1.5634240000    -7.6517400000    -0.9364580000
    4      C       0.3868330000    -6.2618940000     0.1603880000
    5      H       1.6350310000    -7.9547380000     0.8709050000
    6      C      -0.8496370000    -6.0799850000    -0.5536850000
    7      C      -1.3579380000    -4.7983820000    -0.8163720000
    8      C       1.1497020000    -5.1535420000     0.6275240000
    9      C       0.6389410000    -3.8696260000     0.3683990000
   10      C      -0.5974090000    -3.6889270000    -0.3489120000
   11      O       2.3092600000    -5.4810750000     1.2626670000
   12      O      -2.5232960000    -4.4798710000    -1.4533380000
   13      C      -3.0369270000    -5.3560260000    -2.4493200000
   14      H      -3.8246320000    -4.7904960000    -2.9825770000
   15      H      -3.4972500000    -6.2685130000    -2.0111550000
   16      H      -2.2498070000    -5.6581870000    -3.1735910000
   17      C       2.9392260000    -4.5469990000     2.1307930000
   18      H       3.7307210000    -5.1075640000     2.6632890000
   19      H       2.2251960000    -4.1314730000     2.8739060000
   20      H       3.4150770000    -3.7120850000     1.5720450000
   21      C      -0.9307650000    -2.3143260000    -0.5368490000
   22      S       1.3479130000    -2.2954870000     0.7630410000
   23      C       0.0000000000    -1.4351800000     0.0000000000
   24      H      -1.8416450000    -1.9932110000    -1.0575540000
   25      C       0.0000000000     0.0000000000     0.0000000000
   26      S       0.0806150000     0.8958110000     1.5107320000
   27      C       0.2168420000     2.4652310000     0.7276290000
   28      C       0.0791270000     0.9047690000    -1.0646650000
   29      C       0.1986590000     2.2884060000    -0.6782870000
   30      C       0.0749880000     0.8384920000    -2.4861500000
   31      C       0.1850970000     2.0985240000    -3.1069160000
   32      S       0.2905010000     3.3415680000    -1.9657350000
   33      C       0.2119320000     2.3516230000    -4.5599720000
   34      O       0.1335450000     1.4214160000    -5.3502770000
   35      O       0.3269940000     3.6296490000    -5.0043750000
   36      F      -0.0182140000    -0.2717340000    -3.2462900000
   37      C       0.3683670000     3.9861010000    -6.3349760000
   38      H       0.4652700000     5.0868060000    -6.3702680000
   39      H      -0.5531400000     3.6758780000    -6.8756090000
   40      H       1.2298740000     3.5192630000    -6.8618780000
   41      H       0.2970910000     3.3817460000     1.3215100000
   42      H      -0.6489180000    -9.1464710000     0.6085840000
   43      H       0.2370030000    -9.1505700000    -0.9538300000
   44      H      -0.5326370000    -1.4441580000     0.9394770000
 ----------------------------------------------------------------

   11   -2755.3266409245      7.81e-07  Convergence criterion met
 Total energy in the final basis set =    -2755.3266409245
        RIMP2         total energy =     -2760.4164875747 a.u.

                    Orbital Energies (a.u.)
 --------------------------------------------------------------

 Alpha MOs
 -- Occupied --
-92.0181 -91.9949 -91.9790 -91.9580 -26.3360 -20.6126 -20.5872 -20.5868
-20.5507 -11.4109 -11.3782 -11.3147 -11.3090 -11.3076 -11.2981 -11.2974
-11.2946 -11.2888 -11.2848 -11.2835 -11.2822 -11.2820 -11.2807 -11.2729
-11.2729 -11.2582 -11.2582 -11.2495 -11.2368  -9.0165  -8.9990  -8.9813
 -8.9606  -6.6972  -6.6967  -6.6962  -6.6802  -6.6796  -6.6782  -6.6624
 -6.6615  -6.6602  -6.6419  -6.6409  -6.6399  -1.6489  -1.4723  -1.4105
 -1.4086  -1.3677  -1.2379  -1.2095  -1.1754  -1.1440  -1.0995  -1.0500
 -1.0462  -1.0308  -1.0088  -0.9981  -0.9725  -0.9597  -0.9487  -0.9404
 -0.8937  -0.8715  -0.8647  -0.8077  -0.7951  -0.7854  -0.7781  -0.7728
 -0.7653  -0.7330  -0.7217  -0.7169  -0.6975  -0.6924  -0.6819  -0.6789
 -0.6725  -0.6649  -0.6564  -0.6484  -0.6342  -0.6304  -0.6199  -0.6146
 -0.6109  -0.6069  -0.5953  -0.5927  -0.5815  -0.5667  -0.5587  -0.5525
 -0.5494  -0.5361  -0.5296  -0.5228  -0.5135  -0.5076  -0.5039  -0.5009
 -0.4875  -0.4853  -0.4787  -0.4714  -0.4623  -0.4617  -0.4606  -0.4460
 -0.4255  -0.4021  -0.3856  -0.3705  -0.3514  -0.2929  -0.2875  -0.2200

          Ground-State Mulliken Net Atomic Charges

     Atom                 Charge (a.u.)
  ----------------------------------------
      1 C                    -0.070225
      2 C                    -0.259606
      3 S                    -0.134957
      4 C                    -0.044188
      5 H                     0.193358
      6 C                    -0.051475
      7 C                     0.226167
      8 C                     0.225950
      9 C                    -0.078523
     10 C                    -0.059998
     11 O                    -0.334628
     12 O                    -0.343609
     13 C                    -0.082322
     14 H                     0.120213
     15 H                     0.091496
     16 H                     0.093424
     17 C                    -0.087000
     18 H                     0.123354
     19 H                     0.091940
     20 H                     0.090275
     21 C                    -0.242330
     22 S                    -0.071477
     23 C                     0.075457
     24 H                     0.206725
     25 C                    -0.111924
     26 S                     0.098552
     27 C                    -0.239513
     28 C                    -0.061185
     29 C                    -0.006980
     30 C                     0.391264
     31 C                    -0.152008
     32 S                     0.036039
     33 C                     0.460338
     34 O                    -0.449873
     35 O                    -0.297680
     36 F                    -0.212753
     37 C                    -0.055163
     38 H                     0.116691
     39 H                     0.084612
     40 H                     0.084735
     41 H                     0.216312
     42 H                     0.117223
     43 H                     0.115173
     44 H                     0.188121
  ----------------------------------------
  Sum of atomic charges =     0.000000

                    Cartesian Multipole Moments
 -----------------------------------------------------------------
    Charge (ESU x 10^10)
                -0.0000
    Dipole Moment (Debye)
         X       0.1242      Y       3.4868      Z       3.7915
       Tot       5.1525
    Quadrupole Moments (Debye-Ang)
        XX    -193.3590     XY      -1.8556     YY    -174.3076
        XZ       8.2591     YZ     -12.4727     ZZ    -195.6982

 Total job time:  324.44s(wall), 10510.01s(cpu)
        *  Thank you very much for using Q-Chem.  Have a nice day.  *
