 Q-Chem 5.4, Q-Chem, Inc., Pleasanton, CA (2021)
 Q-Chem 5.4.0 for Intel X86 EM64T Linux

User input:
--------------------------------------------------------------
$molecule
0 1
C	0.175432	-8.519741	-0.208002
C	-0.352097	-7.635967	0.722164
S	0.936458	-7.651740	-1.563424
C	-0.160388	-6.261894	0.386833
H	-0.870905	-7.954738	1.635031
C	0.553685	-6.079985	-0.849637
C	0.816372	-4.798382	-1.357938
C	-0.627524	-5.153542	1.149702
C	-0.368399	-3.869626	0.638941
C	0.348912	-3.688927	-0.597409
O	-1.262667	-5.481075	2.309260
O	1.453338	-4.479871	-2.523296
C	2.449320	-5.356026	-3.036927
H	2.982577	-4.790496	-3.824632
H	2.011155	-6.268513	-3.497250
H	3.173591	-5.658187	-2.249807
C	-2.130793	-4.546999	2.939226
H	-2.663289	-5.107564	3.730721
H	-2.873906	-4.131473	2.225196
H	-1.572045	-3.712085	3.415077
C	0.536849	-2.314326	-0.930765
S	-0.763041	-2.295487	1.347913
C	-0.000000	-1.435180	-0.000000
H	1.057554	-1.993211	-1.841645
C	0.000000	0.000000	0.000000
S	0.451648	0.777811	1.510732
C	1.238377	2.142617	0.727629
C	0.454085	0.786559	-1.064665
C	1.147169	1.990043	-0.678287
C	0.422325	0.728240	-2.486150
C	1.054629	1.823683	-3.106916
S	1.675491	2.905718	-1.965735
C	1.185914	2.041729	-4.559972
O	0.721749	1.231802	-5.350277
O	1.830313	3.151386	-5.004375
F	-0.131347	-0.238577	-3.246290
C	2.018453	3.456956	-6.334976
H	2.571455	4.413580	-6.370268
H	1.052178	3.565244	-6.875609
H	2.601950	2.669768	-6.861878
H	1.698444	2.939346	1.321510
H	-0.608584	-9.146471	-0.648918
H	0.953830	-9.150570	0.237003
H	-0.939477	-1.444158	-0.532637
$end

$rem
JOBTYPE		SP
EXCHANGE	HF
CORRELATION	pRIMP2
BASIS		cc-pvtz
METHOD		rimp2
AUX_BASIS	rimp2-cc-pvtz
SOLVENT_METHOD	PCM
PURECART	11111
SYMMETRY	false
MEM_TOTAL	110000
SCF_CONVERGENCE = 6
THRESH=10
GUI = 2
$end

$solvent
dielectric 4.90
$end
--------------------------------------------------------------

             Standard Nuclear Orientation (Angstroms)
    I     Atom           X                Y                Z
 ----------------------------------------------------------------
    1      C       0.1754320000    -8.5197410000    -0.2080020000
    2      C      -0.3520970000    -7.6359670000     0.7221640000
    3      S       0.9364580000    -7.6517400000    -1.5634240000
    4      C      -0.1603880000    -6.2618940000     0.3868330000
    5      H      -0.8709050000    -7.9547380000     1.6350310000
    6      C       0.5536850000    -6.0799850000    -0.8496370000
    7      C       0.8163720000    -4.7983820000    -1.3579380000
    8      C      -0.6275240000    -5.1535420000     1.1497020000
    9      C      -0.3683990000    -3.8696260000     0.6389410000
   10      C       0.3489120000    -3.6889270000    -0.5974090000
   11      O      -1.2626670000    -5.4810750000     2.3092600000
   12      O       1.4533380000    -4.4798710000    -2.5232960000
   13      C       2.4493200000    -5.3560260000    -3.0369270000
   14      H       2.9825770000    -4.7904960000    -3.8246320000
   15      H       2.0111550000    -6.2685130000    -3.4972500000
   16      H       3.1735910000    -5.6581870000    -2.2498070000
   17      C      -2.1307930000    -4.5469990000     2.9392260000
   18      H      -2.6632890000    -5.1075640000     3.7307210000
   19      H      -2.8739060000    -4.1314730000     2.2251960000
   20      H      -1.5720450000    -3.7120850000     3.4150770000
   21      C       0.5368490000    -2.3143260000    -0.9307650000
   22      S      -0.7630410000    -2.2954870000     1.3479130000
   23      C       0.0000000000    -1.4351800000     0.0000000000
   24      H       1.0575540000    -1.9932110000    -1.8416450000
   25      C       0.0000000000     0.0000000000     0.0000000000
   26      S       0.4516480000     0.7778110000     1.5107320000
   27      C       1.2383770000     2.1426170000     0.7276290000
   28      C       0.4540850000     0.7865590000    -1.0646650000
   29      C       1.1471690000     1.9900430000    -0.6782870000
   30      C       0.4223250000     0.7282400000    -2.4861500000
   31      C       1.0546290000     1.8236830000    -3.1069160000
   32      S       1.6754910000     2.9057180000    -1.9657350000
   33      C       1.1859140000     2.0417290000    -4.5599720000
   34      O       0.7217490000     1.2318020000    -5.3502770000
   35      O       1.8303130000     3.1513860000    -5.0043750000
   36      F      -0.1313470000    -0.2385770000    -3.2462900000
   37      C       2.0184530000     3.4569560000    -6.3349760000
   38      H       2.5714550000     4.4135800000    -6.3702680000
   39      H       1.0521780000     3.5652440000    -6.8756090000
   40      H       2.6019500000     2.6697680000    -6.8618780000
   41      H       1.6984440000     2.9393460000     1.3215100000
   42      H      -0.6085840000    -9.1464710000    -0.6489180000
   43      H       0.9538300000    -9.1505700000     0.2370030000
   44      H      -0.9394770000    -1.4441580000    -0.5326370000
 ----------------------------------------------------------------

   11   -2755.3085325000      7.27e-07  Convergence criterion met
 Total energy in the final basis set =    -2755.3085325000
        RIMP2         total energy =     -2760.4073438523 a.u.

                    Orbital Energies (a.u.)
 --------------------------------------------------------------

 Alpha MOs
 -- Occupied --
-92.0137 -91.9966 -91.9810 -91.9585 -26.3386 -20.6127 -20.5883 -20.5869
-20.5506 -11.4110 -11.3792 -11.3130 -11.3096 -11.3095 -11.2987 -11.2983
-11.2941 -11.2889 -11.2854 -11.2846 -11.2830 -11.2824 -11.2823 -11.2738
-11.2732 -11.2590 -11.2589 -11.2501 -11.2383  -9.0124  -9.0006  -8.9831
 -8.9610  -6.6932  -6.6924  -6.6920  -6.6818  -6.6812  -6.6798  -6.6643
 -6.6634  -6.6621  -6.6423  -6.6413  -6.6403  -1.6520  -1.4724  -1.4116
 -1.4088  -1.3678  -1.2403  -1.2098  -1.1762  -1.1442  -1.1002  -1.0521
 -1.0472  -1.0296  -1.0093  -0.9992  -0.9725  -0.9601  -0.9494  -0.9412
 -0.8949  -0.8741  -0.8621  -0.8083  -0.7965  -0.7868  -0.7771  -0.7726
 -0.7621  -0.7342  -0.7219  -0.7186  -0.6983  -0.6935  -0.6855  -0.6792
 -0.6741  -0.6727  -0.6568  -0.6488  -0.6384  -0.6282  -0.6205  -0.6150
 -0.6109  -0.6070  -0.5963  -0.5944  -0.5800  -0.5692  -0.5592  -0.5548
 -0.5440  -0.5348  -0.5305  -0.5233  -0.5132  -0.5083  -0.5064  -0.5020
 -0.4864  -0.4842  -0.4766  -0.4692  -0.4622  -0.4612  -0.4608  -0.4469
 -0.4297  -0.3982  -0.3869  -0.3706  -0.3506  -0.2942  -0.2869  -0.2174

          Ground-State Mulliken Net Atomic Charges

     Atom                 Charge (a.u.)
  ----------------------------------------
      1 C                    -0.070505
      2 C                    -0.256556
      3 S                    -0.134225
      4 C                    -0.048530
      5 H                     0.193812
      6 C                    -0.051830
      7 C                     0.224175
      8 C                     0.233561
      9 C                    -0.073362
     10 C                    -0.037359
     11 O                    -0.334113
     12 O                    -0.342922
     13 C                    -0.082866
     14 H                     0.120769
     15 H                     0.092270
     16 H                     0.092519
     17 C                    -0.087740
     18 H                     0.124632
     19 H                     0.093224
     20 H                     0.089924
     21 C                    -0.310485
     22 S                    -0.093484
     23 C                     0.114805
     24 H                     0.202556
     25 C                    -0.055524
     26 S                     0.108349
     27 C                    -0.243844
     28 C                    -0.107284
     29 C                    -0.005653
     30 C                     0.361459
     31 C                    -0.144416
     32 S                     0.046142
     33 C                     0.460682
     34 O                    -0.450608
     35 O                    -0.298176
     36 F                    -0.214771
     37 C                    -0.054935
     38 H                     0.116806
     39 H                     0.084653
     40 H                     0.084574
     41 H                     0.214389
     42 H                     0.117965
     43 H                     0.115536
     44 H                     0.206386
  ----------------------------------------
  Sum of atomic charges =     0.000000

                    Cartesian Multipole Moments
 -----------------------------------------------------------------
    Charge (ESU x 10^10)
                 0.0000
    Dipole Moment (Debye)
         X       1.1302      Y       2.6440      Z       3.0632
       Tot       4.2013
    Quadrupole Moments (Debye-Ang)
        XX    -186.8938     XY       9.0224     YY    -175.6994
        XZ     -14.9471     YZ     -12.9161     ZZ    -198.3479

 Total job time:  332.52s(wall), 10467.90s(cpu)
        *  Thank you very much for using Q-Chem.  Have a nice day.  *
