 Q-Chem 5.4, Q-Chem, Inc., Pleasanton, CA (2021)
 Q-Chem 5.4.0 for Intel X86 EM64T Linux

User input:
--------------------------------------------------------------
$molecule
0 1
C	-0.268090	-8.519741	0.046574
C	0.733920	-7.635967	-0.326886
S	-1.722318	-7.651740	0.595708
C	0.371516	-6.261894	-0.193236
H	1.718130	-7.954738	-0.692700
C	-0.970283	-6.079985	0.294958
C	-1.498243	-4.798382	0.515487
C	1.219725	-5.153542	-0.477358
C	0.692914	-3.869626	-0.252655
C	-0.651289	-3.688927	0.233366
O	2.451623	-5.481075	-0.957369
O	-2.735264	-4.479871	0.998769
C	-3.828387	-5.356026	0.752029
H	-4.743213	-4.790496	1.012675
H	-3.788623	-6.268513	1.386303
H	-3.877260	-5.658187	-0.316492
C	3.521580	-4.546999	-0.881930
H	4.438260	-5.107564	-1.145969
H	3.631868	-4.131473	0.142712
H	3.399425	-3.712085	-1.605610
C	-1.009535	-2.314326	0.367928
S	1.450945	-2.295487	-0.542088
C	0.000000	-1.435180	0.000000
H	-1.993920	-1.993211	0.730999
C	0.000000	0.000000	0.000000
S	0.080615	0.895811	1.510732
C	0.216842	2.465231	0.727629
C	0.079127	0.904769	-1.064665
C	0.198659	2.288406	-0.678287
C	0.074988	0.838492	-2.486150
C	0.185097	2.098524	-3.106916
S	0.290501	3.341568	-1.965735
C	0.211932	2.351623	-4.559972
O	0.133545	1.421416	-5.350277
O	0.326994	3.629649	-5.004375
F	-0.018214	-0.271734	-3.246290
C	0.368367	3.986101	-6.334976
H	0.465270	5.086806	-6.370268
H	-0.553140	3.675878	-6.875609
H	1.229874	3.519263	-6.861878
H	0.297091	3.381746	1.321510
H	0.049086	-9.146471	0.888291
H	-0.578334	-9.150570	-0.794665
H	0.377309	-1.444158	1.011908
$end

$rem
JOBTYPE		SP
EXCHANGE	HF
CORRELATION	pRIMP2
BASIS		cc-pvtz
METHOD		rimp2
AUX_BASIS	rimp2-cc-pvtz
SOLVENT_METHOD	PCM
PURECART	11111
SYMMETRY	false
MEM_TOTAL	110000
SCF_CONVERGENCE = 6
THRESH=10
GUI = 2
$end

$solvent
dielectric 4.90
$end
--------------------------------------------------------------

             Standard Nuclear Orientation (Angstroms)
    I     Atom           X                Y                Z
 ----------------------------------------------------------------
    1      C      -0.2680900000    -8.5197410000     0.0465740000
    2      C       0.7339200000    -7.6359670000    -0.3268860000
    3      S      -1.7223180000    -7.6517400000     0.5957080000
    4      C       0.3715160000    -6.2618940000    -0.1932360000
    5      H       1.7181300000    -7.9547380000    -0.6927000000
    6      C      -0.9702830000    -6.0799850000     0.2949580000
    7      C      -1.4982430000    -4.7983820000     0.5154870000
    8      C       1.2197250000    -5.1535420000    -0.4773580000
    9      C       0.6929140000    -3.8696260000    -0.2526550000
   10      C      -0.6512890000    -3.6889270000     0.2333660000
   11      O       2.4516230000    -5.4810750000    -0.9573690000
   12      O      -2.7352640000    -4.4798710000     0.9987690000
   13      C      -3.8283870000    -5.3560260000     0.7520290000
   14      H      -4.7432130000    -4.7904960000     1.0126750000
   15      H      -3.7886230000    -6.2685130000     1.3863030000
   16      H      -3.8772600000    -5.6581870000    -0.3164920000
   17      C       3.5215800000    -4.5469990000    -0.8819300000
   18      H       4.4382600000    -5.1075640000    -1.1459690000
   19      H       3.6318680000    -4.1314730000     0.1427120000
   20      H       3.3994250000    -3.7120850000    -1.6056100000
   21      C      -1.0095350000    -2.3143260000     0.3679280000
   22      S       1.4509450000    -2.2954870000    -0.5420880000
   23      C       0.0000000000    -1.4351800000     0.0000000000
   24      H      -1.9939200000    -1.9932110000     0.7309990000
   25      C       0.0000000000     0.0000000000     0.0000000000
   26      S       0.0806150000     0.8958110000     1.5107320000
   27      C       0.2168420000     2.4652310000     0.7276290000
   28      C       0.0791270000     0.9047690000    -1.0646650000
   29      C       0.1986590000     2.2884060000    -0.6782870000
   30      C       0.0749880000     0.8384920000    -2.4861500000
   31      C       0.1850970000     2.0985240000    -3.1069160000
   32      S       0.2905010000     3.3415680000    -1.9657350000
   33      C       0.2119320000     2.3516230000    -4.5599720000
   34      O       0.1335450000     1.4214160000    -5.3502770000
   35      O       0.3269940000     3.6296490000    -5.0043750000
   36      F      -0.0182140000    -0.2717340000    -3.2462900000
   37      C       0.3683670000     3.9861010000    -6.3349760000
   38      H       0.4652700000     5.0868060000    -6.3702680000
   39      H      -0.5531400000     3.6758780000    -6.8756090000
   40      H       1.2298740000     3.5192630000    -6.8618780000
   41      H       0.2970910000     3.3817460000     1.3215100000
   42      H       0.0490860000    -9.1464710000     0.8882910000
   43      H      -0.5783340000    -9.1505700000    -0.7946650000
   44      H       0.3773090000    -1.4441580000     1.0119080000
 ----------------------------------------------------------------

   11   -2755.3260628938      7.82e-07  Convergence criterion met
 Total energy in the final basis set =    -2755.3260628938
        RIMP2         total energy =     -2760.4158869079 a.u.

                    Orbital Energies (a.u.)
 --------------------------------------------------------------

 Alpha MOs
 -- Occupied --
-92.0188 -91.9952 -91.9781 -91.9580 -26.3349 -20.6126 -20.5872 -20.5866
-20.5507 -11.4109 -11.3779 -11.3138 -11.3090 -11.3071 -11.2985 -11.2977
-11.2954 -11.2887 -11.2842 -11.2830 -11.2827 -11.2816 -11.2811 -11.2729
-11.2728 -11.2580 -11.2578 -11.2494 -11.2366  -9.0172  -8.9993  -8.9802
 -8.9606  -6.6979  -6.6973  -6.6968  -6.6805  -6.6799  -6.6785  -6.6613
 -6.6604  -6.6591  -6.6419  -6.6409  -6.6399  -1.6478  -1.4723  -1.4102
 -1.4089  -1.3676  -1.2381  -1.2092  -1.1753  -1.1441  -1.0993  -1.0502
 -1.0457  -1.0313  -1.0084  -0.9977  -0.9725  -0.9596  -0.9485  -0.9406
 -0.8932  -0.8713  -0.8648  -0.8096  -0.7926  -0.7852  -0.7768  -0.7737
 -0.7655  -0.7332  -0.7212  -0.7160  -0.6970  -0.6923  -0.6819  -0.6789
 -0.6722  -0.6647  -0.6562  -0.6485  -0.6349  -0.6289  -0.6198  -0.6147
 -0.6107  -0.6069  -0.5957  -0.5927  -0.5824  -0.5644  -0.5613  -0.5563
 -0.5500  -0.5344  -0.5279  -0.5216  -0.5127  -0.5075  -0.5034  -0.5017
 -0.4871  -0.4858  -0.4775  -0.4697  -0.4618  -0.4617  -0.4611  -0.4464
 -0.4242  -0.4024  -0.3857  -0.3702  -0.3514  -0.2925  -0.2887  -0.2204

          Ground-State Mulliken Net Atomic Charges

     Atom                 Charge (a.u.)
  ----------------------------------------
      1 C                    -0.070095
      2 C                    -0.259797
      3 S                    -0.135908
      4 C                    -0.044293
      5 H                     0.193403
      6 C                    -0.051839
      7 C                     0.227239
      8 C                     0.225668
      9 C                    -0.075948
     10 C                    -0.050930
     11 O                    -0.334855
     12 O                    -0.343608
     13 C                    -0.082573
     14 H                     0.119819
     15 H                     0.091903
     16 H                     0.093309
     17 C                    -0.086549
     18 H                     0.123187
     19 H                     0.091777
     20 H                     0.091162
     21 C                    -0.263823
     22 S                    -0.072167
     23 C                     0.083505
     24 H                     0.203787
     25 C                    -0.084973
     26 S                     0.101122
     27 C                    -0.240452
     28 C                    -0.095114
     29 C                    -0.003524
     30 C                     0.400499
     31 C                    -0.155472
     32 S                     0.037517
     33 C                     0.460849
     34 O                    -0.449030
     35 O                    -0.297704
     36 F                    -0.211824
     37 C                    -0.055148
     38 H                     0.116625
     39 H                     0.084784
     40 H                     0.084688
     41 H                     0.216377
     42 H                     0.117111
     43 H                     0.115134
     44 H                     0.186163
  ----------------------------------------
  Sum of atomic charges =     0.000000

                    Cartesian Multipole Moments
 -----------------------------------------------------------------
    Charge (ESU x 10^10)
                 0.0000
    Dipole Moment (Debye)
         X       0.6515      Y       3.6565      Z       3.6721
       Tot       5.2229
    Quadrupole Moments (Debye-Ang)
        XX    -182.8762     XY      -2.1525     YY    -174.7102
        XZ      -1.4337     YZ      -9.3183     ZZ    -206.0361

 Total job time:  329.78s(wall), 10674.47s(cpu)
        *  Thank you very much for using Q-Chem.  Have a nice day.  *
