 Q-Chem 5.4, Q-Chem, Inc., Pleasanton, CA (2021)
 Q-Chem 5.4.0 for Intel X86 EM64T Linux

User input:
--------------------------------------------------------------
$molecule
0 1
C	0.136647	-8.519741	-0.235306
C	-0.221346	-7.635967	0.772334
S	0.650746	-7.651740	-1.702286
C	-0.090779	-6.261894	0.408807
H	-0.573754	-7.954738	1.761423
C	0.397735	-6.079985	-0.932876
C	0.568166	-4.798382	-1.479069
C	-0.418347	-5.153542	1.241204
C	-0.251852	-3.869626	0.693206
C	0.239872	-3.688927	-0.648921
O	-0.842486	-5.481075	2.493437
O	0.993092	-4.479871	-2.737331
C	1.884752	-5.356026	-3.416110
H	2.273124	-4.790496	-4.284447
H	1.373310	-6.268513	-3.793352
H	2.734702	-5.658187	-2.766716
C	-1.588030	-4.546999	3.264581
H	-1.974995	-5.107564	4.136519
H	-2.443843	-4.131473	2.690439
H	-0.955140	-3.712085	3.636177
C	0.367068	-2.314326	-1.009848
S	-0.517386	-2.295487	1.459936
C	-0.000000	-1.435180	-0.000000
H	0.721689	-1.993211	-1.997308
C	0.000000	0.000000	0.000000
S	0.690437	0.576430	1.510732
C	1.896512	1.589852	0.727629
C	0.695720	0.583817	-1.064665
C	1.758621	1.477674	-0.678287
C	0.645928	0.539878	-2.486150
C	1.614763	1.352997	-3.106916
S	2.568261	2.157430	-1.965735
C	1.812707	1.512991	-4.559972
O	1.099523	0.910662	-5.350277
O	2.797769	2.335330	-5.004375
F	-0.205024	-0.179266	-3.246290
C	3.079074	2.558124	-6.334976
H	3.925910	3.267919	-6.370268
H	2.208109	2.990367	-6.875609
H	3.358147	1.618843	-6.861878
H	2.601331	2.181180	1.321510
H	-0.712022	-9.146471	-0.533380
H	0.980494	-9.150570	0.067771
H	-1.017696	-1.444158	-0.361406
$end

$rem
JOBTYPE		SP
EXCHANGE	HF
CORRELATION	pRIMP2
BASIS		cc-pvtz
METHOD		rimp2
AUX_BASIS	rimp2-cc-pvtz
SOLVENT_METHOD	PCM
PURECART	11111
SYMMETRY	false
MEM_TOTAL	110000
SCF_CONVERGENCE = 6
THRESH=10
GUI = 2
$end

$solvent
dielectric 4.90
$end
--------------------------------------------------------------

             Standard Nuclear Orientation (Angstroms)
    I     Atom           X                Y                Z
 ----------------------------------------------------------------
    1      C       0.1366470000    -8.5197410000    -0.2353060000
    2      C      -0.2213460000    -7.6359670000     0.7723340000
    3      S       0.6507460000    -7.6517400000    -1.7022860000
    4      C      -0.0907790000    -6.2618940000     0.4088070000
    5      H      -0.5737540000    -7.9547380000     1.7614230000
    6      C       0.3977350000    -6.0799850000    -0.9328760000
    7      C       0.5681660000    -4.7983820000    -1.4790690000
    8      C      -0.4183470000    -5.1535420000     1.2412040000
    9      C      -0.2518520000    -3.8696260000     0.6932060000
   10      C       0.2398720000    -3.6889270000    -0.6489210000
   11      O      -0.8424860000    -5.4810750000     2.4934370000
   12      O       0.9930920000    -4.4798710000    -2.7373310000
   13      C       1.8847520000    -5.3560260000    -3.4161100000
   14      H       2.2731240000    -4.7904960000    -4.2844470000
   15      H       1.3733100000    -6.2685130000    -3.7933520000
   16      H       2.7347020000    -5.6581870000    -2.7667160000
   17      C      -1.5880300000    -4.5469990000     3.2645810000
   18      H      -1.9749950000    -5.1075640000     4.1365190000
   19      H      -2.4438430000    -4.1314730000     2.6904390000
   20      H      -0.9551400000    -3.7120850000     3.6361770000
   21      C       0.3670680000    -2.3143260000    -1.0098480000
   22      S      -0.5173860000    -2.2954870000     1.4599360000
   23      C       0.0000000000    -1.4351800000     0.0000000000
   24      H       0.7216890000    -1.9932110000    -1.9973080000
   25      C       0.0000000000     0.0000000000     0.0000000000
   26      S       0.6904370000     0.5764300000     1.5107320000
   27      C       1.8965120000     1.5898520000     0.7276290000
   28      C       0.6957200000     0.5838170000    -1.0646650000
   29      C       1.7586210000     1.4776740000    -0.6782870000
   30      C       0.6459280000     0.5398780000    -2.4861500000
   31      C       1.6147630000     1.3529970000    -3.1069160000
   32      S       2.5682610000     2.1574300000    -1.9657350000
   33      C       1.8127070000     1.5129910000    -4.5599720000
   34      O       1.0995230000     0.9106620000    -5.3502770000
   35      O       2.7977690000     2.3353300000    -5.0043750000
   36      F      -0.2050240000    -0.1792660000    -3.2462900000
   37      C       3.0790740000     2.5581240000    -6.3349760000
   38      H       3.9259100000     3.2679190000    -6.3702680000
   39      H       2.2081090000     2.9903670000    -6.8756090000
   40      H       3.3581470000     1.6188430000    -6.8618780000
   41      H       2.6013310000     2.1811800000     1.3215100000
   42      H      -0.7120220000    -9.1464710000    -0.5333800000
   43      H       0.9804940000    -9.1505700000     0.0677710000
   44      H      -1.0176960000    -1.4441580000    -0.3614060000
 ----------------------------------------------------------------

   11   -2755.2706847853      6.98e-07  Convergence criterion met
 Total energy in the final basis set =    -2755.2706847853
        RIMP2         total energy =     -2760.3824870704 a.u.

                    Orbital Energies (a.u.)
 --------------------------------------------------------------

 Alpha MOs
 -- Occupied --
-92.0127 -92.0023 -91.9785 -91.9565 -26.3391 -20.6147 -20.5867 -20.5863
-20.5542 -11.4140 -11.3785 -11.3093 -11.3086 -11.3067 -11.3055 -11.3006
-11.2935 -11.2900 -11.2886 -11.2845 -11.2831 -11.2818 -11.2761 -11.2736
-11.2701 -11.2572 -11.2547 -11.2482 -11.2340  -9.0119  -9.0060  -8.9807
 -8.9591  -6.6926  -6.6917  -6.6915  -6.6872  -6.6865  -6.6852  -6.6618
 -6.6610  -6.6597  -6.6403  -6.6394  -6.6384  -1.6529  -1.4747  -1.4100
 -1.4080  -1.3705  -1.2447  -1.2083  -1.1747  -1.1457  -1.0985  -1.0545
 -1.0456  -1.0320  -1.0076  -0.9977  -0.9744  -0.9599  -0.9483  -0.9410
 -0.8939  -0.8756  -0.8599  -0.8077  -0.7991  -0.7862  -0.7763  -0.7738
 -0.7606  -0.7345  -0.7242  -0.7179  -0.6974  -0.6939  -0.6842  -0.6808
 -0.6765  -0.6702  -0.6560  -0.6480  -0.6392  -0.6272  -0.6187  -0.6138
 -0.6108  -0.6096  -0.6008  -0.5938  -0.5785  -0.5686  -0.5576  -0.5565
 -0.5403  -0.5343  -0.5295  -0.5230  -0.5125  -0.5096  -0.5067  -0.5006
 -0.4888  -0.4820  -0.4736  -0.4679  -0.4636  -0.4614  -0.4571  -0.4450
 -0.4294  -0.3940  -0.3861  -0.3684  -0.3493  -0.2971  -0.2865  -0.2131

          Ground-State Mulliken Net Atomic Charges

     Atom                 Charge (a.u.)
  ----------------------------------------
      1 C                    -0.069583
      2 C                    -0.269022
      3 S                    -0.139378
      4 C                    -0.045358
      5 H                     0.192194
      6 C                    -0.054259
      7 C                     0.229947
      8 C                     0.230919
      9 C                    -0.073945
     10 C                    -0.050232
     11 O                    -0.334654
     12 O                    -0.343954
     13 C                    -0.083094
     14 H                     0.120665
     15 H                     0.092453
     16 H                     0.092344
     17 C                    -0.087654
     18 H                     0.124200
     19 H                     0.092665
     20 H                     0.089277
     21 C                    -0.278958
     22 S                    -0.104791
     23 C                     0.085488
     24 H                     0.203119
     25 C                    -0.111839
     26 S                     0.114541
     27 C                    -0.198284
     28 C                    -0.070794
     29 C                    -0.019327
     30 C                     0.343875
     31 C                    -0.130628
     32 S                     0.064520
     33 C                     0.460494
     34 O                    -0.445307
     35 O                    -0.297497
     36 F                    -0.215796
     37 C                    -0.054669
     38 H                     0.117227
     39 H                     0.085224
     40 H                     0.085087
     41 H                     0.217536
     42 H                     0.116217
     43 H                     0.113775
     44 H                     0.207257
  ----------------------------------------
  Sum of atomic charges =     0.000000

                    Cartesian Multipole Moments
 -----------------------------------------------------------------
    Charge (ESU x 10^10)
                 0.0000
    Dipole Moment (Debye)
         X       2.9741      Y       3.4955      Z       2.8612
       Tot       5.4083
    Quadrupole Moments (Debye-Ang)
        XX    -183.3705     XY      10.4571     YY    -187.3659
        XZ     -18.1763     YZ     -11.1565     ZZ    -193.3080

 Total job time:  332.46s(wall), 10800.62s(cpu)
        *  Thank you very much for using Q-Chem.  Have a nice day.  *
