 Q-Chem 5.4, Q-Chem, Inc., Pleasanton, CA (2021)
 Q-Chem 5.4.0 for Intel X86 EM64T Linux

User input:
--------------------------------------------------------------
$molecule
0 1
C	0.047927	-8.519741	-0.267851
C	0.056157	-7.635967	0.801461
S	0.029285	-7.651740	-1.822194
C	0.054516	-6.261894	0.415201
H	0.063290	-7.954738	1.851431
C	0.054687	-6.079985	-1.012650
C	0.028030	-4.798382	-1.584194
C	0.031399	-5.153542	1.309433
C	0.000427	-3.869626	0.737539
C	0.003462	-3.688927	-0.691828
O	0.061128	-5.481075	2.631211
O	-0.003021	-4.479871	-2.911907
C	0.602710	-5.356026	-3.854716
H	0.670671	-4.790496	-4.803517
H	-0.006913	-6.268513	-4.034285
H	1.623507	-5.658187	-3.535185
C	-0.375708	-4.546999	3.610841
H	-0.441115	-5.107564	4.562544
H	-1.376277	-4.131473	3.364029
H	0.346107	-3.712085	3.743566
C	-0.000458	-2.314326	-1.074491
S	0.013144	-2.295487	1.548848
C	-0.000000	-1.435180	-0.000000
H	-0.004953	-1.993211	-2.123688
C	0.000000	0.000000	0.000000
S	0.579852	0.687566	1.510732
C	1.591625	1.895024	0.727629
C	0.583771	0.695758	-1.064665
C	1.475308	1.760606	-0.678287
C	0.542366	0.643841	-2.486150
C	1.355286	1.612843	-3.106916
S	2.154609	2.570627	-1.965735
C	1.522440	1.804778	-4.559972
O	0.924684	1.087757	-5.350277
O	2.349739	2.785679	-5.004375
F	-0.170780	-0.212144	-3.246290
C	2.588082	3.053936	-6.334976
H	3.298799	3.899999	-6.370268
H	1.655291	3.328371	-6.875609
H	3.026021	2.177385	-6.861878
H	2.183053	2.599759	1.321510
H	-0.851509	-9.146471	-0.257688
H	0.944542	-9.150570	-0.271664
H	-1.079930	-1.444158	0.008462
$end

$rem
JOBTYPE		SP
EXCHANGE	HF
CORRELATION	pRIMP2
BASIS		cc-pvtz
METHOD		rimp2
AUX_BASIS	rimp2-cc-pvtz
SOLVENT_METHOD	PCM
PURECART	11111
SYMMETRY	false
MEM_TOTAL	110000
SCF_CONVERGENCE = 6
THRESH=10
GUI = 2
$end

$solvent
dielectric 4.90
$end
--------------------------------------------------------------

             Standard Nuclear Orientation (Angstroms)
    I     Atom           X                Y                Z
 ----------------------------------------------------------------
    1      C       0.0479270000    -8.5197410000    -0.2678510000
    2      C       0.0561570000    -7.6359670000     0.8014610000
    3      S       0.0292850000    -7.6517400000    -1.8221940000
    4      C       0.0545160000    -6.2618940000     0.4152010000
    5      H       0.0632900000    -7.9547380000     1.8514310000
    6      C       0.0546870000    -6.0799850000    -1.0126500000
    7      C       0.0280300000    -4.7983820000    -1.5841940000
    8      C       0.0313990000    -5.1535420000     1.3094330000
    9      C       0.0004270000    -3.8696260000     0.7375390000
   10      C       0.0034620000    -3.6889270000    -0.6918280000
   11      O       0.0611280000    -5.4810750000     2.6312110000
   12      O      -0.0030210000    -4.4798710000    -2.9119070000
   13      C       0.6027100000    -5.3560260000    -3.8547160000
   14      H       0.6706710000    -4.7904960000    -4.8035170000
   15      H      -0.0069130000    -6.2685130000    -4.0342850000
   16      H       1.6235070000    -5.6581870000    -3.5351850000
   17      C      -0.3757080000    -4.5469990000     3.6108410000
   18      H      -0.4411150000    -5.1075640000     4.5625440000
   19      H      -1.3762770000    -4.1314730000     3.3640290000
   20      H       0.3461070000    -3.7120850000     3.7435660000
   21      C      -0.0004580000    -2.3143260000    -1.0744910000
   22      S       0.0131440000    -2.2954870000     1.5488480000
   23      C       0.0000000000    -1.4351800000     0.0000000000
   24      H      -0.0049530000    -1.9932110000    -2.1236880000
   25      C       0.0000000000     0.0000000000     0.0000000000
   26      S       0.5798520000     0.6875660000     1.5107320000
   27      C       1.5916250000     1.8950240000     0.7276290000
   28      C       0.5837710000     0.6957580000    -1.0646650000
   29      C       1.4753080000     1.7606060000    -0.6782870000
   30      C       0.5423660000     0.6438410000    -2.4861500000
   31      C       1.3552860000     1.6128430000    -3.1069160000
   32      S       2.1546090000     2.5706270000    -1.9657350000
   33      C       1.5224400000     1.8047780000    -4.5599720000
   34      O       0.9246840000     1.0877570000    -5.3502770000
   35      O       2.3497390000     2.7856790000    -5.0043750000
   36      F      -0.1707800000    -0.2121440000    -3.2462900000
   37      C       2.5880820000     3.0539360000    -6.3349760000
   38      H       3.2987990000     3.8999990000    -6.3702680000
   39      H       1.6552910000     3.3283710000    -6.8756090000
   40      H       3.0260210000     2.1773850000    -6.8618780000
   41      H       2.1830530000     2.5997590000     1.3215100000
   42      H      -0.8515090000    -9.1464710000    -0.2576880000
   43      H       0.9445420000    -9.1505700000    -0.2716640000
   44      H      -1.0799300000    -1.4441580000     0.0084620000
 ----------------------------------------------------------------

   11   -2755.2860865315      6.73e-07  Convergence criterion met
 Total energy in the final basis set =    -2755.2860865315
        RIMP2         total energy =     -2760.3923424410 a.u.

                    Orbital Energies (a.u.)
 --------------------------------------------------------------

 Alpha MOs
 -- Occupied --
-92.0142 -91.9975 -91.9811 -91.9577 -26.3401 -20.6128 -20.5881 -20.5864
-20.5511 -11.4113 -11.3789 -11.3091 -11.3090 -11.3069 -11.2994 -11.2988
-11.2974 -11.2890 -11.2855 -11.2837 -11.2825 -11.2817 -11.2790 -11.2720
-11.2710 -11.2584 -11.2569 -11.2495 -11.2372  -9.0132  -9.0014  -8.9833
 -8.9603  -6.6939  -6.6932  -6.6928  -6.6826  -6.6820  -6.6806  -6.6644
 -6.6636  -6.6623  -6.6416  -6.6406  -6.6396  -1.6546  -1.4726  -1.4113
 -1.4082  -1.3681  -1.2412  -1.2092  -1.1758  -1.1446  -1.0990  -1.0524
 -1.0468  -1.0305  -1.0089  -0.9986  -0.9731  -0.9596  -0.9491  -0.9406
 -0.8949  -0.8736  -0.8621  -0.8095  -0.7992  -0.7870  -0.7756  -0.7715
 -0.7623  -0.7345  -0.7249  -0.7199  -0.6977  -0.6937  -0.6845  -0.6793
 -0.6742  -0.6685  -0.6570  -0.6485  -0.6399  -0.6285  -0.6199  -0.6143
 -0.6089  -0.6074  -0.5974  -0.5938  -0.5763  -0.5700  -0.5584  -0.5549
 -0.5421  -0.5358  -0.5312  -0.5230  -0.5144  -0.5098  -0.5068  -0.5006
 -0.4868  -0.4824  -0.4759  -0.4680  -0.4624  -0.4609  -0.4568  -0.4462
 -0.4327  -0.3948  -0.3874  -0.3698  -0.3493  -0.2945  -0.2856  -0.2144

          Ground-State Mulliken Net Atomic Charges

     Atom                 Charge (a.u.)
  ----------------------------------------
      1 C                    -0.070100
      2 C                    -0.259971
      3 S                    -0.136243
      4 C                    -0.048009
      5 H                     0.193451
      6 C                    -0.053399
      7 C                     0.231637
      8 C                     0.231288
      9 C                    -0.077428
     10 C                    -0.046032
     11 O                    -0.333739
     12 O                    -0.343944
     13 C                    -0.083256
     14 H                     0.121653
     15 H                     0.092171
     16 H                     0.092388
     17 C                    -0.088775
     18 H                     0.124810
     19 H                     0.092892
     20 H                     0.089580
     21 C                    -0.287055
     22 S                    -0.098493
     23 C                     0.072764
     24 H                     0.221544
     25 C                    -0.063427
     26 S                     0.099175
     27 C                    -0.228089
     28 C                    -0.078626
     29 C                    -0.017742
     30 C                     0.351893
     31 C                    -0.133507
     32 S                     0.051329
     33 C                     0.457869
     34 O                    -0.450232
     35 O                    -0.298012
     36 F                    -0.215023
     37 C                    -0.054709
     38 H                     0.116862
     39 H                     0.084665
     40 H                     0.084511
     41 H                     0.216692
     42 H                     0.117351
     43 H                     0.115049
     44 H                     0.206239
  ----------------------------------------
  Sum of atomic charges =     0.000000

                    Cartesian Multipole Moments
 -----------------------------------------------------------------
    Charge (ESU x 10^10)
                -0.0000
    Dipole Moment (Debye)
         X       1.8075      Y       2.7117      Z       3.4398
       Tot       4.7384
    Quadrupole Moments (Debye-Ang)
        XX    -192.7396     XY       8.1089     YY    -180.2522
        XZ     -12.7624     YZ     -12.4717     ZZ    -189.2520

 Total job time:  334.09s(wall), 10988.61s(cpu)
        *  Thank you very much for using Q-Chem.  Have a nice day.  *
