 Q-Chem 5.4, Q-Chem, Inc., Pleasanton, CA (2021)
 Q-Chem 5.4.0 for Intel X86 EM64T Linux

User input:
--------------------------------------------------------------
$molecule
0 1
C	1.432238	-8.398629	0.267851
C	1.270668	-7.529711	-0.801461
S	1.299871	-7.540578	1.822194
C	1.033679	-6.176229	-0.415201
H	1.318997	-7.844878	-1.851431
C	1.001923	-5.997113	1.012650
C	0.805626	-4.730351	1.584194
C	0.863981	-5.080701	-1.309433
C	0.671533	-3.810912	-0.737539
C	0.637166	-3.633485	0.691828
O	0.891580	-5.408420	-2.631211
O	0.780896	-4.411287	2.911907
C	0.336511	-5.379315	3.854716
H	0.171379	-4.834178	4.803517
H	1.095324	-6.172080	4.034285
H	-0.616308	-5.854145	3.535185
C	1.159578	-4.412679	-3.610841
H	1.321333	-4.953370	-4.562544
H	2.072791	-3.829719	-3.364029
H	0.303747	-3.715791	-3.743566
C	0.402329	-2.279087	1.074491
S	0.385663	-2.262896	-1.548848
C	0.249216	-1.413377	0.000000
H	0.350996	-1.962069	2.123688
C	0.000000	0.000000	0.000000
S	0.690437	0.576430	1.510732
C	1.896512	1.589852	0.727629
C	0.695720	0.583817	-1.064665
C	1.758621	1.477674	-0.678287
C	0.645928	0.539878	-2.486150
C	1.614763	1.352997	-3.106916
S	2.568261	2.157430	-1.965735
C	1.812707	1.512991	-4.559972
O	1.099523	0.910662	-5.350277
O	2.797769	2.335330	-5.004375
F	-0.205024	-0.179266	-3.246290
C	3.079074	2.558124	-6.334976
H	3.925910	3.267919	-6.370268
H	2.208109	2.990367	-6.875609
H	3.358147	1.618843	-6.861878
H	2.601331	2.181180	1.321510
H	2.426840	-8.859653	0.257688
H	0.658787	-9.175570	0.271664
H	1.314298	-1.234691	-0.008462
$end

$rem
JOBTYPE		SP
EXCHANGE	HF
CORRELATION	pRIMP2
BASIS		cc-pvtz
METHOD		rimp2
AUX_BASIS	rimp2-cc-pvtz
SOLVENT_METHOD	PCM
PURECART	11111
SYMMETRY	false
MEM_TOTAL	110000
SCF_CONVERGENCE = 6
THRESH=10
GUI = 2
$end

$solvent
dielectric 4.90
$end
--------------------------------------------------------------

             Standard Nuclear Orientation (Angstroms)
    I     Atom           X                Y                Z
 ----------------------------------------------------------------
    1      C       1.4322380000    -8.3986290000     0.2678510000
    2      C       1.2706680000    -7.5297110000    -0.8014610000
    3      S       1.2998710000    -7.5405780000     1.8221940000
    4      C       1.0336790000    -6.1762290000    -0.4152010000
    5      H       1.3189970000    -7.8448780000    -1.8514310000
    6      C       1.0019230000    -5.9971130000     1.0126500000
    7      C       0.8056260000    -4.7303510000     1.5841940000
    8      C       0.8639810000    -5.0807010000    -1.3094330000
    9      C       0.6715330000    -3.8109120000    -0.7375390000
   10      C       0.6371660000    -3.6334850000     0.6918280000
   11      O       0.8915800000    -5.4084200000    -2.6312110000
   12      O       0.7808960000    -4.4112870000     2.9119070000
   13      C       0.3365110000    -5.3793150000     3.8547160000
   14      H       0.1713790000    -4.8341780000     4.8035170000
   15      H       1.0953240000    -6.1720800000     4.0342850000
   16      H      -0.6163080000    -5.8541450000     3.5351850000
   17      C       1.1595780000    -4.4126790000    -3.6108410000
   18      H       1.3213330000    -4.9533700000    -4.5625440000
   19      H       2.0727910000    -3.8297190000    -3.3640290000
   20      H       0.3037470000    -3.7157910000    -3.7435660000
   21      C       0.4023290000    -2.2790870000     1.0744910000
   22      S       0.3856630000    -2.2628960000    -1.5488480000
   23      C       0.2492160000    -1.4133770000     0.0000000000
   24      H       0.3509960000    -1.9620690000     2.1236880000
   25      C       0.0000000000     0.0000000000     0.0000000000
   26      S       0.6904370000     0.5764300000     1.5107320000
   27      C       1.8965120000     1.5898520000     0.7276290000
   28      C       0.6957200000     0.5838170000    -1.0646650000
   29      C       1.7586210000     1.4776740000    -0.6782870000
   30      C       0.6459280000     0.5398780000    -2.4861500000
   31      C       1.6147630000     1.3529970000    -3.1069160000
   32      S       2.5682610000     2.1574300000    -1.9657350000
   33      C       1.8127070000     1.5129910000    -4.5599720000
   34      O       1.0995230000     0.9106620000    -5.3502770000
   35      O       2.7977690000     2.3353300000    -5.0043750000
   36      F      -0.2050240000    -0.1792660000    -3.2462900000
   37      C       3.0790740000     2.5581240000    -6.3349760000
   38      H       3.9259100000     3.2679190000    -6.3702680000
   39      H       2.2081090000     2.9903670000    -6.8756090000
   40      H       3.3581470000     1.6188430000    -6.8618780000
   41      H       2.6013310000     2.1811800000     1.3215100000
   42      H       2.4268400000    -8.8596530000     0.2576880000
   43      H       0.6587870000    -9.1755700000     0.2716640000
   44      H       1.3142980000    -1.2346910000    -0.0084620000
 ----------------------------------------------------------------

   11   -2755.2501099940      9.11e-07  Convergence criterion met
 Total energy in the final basis set =    -2755.2501099940
        RIMP2         total energy =     -2760.3696286442 a.u.

                    Orbital Energies (a.u.)
 --------------------------------------------------------------

 Alpha MOs
 -- Occupied --
-92.0112 -92.0009 -91.9713 -91.9591 -26.3350 -20.6135 -20.5873 -20.5871
-20.5522 -11.4123 -11.3783 -11.3146 -11.3093 -11.3085 -11.3021 -11.3019
-11.2934 -11.2894 -11.2859 -11.2831 -11.2830 -11.2806 -11.2798 -11.2736
-11.2657 -11.2586 -11.2574 -11.2510 -11.2410  -9.0112  -9.0047  -8.9743
 -8.9617  -6.6918  -6.6910  -6.6908  -6.6859  -6.6852  -6.6839  -6.6553
 -6.6545  -6.6531  -6.6429  -6.6420  -6.6410  -1.6502  -1.4734  -1.4106
 -1.4089  -1.3689  -1.2520  -1.2074  -1.1783  -1.1471  -1.0981  -1.0561
 -1.0455  -1.0341  -1.0057  -0.9977  -0.9749  -0.9586  -0.9498  -0.9416
 -0.8934  -0.8762  -0.8562  -0.8145  -0.7972  -0.7861  -0.7772  -0.7658
 -0.7596  -0.7330  -0.7232  -0.7161  -0.7002  -0.6953  -0.6860  -0.6799
 -0.6767  -0.6748  -0.6553  -0.6483  -0.6357  -0.6280  -0.6212  -0.6150
 -0.6107  -0.6084  -0.6031  -0.5944  -0.5746  -0.5677  -0.5612  -0.5585
 -0.5462  -0.5334  -0.5303  -0.5214  -0.5130  -0.5078  -0.5040  -0.5006
 -0.4864  -0.4833  -0.4768  -0.4634  -0.4628  -0.4598  -0.4537  -0.4469
 -0.4276  -0.4004  -0.3775  -0.3711  -0.3516  -0.2998  -0.2844  -0.2146

          Ground-State Mulliken Net Atomic Charges

     Atom                 Charge (a.u.)
  ----------------------------------------
      1 C                    -0.071171
      2 C                    -0.246394
      3 S                    -0.134041
      4 C                    -0.049193
      5 H                     0.195266
      6 C                    -0.047882
      7 C                     0.218540
      8 C                     0.231100
      9 C                    -0.072665
     10 C                    -0.030529
     11 O                    -0.334300
     12 O                    -0.343834
     13 C                    -0.082920
     14 H                     0.119753
     15 H                     0.091739
     16 H                     0.093049
     17 C                    -0.088077
     18 H                     0.123749
     19 H                     0.091481
     20 H                     0.093795
     21 C                    -0.301716
     22 S                    -0.106398
     23 C                     0.097433
     24 H                     0.196943
     25 C                    -0.122488
     26 S                     0.095744
     27 C                    -0.186180
     28 C                    -0.035648
     29 C                    -0.031832
     30 C                     0.340427
     31 C                    -0.124614
     32 S                     0.061372
     33 C                     0.458410
     34 O                    -0.447475
     35 O                    -0.298177
     36 F                    -0.210354
     37 C                    -0.054679
     38 H                     0.116897
     39 H                     0.084982
     40 H                     0.084612
     41 H                     0.219263
     42 H                     0.119021
     43 H                     0.116856
     44 H                     0.170138
  ----------------------------------------
  Sum of atomic charges =     0.000000

                    Cartesian Multipole Moments
 -----------------------------------------------------------------
    Charge (ESU x 10^10)
                -0.0000
    Dipole Moment (Debye)
         X       4.1837      Y       2.3131      Z       2.7330
       Tot       5.5066
    Quadrupole Moments (Debye-Ang)
        XX    -188.7460     XY       6.9536     YY    -177.4618
        XZ     -15.0173     YZ      -3.4848     ZZ    -188.1525

 Total job time:  337.12s(wall), 10996.46s(cpu)
        *  Thank you very much for using Q-Chem.  Have a nice day.  *
