 Q-Chem 5.4, Q-Chem, Inc., Pleasanton, CA (2021)
 Q-Chem 5.4.0 for Intel X86 EM64T Linux

User input:
--------------------------------------------------------------
$molecule
0 1
C	0.694800	-8.491498	0.267851
C	0.609575	-7.611804	-0.801461
S	0.637720	-7.625175	1.822194
C	0.491451	-6.242817	-0.415201
H	0.630252	-7.929984	-1.851431
C	0.475427	-6.061615	1.012650
C	0.390283	-4.782565	1.584194
C	0.417881	-5.136668	-1.309433
C	0.336834	-3.854939	-0.737539
C	0.318062	-3.675191	0.691828
O	0.416812	-5.465546	-2.631211
O	0.393456	-4.462560	2.911907
C	-0.133608	-5.388174	3.854716
H	-0.250600	-4.830719	4.803517
H	0.553224	-6.244057	4.034285
H	-1.124185	-5.778154	3.535185
C	0.770575	-4.496951	-3.610841
H	0.884590	-5.049682	-4.562544
H	1.731122	-3.995801	-3.364029
H	-0.021261	-3.728125	-3.743566
C	0.202163	-2.305480	1.074491
S	0.186971	-2.287897	-1.548848
C	0.125084	-1.429719	0.000000
H	0.178654	-1.985194	2.123688
C	0.000000	0.000000	0.000000
S	0.158383	0.885376	1.510732
C	0.430876	2.436951	0.727629
C	0.157682	0.894430	-1.064665
C	0.397351	2.262384	-0.678287
C	0.147783	0.828765	-2.486150
C	0.367291	2.074406	-3.106916
S	0.580633	3.303533	-1.965735
C	0.416083	2.324204	-4.559972
O	0.256921	1.404367	-5.350277
O	0.642094	3.587338	-5.004375
F	-0.041828	-0.269113	-3.246290
C	0.714377	3.938827	-6.334976
H	0.906844	5.026898	-6.370268
H	-0.230661	3.710099	-6.875609
H	1.531918	3.398681	-6.861878
H	0.590699	3.342984	1.321510
H	1.645436	-9.037452	0.257688
H	-0.143423	-9.198072	0.271664
H	1.201687	-1.344541	-0.008462
$end

$rem
JOBTYPE		SP
EXCHANGE	HF
CORRELATION	pRIMP2
BASIS		cc-pvtz
METHOD		rimp2
AUX_BASIS	rimp2-cc-pvtz
SOLVENT_METHOD	PCM
PURECART	11111
SYMMETRY	false
MEM_TOTAL	110000
SCF_CONVERGENCE = 6
THRESH=10
GUI = 2
$end

$solvent
dielectric 4.90
$end
--------------------------------------------------------------

             Standard Nuclear Orientation (Angstroms)
    I     Atom           X                Y                Z
 ----------------------------------------------------------------
    1      C       0.6948000000    -8.4914980000     0.2678510000
    2      C       0.6095750000    -7.6118040000    -0.8014610000
    3      S       0.6377200000    -7.6251750000     1.8221940000
    4      C       0.4914510000    -6.2428170000    -0.4152010000
    5      H       0.6302520000    -7.9299840000    -1.8514310000
    6      C       0.4754270000    -6.0616150000     1.0126500000
    7      C       0.3902830000    -4.7825650000     1.5841940000
    8      C       0.4178810000    -5.1366680000    -1.3094330000
    9      C       0.3368340000    -3.8549390000    -0.7375390000
   10      C       0.3180620000    -3.6751910000     0.6918280000
   11      O       0.4168120000    -5.4655460000    -2.6312110000
   12      O       0.3934560000    -4.4625600000     2.9119070000
   13      C      -0.1336080000    -5.3881740000     3.8547160000
   14      H      -0.2506000000    -4.8307190000     4.8035170000
   15      H       0.5532240000    -6.2440570000     4.0342850000
   16      H      -1.1241850000    -5.7781540000     3.5351850000
   17      C       0.7705750000    -4.4969510000    -3.6108410000
   18      H       0.8845900000    -5.0496820000    -4.5625440000
   19      H       1.7311220000    -3.9958010000    -3.3640290000
   20      H      -0.0212610000    -3.7281250000    -3.7435660000
   21      C       0.2021630000    -2.3054800000     1.0744910000
   22      S       0.1869710000    -2.2878970000    -1.5488480000
   23      C       0.1250840000    -1.4297190000     0.0000000000
   24      H       0.1786540000    -1.9851940000     2.1236880000
   25      C       0.0000000000     0.0000000000     0.0000000000
   26      S       0.1583830000     0.8853760000     1.5107320000
   27      C       0.4308760000     2.4369510000     0.7276290000
   28      C       0.1576820000     0.8944300000    -1.0646650000
   29      C       0.3973510000     2.2623840000    -0.6782870000
   30      C       0.1477830000     0.8287650000    -2.4861500000
   31      C       0.3672910000     2.0744060000    -3.1069160000
   32      S       0.5806330000     3.3035330000    -1.9657350000
   33      C       0.4160830000     2.3242040000    -4.5599720000
   34      O       0.2569210000     1.4043670000    -5.3502770000
   35      O       0.6420940000     3.5873380000    -5.0043750000
   36      F      -0.0418280000    -0.2691130000    -3.2462900000
   37      C       0.7143770000     3.9388270000    -6.3349760000
   38      H       0.9068440000     5.0268980000    -6.3702680000
   39      H      -0.2306610000     3.7100990000    -6.8756090000
   40      H       1.5319180000     3.3986810000    -6.8618780000
   41      H       0.5906990000     3.3429840000     1.3215100000
   42      H       1.6454360000    -9.0374520000     0.2576880000
   43      H      -0.1434230000    -9.1980720000     0.2716640000
   44      H       1.2016870000    -1.3445410000    -0.0084620000
 ----------------------------------------------------------------

   11   -2755.3192626603      6.65e-07  Convergence criterion met
 Total energy in the final basis set =    -2755.3192626603
        RIMP2         total energy =     -2760.4115332927 a.u.

                    Orbital Energies (a.u.)
 --------------------------------------------------------------

 Alpha MOs
 -- Occupied --
-92.0127 -91.9912 -91.9759 -91.9614 -26.3355 -20.6104 -20.5887 -20.5883
-20.5466 -11.4075 -11.3793 -11.3269 -11.3116 -11.3100 -11.2963 -11.2907
-11.2877 -11.2877 -11.2842 -11.2839 -11.2819 -11.2815 -11.2774 -11.2752
-11.2707 -11.2637 -11.2605 -11.2529 -11.2444  -9.0115  -8.9954  -8.9787
 -8.9639  -6.6924  -6.6917  -6.6912  -6.6767  -6.6760  -6.6747  -6.6595
 -6.6588  -6.6572  -6.6451  -6.6442  -6.6432  -1.6515  -1.4698  -1.4121
 -1.4102  -1.3647  -1.2383  -1.2100  -1.1787  -1.1432  -1.1008  -1.0507
 -1.0473  -1.0292  -1.0084  -1.0007  -0.9712  -0.9602  -0.9500  -0.9402
 -0.8954  -0.8720  -0.8634  -0.8133  -0.7960  -0.7863  -0.7764  -0.7662
 -0.7624  -0.7341  -0.7212  -0.7181  -0.6984  -0.6957  -0.6844  -0.6772
 -0.6734  -0.6719  -0.6569  -0.6496  -0.6379  -0.6301  -0.6230  -0.6160
 -0.6109  -0.6041  -0.5973  -0.5911  -0.5769  -0.5684  -0.5645  -0.5596
 -0.5492  -0.5333  -0.5290  -0.5210  -0.5138  -0.5090  -0.5047  -0.4996
 -0.4839  -0.4822  -0.4801  -0.4664  -0.4602  -0.4599  -0.4581  -0.4487
 -0.4319  -0.4000  -0.3855  -0.3731  -0.3509  -0.2935  -0.2831  -0.2194

          Ground-State Mulliken Net Atomic Charges

     Atom                 Charge (a.u.)
  ----------------------------------------
      1 C                    -0.071366
      2 C                    -0.237275
      3 S                    -0.128848
      4 C                    -0.053136
      5 H                     0.196587
      6 C                    -0.045908
      7 C                     0.217201
      8 C                     0.237170
      9 C                    -0.079086
     10 C                    -0.019496
     11 O                    -0.334072
     12 O                    -0.343975
     13 C                    -0.082681
     14 H                     0.120270
     15 H                     0.091882
     16 H                     0.093083
     17 C                    -0.089093
     18 H                     0.124850
     19 H                     0.093058
     20 H                     0.092935
     21 C                    -0.338959
     22 S                    -0.092000
     23 C                     0.124078
     24 H                     0.196444
     25 C                     0.030410
     26 S                     0.077249
     27 C                    -0.273119
     28 C                    -0.148703
     29 C                    -0.018020
     30 C                     0.381099
     31 C                    -0.145386
     32 S                     0.030362
     33 C                     0.459783
     34 O                    -0.456892
     35 O                    -0.298843
     36 F                    -0.209136
     37 C                    -0.055086
     38 H                     0.116281
     39 H                     0.083998
     40 H                     0.083726
     41 H                     0.213973
     42 H                     0.120475
     43 H                     0.118197
     44 H                     0.217968
  ----------------------------------------
  Sum of atomic charges =     0.000000

                    Cartesian Multipole Moments
 -----------------------------------------------------------------
    Charge (ESU x 10^10)
                 0.0000
    Dipole Moment (Debye)
         X       1.2491      Y       0.9304      Z       2.9500
       Tot       3.3360
    Quadrupole Moments (Debye-Ang)
        XX    -199.1120     XY       0.5851     YY    -165.3121
        XZ      -7.8367     YZ      -5.3330     ZZ    -190.9601

 Total job time:  332.61s(wall), 10560.12s(cpu)
        *  Thank you very much for using Q-Chem.  Have a nice day.  *
