 Q-Chem 5.4, Q-Chem, Inc., Pleasanton, CA (2021)
 Q-Chem 5.4.0 for Intel X86 EM64T Linux

User input:
--------------------------------------------------------------
$molecule
0 1
C	-0.093711	-8.519741	0.255459
C	0.083869	-7.635967	-0.799036
S	-0.345260	-7.651740	1.789425
C	0.018411	-6.261894	-0.418360
H	0.259169	-7.954738	-1.834294
C	-0.229701	-6.079985	0.987769
C	-0.302697	-4.798382	1.555260
C	0.196459	-5.153542	-1.294992
C	0.127651	-3.869626	-0.726408
C	-0.123544	-3.688927	0.680716
O	0.396706	-5.481075	-2.601852
O	-0.502673	-4.479871	2.868193
C	-1.262918	-5.356026	3.691495
H	-1.494604	-4.790496	4.614080
H	-0.693738	-6.268513	3.974195
H	-2.212720	-5.658187	3.199559
C	0.997016	-4.546999	-3.490743
H	1.226691	-5.107564	-4.416630
H	1.939526	-4.131473	-3.073934
H	0.309214	-3.712085	-3.746794
C	-0.186133	-2.314326	1.058247
S	0.256010	-2.295487	-1.527599
C	0.000000	-1.435180	0.000000
H	-0.363896	-1.993211	2.092285
C	0.000000	0.000000	0.000000
S	0.002233	0.899428	1.510732
C	0.001157	2.474749	0.727629
C	-0.000030	0.908223	-1.064665
C	-0.001545	2.297013	-0.678287
C	0.001624	0.841837	-2.486150
C	0.001494	2.106670	-3.106916
S	-0.001841	3.354171	-1.965735
C	0.006168	2.361146	-4.559972
O	0.009152	1.427646	-5.350277
O	0.009405	3.644337	-5.004375
F	0.005539	-0.272288	-3.246290
C	0.019554	4.003038	-6.334976
H	0.020155	5.108000	-6.370268
H	-0.871409	3.613681	-6.875609
H	0.918470	3.613062	-6.861878
H	0.001222	3.394771	1.321510
H	0.793825	-9.146471	0.401636
H	-0.977367	-9.150570	0.103519
H	1.064992	-1.444158	0.179195
$end

$rem
JOBTYPE		SP
EXCHANGE	HF
CORRELATION	pRIMP2
BASIS		cc-pvtz
METHOD		rimp2
AUX_BASIS	rimp2-cc-pvtz
SOLVENT_METHOD	PCM
PURECART	11111
SYMMETRY	false
MEM_TOTAL	110000
SCF_CONVERGENCE = 6
THRESH=10
GUI = 2
$end

$solvent
dielectric 4.90
$end
--------------------------------------------------------------

             Standard Nuclear Orientation (Angstroms)
    I     Atom           X                Y                Z
 ----------------------------------------------------------------
    1      C      -0.0937110000    -8.5197410000     0.2554590000
    2      C       0.0838690000    -7.6359670000    -0.7990360000
    3      S      -0.3452600000    -7.6517400000     1.7894250000
    4      C       0.0184110000    -6.2618940000    -0.4183600000
    5      H       0.2591690000    -7.9547380000    -1.8342940000
    6      C      -0.2297010000    -6.0799850000     0.9877690000
    7      C      -0.3026970000    -4.7983820000     1.5552600000
    8      C       0.1964590000    -5.1535420000    -1.2949920000
    9      C       0.1276510000    -3.8696260000    -0.7264080000
   10      C      -0.1235440000    -3.6889270000     0.6807160000
   11      O       0.3967060000    -5.4810750000    -2.6018520000
   12      O      -0.5026730000    -4.4798710000     2.8681930000
   13      C      -1.2629180000    -5.3560260000     3.6914950000
   14      H      -1.4946040000    -4.7904960000     4.6140800000
   15      H      -0.6937380000    -6.2685130000     3.9741950000
   16      H      -2.2127200000    -5.6581870000     3.1995590000
   17      C       0.9970160000    -4.5469990000    -3.4907430000
   18      H       1.2266910000    -5.1075640000    -4.4166300000
   19      H       1.9395260000    -4.1314730000    -3.0739340000
   20      H       0.3092140000    -3.7120850000    -3.7467940000
   21      C      -0.1861330000    -2.3143260000     1.0582470000
   22      S       0.2560100000    -2.2954870000    -1.5275990000
   23      C       0.0000000000    -1.4351800000     0.0000000000
   24      H      -0.3638960000    -1.9932110000     2.0922850000
   25      C       0.0000000000     0.0000000000     0.0000000000
   26      S       0.0022330000     0.8994280000     1.5107320000
   27      C       0.0011570000     2.4747490000     0.7276290000
   28      C      -0.0000300000     0.9082230000    -1.0646650000
   29      C      -0.0015450000     2.2970130000    -0.6782870000
   30      C       0.0016240000     0.8418370000    -2.4861500000
   31      C       0.0014940000     2.1066700000    -3.1069160000
   32      S      -0.0018410000     3.3541710000    -1.9657350000
   33      C       0.0061680000     2.3611460000    -4.5599720000
   34      O       0.0091520000     1.4276460000    -5.3502770000
   35      O       0.0094050000     3.6443370000    -5.0043750000
   36      F       0.0055390000    -0.2722880000    -3.2462900000
   37      C       0.0195540000     4.0030380000    -6.3349760000
   38      H       0.0201550000     5.1080000000    -6.3702680000
   39      H      -0.8714090000     3.6136810000    -6.8756090000
   40      H       0.9184700000     3.6130620000    -6.8618780000
   41      H       0.0012220000     3.3947710000     1.3215100000
   42      H       0.7938250000    -9.1464710000     0.4016360000
   43      H      -0.9773670000    -9.1505700000     0.1035190000
   44      H       1.0649920000    -1.4441580000     0.1791950000
 ----------------------------------------------------------------

   11   -2755.3216971257      7.16e-07  Convergence criterion met
 Total energy in the final basis set =    -2755.3216971257
        RIMP2         total energy =     -2760.4126310964 a.u.

                    Orbital Energies (a.u.)
 --------------------------------------------------------------

 Alpha MOs
 -- Occupied --
-92.0130 -91.9909 -91.9764 -91.9611 -26.3352 -20.6104 -20.5885 -20.5883
-20.5467 -11.4076 -11.3792 -11.3273 -11.3111 -11.3100 -11.2960 -11.2907
-11.2877 -11.2873 -11.2842 -11.2838 -11.2823 -11.2817 -11.2771 -11.2758
-11.2719 -11.2636 -11.2604 -11.2526 -11.2436  -9.0117  -8.9952  -8.9791
 -8.9637  -6.6926  -6.6920  -6.6914  -6.6765  -6.6758  -6.6744  -6.6599
 -6.6592  -6.6577  -6.6449  -6.6440  -6.6430  -1.6510  -1.4699  -1.4119
 -1.4102  -1.3648  -1.2375  -1.2104  -1.1784  -1.1429  -1.1010  -1.0504
 -1.0472  -1.0293  -1.0086  -1.0007  -0.9710  -0.9603  -0.9498  -0.9402
 -0.8954  -0.8720  -0.8641  -0.8131  -0.7957  -0.7864  -0.7765  -0.7665
 -0.7634  -0.7339  -0.7211  -0.7180  -0.6981  -0.6950  -0.6843  -0.6772
 -0.6718  -0.6714  -0.6570  -0.6496  -0.6390  -0.6300  -0.6227  -0.6159
 -0.6109  -0.6042  -0.5970  -0.5910  -0.5773  -0.5685  -0.5649  -0.5594
 -0.5493  -0.5333  -0.5289  -0.5212  -0.5137  -0.5090  -0.5046  -0.4997
 -0.4842  -0.4814  -0.4801  -0.4674  -0.4607  -0.4601  -0.4582  -0.4485
 -0.4314  -0.4000  -0.3858  -0.3728  -0.3509  -0.2932  -0.2834  -0.2193

          Ground-State Mulliken Net Atomic Charges

     Atom                 Charge (a.u.)
  ----------------------------------------
      1 C                    -0.071093
      2 C                    -0.239707
      3 S                    -0.129287
      4 C                    -0.054466
      5 H                     0.196267
      6 C                    -0.046595
      7 C                     0.220022
      8 C                     0.238225
      9 C                    -0.077008
     10 C                    -0.009775
     11 O                    -0.334037
     12 O                    -0.343980
     13 C                    -0.082827
     14 H                     0.120236
     15 H                     0.092154
     16 H                     0.093160
     17 C                    -0.090047
     18 H                     0.124942
     19 H                     0.092743
     20 H                     0.093453
     21 C                    -0.361003
     22 S                    -0.092925
     23 C                     0.187518
     24 H                     0.193985
     25 C                    -0.062496
     26 S                     0.074485
     27 C                    -0.270009
     28 C                    -0.108904
     29 C                    -0.020075
     30 C                     0.400173
     31 C                    -0.149068
     32 S                     0.024810
     33 C                     0.462461
     34 O                    -0.456873
     35 O                    -0.298679
     36 F                    -0.209898
     37 C                    -0.055268
     38 H                     0.116310
     39 H                     0.084103
     40 H                     0.083758
     41 H                     0.214119
     42 H                     0.120139
     43 H                     0.117957
     44 H                     0.212999
  ----------------------------------------
  Sum of atomic charges =     0.000000

                    Cartesian Multipole Moments
 -----------------------------------------------------------------
    Charge (ESU x 10^10)
                -0.0000
    Dipole Moment (Debye)
         X       0.7247      Y       1.0524      Z       3.0739
       Tot       3.3289
    Quadrupole Moments (Debye-Ang)
        XX    -197.3330     XY      -0.6748     YY    -165.8003
        XZ      -7.9138     YZ      -5.1562     ZZ    -193.2872

 Total job time:  334.60s(wall), 10834.35s(cpu)
        *  Thank you very much for using Q-Chem.  Have a nice day.  *
