 Q-Chem 5.4, Q-Chem, Inc., Pleasanton, CA (2021)
 Q-Chem 5.4.0 for Intel X86 EM64T Linux

User input:
--------------------------------------------------------------
$molecule
0 1
C	0.235993	-8.519741	-0.135457
C	-0.577858	-7.635967	0.558188
S	1.414705	-7.651740	-1.148850
C	-0.283020	-6.261894	0.308648
H	-1.377597	-7.954738	1.238560
C	0.810887	-6.079985	-0.609026
C	1.231581	-4.798382	-0.996828
C	-0.982901	-5.153542	0.865740
C	-0.564713	-3.869626	0.474408
C	0.532196	-3.688927	-0.442046
O	-1.976332	-5.481075	1.738137
O	2.228709	-4.479871	-1.874052
C	3.340298	-5.356026	-2.016062
H	4.110807	-4.790496	-2.573877
H	3.085998	-6.268513	-2.598484
H	3.751679	-5.658187	-1.028695
C	-3.007565	-4.546999	2.033195
H	-3.778655	-5.107564	2.594833
H	-3.461650	-4.131473	1.108067
H	-2.645264	-3.712085	2.671451
C	0.822814	-2.314326	-0.691020
S	-1.178037	-2.295487	1.005649
C	-0.000000	-1.435180	-0.000000
H	1.623656	-1.993211	-1.368875
C	0.000000	0.000000	0.000000
S	0.451648	0.777811	1.510732
C	1.238377	2.142617	0.727629
C	0.454085	0.786559	-1.064665
C	1.147169	1.990043	-0.678287
C	0.422325	0.728240	-2.486150
C	1.054629	1.823683	-3.106916
S	1.675491	2.905718	-1.965735
C	1.185914	2.041729	-4.559972
O	0.721749	1.231802	-5.350277
O	1.830313	3.151386	-5.004375
F	-0.131347	-0.238577	-3.246290
C	2.018453	3.456956	-6.334976
H	2.571455	4.413580	-6.370268
H	1.052178	3.565244	-6.875609
H	2.601950	2.669768	-6.861878
H	1.698444	2.939346	1.321510
H	-0.349939	-9.146471	-0.817932
H	0.815247	-9.150570	0.548939
H	-0.700647	-1.444158	-0.821835
$end

$rem
JOBTYPE		SP
EXCHANGE	HF
CORRELATION	pRIMP2
BASIS		cc-pvtz
METHOD		rimp2
AUX_BASIS	rimp2-cc-pvtz
SOLVENT_METHOD	PCM
PURECART	11111
SYMMETRY	false
MEM_TOTAL	110000
SCF_CONVERGENCE = 6
THRESH=10
GUI = 2
$end

$solvent
dielectric 4.90
$end
--------------------------------------------------------------

             Standard Nuclear Orientation (Angstroms)
    I     Atom           X                Y                Z
 ----------------------------------------------------------------
    1      C       0.2359930000    -8.5197410000    -0.1354570000
    2      C      -0.5778580000    -7.6359670000     0.5581880000
    3      S       1.4147050000    -7.6517400000    -1.1488500000
    4      C      -0.2830200000    -6.2618940000     0.3086480000
    5      H      -1.3775970000    -7.9547380000     1.2385600000
    6      C       0.8108870000    -6.0799850000    -0.6090260000
    7      C       1.2315810000    -4.7983820000    -0.9968280000
    8      C      -0.9829010000    -5.1535420000     0.8657400000
    9      C      -0.5647130000    -3.8696260000     0.4744080000
   10      C       0.5321960000    -3.6889270000    -0.4420460000
   11      O      -1.9763320000    -5.4810750000     1.7381370000
   12      O       2.2287090000    -4.4798710000    -1.8740520000
   13      C       3.3402980000    -5.3560260000    -2.0160620000
   14      H       4.1108070000    -4.7904960000    -2.5738770000
   15      H       3.0859980000    -6.2685130000    -2.5984840000
   16      H       3.7516790000    -5.6581870000    -1.0286950000
   17      C      -3.0075650000    -4.5469990000     2.0331950000
   18      H      -3.7786550000    -5.1075640000     2.5948330000
   19      H      -3.4616500000    -4.1314730000     1.1080670000
   20      H      -2.6452640000    -3.7120850000     2.6714510000
   21      C       0.8228140000    -2.3143260000    -0.6910200000
   22      S      -1.1780370000    -2.2954870000     1.0056490000
   23      C       0.0000000000    -1.4351800000     0.0000000000
   24      H       1.6236560000    -1.9932110000    -1.3688750000
   25      C       0.0000000000     0.0000000000     0.0000000000
   26      S       0.4516480000     0.7778110000     1.5107320000
   27      C       1.2383770000     2.1426170000     0.7276290000
   28      C       0.4540850000     0.7865590000    -1.0646650000
   29      C       1.1471690000     1.9900430000    -0.6782870000
   30      C       0.4223250000     0.7282400000    -2.4861500000
   31      C       1.0546290000     1.8236830000    -3.1069160000
   32      S       1.6754910000     2.9057180000    -1.9657350000
   33      C       1.1859140000     2.0417290000    -4.5599720000
   34      O       0.7217490000     1.2318020000    -5.3502770000
   35      O       1.8303130000     3.1513860000    -5.0043750000
   36      F      -0.1313470000    -0.2385770000    -3.2462900000
   37      C       2.0184530000     3.4569560000    -6.3349760000
   38      H       2.5714550000     4.4135800000    -6.3702680000
   39      H       1.0521780000     3.5652440000    -6.8756090000
   40      H       2.6019500000     2.6697680000    -6.8618780000
   41      H       1.6984440000     2.9393460000     1.3215100000
   42      H      -0.3499390000    -9.1464710000    -0.8179320000
   43      H       0.8152470000    -9.1505700000     0.5489390000
   44      H      -0.7006470000    -1.4441580000    -0.8218350000
 ----------------------------------------------------------------

   11   -2755.3122999783      7.32e-07  Convergence criterion met
 Total energy in the final basis set =    -2755.3122999783
        RIMP2         total energy =     -2760.4098723807 a.u.

                    Orbital Energies (a.u.)
 --------------------------------------------------------------

 Alpha MOs
 -- Occupied --
-92.0128 -91.9984 -91.9783 -91.9578 -26.3385 -20.6137 -20.5870 -20.5868
-20.5525 -11.4126 -11.3795 -11.3090 -11.3082 -11.3074 -11.3017 -11.3000
-11.2988 -11.2894 -11.2868 -11.2845 -11.2831 -11.2824 -11.2806 -11.2733
-11.2725 -11.2580 -11.2578 -11.2493 -11.2365  -9.0117  -9.0023  -8.9804
 -8.9604  -6.6924  -6.6917  -6.6913  -6.6835  -6.6829  -6.6815  -6.6616
 -6.6607  -6.6594  -6.6417  -6.6407  -6.6397  -1.6515  -1.4736  -1.4103
 -1.4086  -1.3691  -1.2410  -1.2088  -1.1752  -1.1444  -1.0997  -1.0528
 -1.0460  -1.0302  -1.0087  -0.9979  -0.9732  -0.9597  -0.9488  -0.9413
 -0.8937  -0.8748  -0.8618  -0.8080  -0.7955  -0.7856  -0.7789  -0.7729
 -0.7616  -0.7336  -0.7207  -0.7186  -0.6979  -0.6931  -0.6864  -0.6800
 -0.6756  -0.6735  -0.6557  -0.6484  -0.6358  -0.6271  -0.6197  -0.6147
 -0.6113  -0.6081  -0.5976  -0.5943  -0.5816  -0.5677  -0.5581  -0.5549
 -0.5447  -0.5337  -0.5298  -0.5230  -0.5125  -0.5074  -0.5049  -0.5017
 -0.4877  -0.4843  -0.4745  -0.4697  -0.4628  -0.4627  -0.4603  -0.4459
 -0.4253  -0.4010  -0.3852  -0.3698  -0.3509  -0.2946  -0.2881  -0.2184

          Ground-State Mulliken Net Atomic Charges

     Atom                 Charge (a.u.)
  ----------------------------------------
      1 C                    -0.070210
      2 C                    -0.261070
      3 S                    -0.135581
      4 C                    -0.046514
      5 H                     0.193248
      6 C                    -0.052991
      7 C                     0.222559
      8 C                     0.231473
      9 C                    -0.075755
     10 C                    -0.035522
     11 O                    -0.334871
     12 O                    -0.343067
     13 C                    -0.082703
     14 H                     0.120086
     15 H                     0.092334
     16 H                     0.092445
     17 C                    -0.087109
     18 H                     0.123823
     19 H                     0.092735
     20 H                     0.089867
     21 C                    -0.301807
     22 S                    -0.081735
     23 C                     0.087193
     24 H                     0.207798
     25 C                    -0.069855
     26 S                     0.107393
     27 C                    -0.222310
     28 C                    -0.119317
     29 C                    -0.008254
     30 C                     0.380409
     31 C                    -0.139587
     32 S                     0.048071
     33 C                     0.460464
     34 O                    -0.447520
     35 O                    -0.297674
     36 F                    -0.214213
     37 C                    -0.054950
     38 H                     0.117008
     39 H                     0.084983
     40 H                     0.084964
     41 H                     0.215141
     42 H                     0.117331
     43 H                     0.114767
     44 H                     0.198523
  ----------------------------------------
  Sum of atomic charges =     0.000000

                    Cartesian Multipole Moments
 -----------------------------------------------------------------
    Charge (ESU x 10^10)
                 0.0000
    Dipole Moment (Debye)
         X       1.5149      Y       3.4454      Z       2.6279
       Tot       4.5904
    Quadrupole Moments (Debye-Ang)
        XX    -181.0918     XY      10.2491     YY    -177.9601
        XZ     -12.1208     YZ     -12.2390     ZZ    -203.2411

 Total job time:  325.91s(wall), 10384.42s(cpu)
        *  Thank you very much for using Q-Chem.  Have a nice day.  *
