 Q-Chem 5.4, Q-Chem, Inc., Pleasanton, CA (2021)
 Q-Chem 5.4.0 for Intel X86 EM64T Linux

User input:
--------------------------------------------------------------
$molecule
0 1
C	0.093711	-8.519741	-0.255459
C	-0.083869	-7.635967	0.799036
S	0.345260	-7.651740	-1.789425
C	-0.018411	-6.261894	0.418360
H	-0.259169	-7.954738	1.834294
C	0.229701	-6.079985	-0.987769
C	0.302697	-4.798382	-1.555260
C	-0.196459	-5.153542	1.294992
C	-0.127651	-3.869626	0.726408
C	0.123544	-3.688927	-0.680716
O	-0.396706	-5.481075	2.601852
O	0.502673	-4.479871	-2.868193
C	1.262918	-5.356026	-3.691495
H	1.494604	-4.790496	-4.614080
H	0.693738	-6.268513	-3.974195
H	2.212720	-5.658187	-3.199559
C	-0.997016	-4.546999	3.490743
H	-1.226691	-5.107564	4.416630
H	-1.939526	-4.131473	3.073934
H	-0.309214	-3.712085	3.746794
C	0.186133	-2.314326	-1.058247
S	-0.256010	-2.295487	1.527599
C	-0.000000	-1.435180	-0.000000
H	0.363896	-1.993211	-2.092285
C	0.000000	0.000000	0.000000
S	0.579852	0.687566	1.510732
C	1.591625	1.895024	0.727629
C	0.583771	0.695758	-1.064665
C	1.475308	1.760606	-0.678287
C	0.542366	0.643841	-2.486150
C	1.355286	1.612843	-3.106916
S	2.154609	2.570627	-1.965735
C	1.522440	1.804778	-4.559972
O	0.924684	1.087757	-5.350277
O	2.349739	2.785679	-5.004375
F	-0.170780	-0.212144	-3.246290
C	2.588082	3.053936	-6.334976
H	3.298799	3.899999	-6.370268
H	1.655291	3.328371	-6.875609
H	3.026021	2.177385	-6.861878
H	2.183053	2.599759	1.321510
H	-0.793825	-9.146471	-0.401636
H	0.977367	-9.150570	-0.103519
H	-1.064992	-1.444158	-0.179195
$end

$rem
JOBTYPE		SP
EXCHANGE	HF
CORRELATION	pRIMP2
BASIS		cc-pvtz
METHOD		rimp2
AUX_BASIS	rimp2-cc-pvtz
SOLVENT_METHOD	PCM
PURECART	11111
SYMMETRY	false
MEM_TOTAL	110000
SCF_CONVERGENCE = 6
THRESH=10
GUI = 2
$end

$solvent
dielectric 4.90
$end
--------------------------------------------------------------

             Standard Nuclear Orientation (Angstroms)
    I     Atom           X                Y                Z
 ----------------------------------------------------------------
    1      C       0.0937110000    -8.5197410000    -0.2554590000
    2      C      -0.0838690000    -7.6359670000     0.7990360000
    3      S       0.3452600000    -7.6517400000    -1.7894250000
    4      C      -0.0184110000    -6.2618940000     0.4183600000
    5      H      -0.2591690000    -7.9547380000     1.8342940000
    6      C       0.2297010000    -6.0799850000    -0.9877690000
    7      C       0.3026970000    -4.7983820000    -1.5552600000
    8      C      -0.1964590000    -5.1535420000     1.2949920000
    9      C      -0.1276510000    -3.8696260000     0.7264080000
   10      C       0.1235440000    -3.6889270000    -0.6807160000
   11      O      -0.3967060000    -5.4810750000     2.6018520000
   12      O       0.5026730000    -4.4798710000    -2.8681930000
   13      C       1.2629180000    -5.3560260000    -3.6914950000
   14      H       1.4946040000    -4.7904960000    -4.6140800000
   15      H       0.6937380000    -6.2685130000    -3.9741950000
   16      H       2.2127200000    -5.6581870000    -3.1995590000
   17      C      -0.9970160000    -4.5469990000     3.4907430000
   18      H      -1.2266910000    -5.1075640000     4.4166300000
   19      H      -1.9395260000    -4.1314730000     3.0739340000
   20      H      -0.3092140000    -3.7120850000     3.7467940000
   21      C       0.1861330000    -2.3143260000    -1.0582470000
   22      S      -0.2560100000    -2.2954870000     1.5275990000
   23      C       0.0000000000    -1.4351800000     0.0000000000
   24      H       0.3638960000    -1.9932110000    -2.0922850000
   25      C       0.0000000000     0.0000000000     0.0000000000
   26      S       0.5798520000     0.6875660000     1.5107320000
   27      C       1.5916250000     1.8950240000     0.7276290000
   28      C       0.5837710000     0.6957580000    -1.0646650000
   29      C       1.4753080000     1.7606060000    -0.6782870000
   30      C       0.5423660000     0.6438410000    -2.4861500000
   31      C       1.3552860000     1.6128430000    -3.1069160000
   32      S       2.1546090000     2.5706270000    -1.9657350000
   33      C       1.5224400000     1.8047780000    -4.5599720000
   34      O       0.9246840000     1.0877570000    -5.3502770000
   35      O       2.3497390000     2.7856790000    -5.0043750000
   36      F      -0.1707800000    -0.2121440000    -3.2462900000
   37      C       2.5880820000     3.0539360000    -6.3349760000
   38      H       3.2987990000     3.8999990000    -6.3702680000
   39      H       1.6552910000     3.3283710000    -6.8756090000
   40      H       3.0260210000     2.1773850000    -6.8618780000
   41      H       2.1830530000     2.5997590000     1.3215100000
   42      H      -0.7938250000    -9.1464710000    -0.4016360000
   43      H       0.9773670000    -9.1505700000    -0.1035190000
   44      H      -1.0649920000    -1.4441580000    -0.1791950000
 ----------------------------------------------------------------

   11   -2755.2878586245      6.84e-07  Convergence criterion met
 Total energy in the final basis set =    -2755.2878586245
        RIMP2         total energy =     -2760.3938759450 a.u.

                    Orbital Energies (a.u.)
 --------------------------------------------------------------

 Alpha MOs
 -- Occupied --
-92.0137 -91.9978 -91.9810 -91.9579 -26.3399 -20.6130 -20.5883 -20.5866
-20.5512 -11.4115 -11.3788 -11.3093 -11.3092 -11.3068 -11.2997 -11.2990
-11.2976 -11.2891 -11.2855 -11.2842 -11.2832 -11.2819 -11.2796 -11.2722
-11.2722 -11.2585 -11.2574 -11.2496 -11.2375  -9.0127  -9.0017  -8.9832
 -8.9605  -6.6934  -6.6926  -6.6923  -6.6829  -6.6823  -6.6810  -6.6643
 -6.6635  -6.6622  -6.6417  -6.6408  -6.6398  -1.6541  -1.4728  -1.4115
 -1.4084  -1.3682  -1.2415  -1.2093  -1.1759  -1.1447  -1.0993  -1.0526
 -1.0469  -1.0304  -1.0089  -0.9988  -0.9731  -0.9598  -0.9492  -0.9409
 -0.8950  -0.8740  -0.8618  -0.8089  -0.7988  -0.7870  -0.7759  -0.7722
 -0.7621  -0.7350  -0.7244  -0.7192  -0.6979  -0.6936  -0.6845  -0.6794
 -0.6744  -0.6699  -0.6570  -0.6486  -0.6398  -0.6283  -0.6200  -0.6145
 -0.6096  -0.6075  -0.5975  -0.5942  -0.5775  -0.5698  -0.5586  -0.5553
 -0.5420  -0.5351  -0.5308  -0.5231  -0.5139  -0.5096  -0.5069  -0.5011
 -0.4869  -0.4827  -0.4761  -0.4678  -0.4625  -0.4609  -0.4582  -0.4464
 -0.4320  -0.3952  -0.3874  -0.3700  -0.3494  -0.2946  -0.2861  -0.2148

          Ground-State Mulliken Net Atomic Charges

     Atom                 Charge (a.u.)
  ----------------------------------------
      1 C                    -0.070247
      2 C                    -0.259315
      3 S                    -0.135930
      4 C                    -0.048193
      5 H                     0.193506
      6 C                    -0.052469
      7 C                     0.228613
      8 C                     0.232953
      9 C                    -0.075313
     10 C                    -0.045002
     11 O                    -0.333868
     12 O                    -0.343660
     13 C                    -0.083250
     14 H                     0.121429
     15 H                     0.092354
     16 H                     0.092394
     17 C                    -0.088417
     18 H                     0.124818
     19 H                     0.093060
     20 H                     0.089654
     21 C                    -0.288868
     22 S                    -0.101063
     23 C                     0.084857
     24 H                     0.213452
     25 C                    -0.057336
     26 S                     0.104523
     27 C                    -0.231513
     28 C                    -0.089515
     29 C                    -0.014372
     30 C                     0.346619
     31 C                    -0.135826
     32 S                     0.052947
     33 C                     0.459424
     34 O                    -0.450068
     35 O                    -0.298070
     36 F                    -0.215101
     37 C                    -0.054695
     38 H                     0.116873
     39 H                     0.084729
     40 H                     0.084512
     41 H                     0.216208
     42 H                     0.117564
     43 H                     0.115233
     44 H                     0.206371
  ----------------------------------------
  Sum of atomic charges =     0.000000

                    Cartesian Multipole Moments
 -----------------------------------------------------------------
    Charge (ESU x 10^10)
                 0.0000
    Dipole Moment (Debye)
         X       1.7976      Y       2.6714      Z       3.3039
       Tot       4.6134
    Quadrupole Moments (Debye-Ang)
        XX    -190.3202     XY       8.8945     YY    -179.6528
        XZ     -15.0530     YZ     -12.4611     ZZ    -191.6399

 Total job time:  334.42s(wall), 10945.23s(cpu)
        *  Thank you very much for using Q-Chem.  Have a nice day.  *
