 Q-Chem 5.4, Q-Chem, Inc., Pleasanton, CA (2021)
 Q-Chem 5.4.0 for Intel X86 EM64T Linux

User input:
--------------------------------------------------------------
$molecule
0 1
C	-0.255459	-8.519741	-0.093711
C	0.799036	-7.635967	0.083869
S	-1.789425	-7.651740	-0.345260
C	0.418360	-6.261894	0.018411
H	1.834294	-7.954738	0.259169
C	-0.987769	-6.079985	-0.229701
C	-1.555260	-4.798382	-0.302697
C	1.294992	-5.153542	0.196459
C	0.726408	-3.869626	0.127651
C	-0.680716	-3.688927	-0.123544
O	2.601852	-5.481075	0.396706
O	-2.868193	-4.479871	-0.502673
C	-3.691495	-5.356026	-1.262918
H	-4.614080	-4.790496	-1.494604
H	-3.974195	-6.268513	-0.693738
H	-3.199559	-5.658187	-2.212720
C	3.490743	-4.546999	0.997016
H	4.416630	-5.107564	1.226691
H	3.073934	-4.131473	1.939526
H	3.746794	-3.712085	0.309214
C	-1.058247	-2.314326	-0.186133
S	1.527599	-2.295487	0.256010
C	-0.000000	-1.435180	-0.000000
H	-2.092285	-1.993211	-0.363896
C	0.000000	0.000000	0.000000
S	0.451648	0.777811	1.510732
C	1.238377	2.142617	0.727629
C	0.454085	0.786559	-1.064665
C	1.147169	1.990043	-0.678287
C	0.422325	0.728240	-2.486150
C	1.054629	1.823683	-3.106916
S	1.675491	2.905718	-1.965735
C	1.185914	2.041729	-4.559972
O	0.721749	1.231802	-5.350277
O	1.830313	3.151386	-5.004375
F	-0.131347	-0.238577	-3.246290
C	2.018453	3.456956	-6.334976
H	2.571455	4.413580	-6.370268
H	1.052178	3.565244	-6.875609
H	2.601950	2.669768	-6.861878
H	1.698444	2.939346	1.321510
H	-0.401636	-9.146471	0.793825
H	-0.103519	-9.150570	-0.977367
H	-0.179195	-1.444158	1.064992
$end

$rem
JOBTYPE		SP
EXCHANGE	HF
CORRELATION	pRIMP2
BASIS		cc-pvtz
METHOD		rimp2
AUX_BASIS	rimp2-cc-pvtz
SOLVENT_METHOD	PCM
PURECART	11111
SYMMETRY	false
MEM_TOTAL	110000
SCF_CONVERGENCE = 6
THRESH=10
GUI = 2
$end

$solvent
dielectric 4.90
$end
--------------------------------------------------------------

             Standard Nuclear Orientation (Angstroms)
    I     Atom           X                Y                Z
 ----------------------------------------------------------------
    1      C      -0.2554590000    -8.5197410000    -0.0937110000
    2      C       0.7990360000    -7.6359670000     0.0838690000
    3      S      -1.7894250000    -7.6517400000    -0.3452600000
    4      C       0.4183600000    -6.2618940000     0.0184110000
    5      H       1.8342940000    -7.9547380000     0.2591690000
    6      C      -0.9877690000    -6.0799850000    -0.2297010000
    7      C      -1.5552600000    -4.7983820000    -0.3026970000
    8      C       1.2949920000    -5.1535420000     0.1964590000
    9      C       0.7264080000    -3.8696260000     0.1276510000
   10      C      -0.6807160000    -3.6889270000    -0.1235440000
   11      O       2.6018520000    -5.4810750000     0.3967060000
   12      O      -2.8681930000    -4.4798710000    -0.5026730000
   13      C      -3.6914950000    -5.3560260000    -1.2629180000
   14      H      -4.6140800000    -4.7904960000    -1.4946040000
   15      H      -3.9741950000    -6.2685130000    -0.6937380000
   16      H      -3.1995590000    -5.6581870000    -2.2127200000
   17      C       3.4907430000    -4.5469990000     0.9970160000
   18      H       4.4166300000    -5.1075640000     1.2266910000
   19      H       3.0739340000    -4.1314730000     1.9395260000
   20      H       3.7467940000    -3.7120850000     0.3092140000
   21      C      -1.0582470000    -2.3143260000    -0.1861330000
   22      S       1.5275990000    -2.2954870000     0.2560100000
   23      C       0.0000000000    -1.4351800000     0.0000000000
   24      H      -2.0922850000    -1.9932110000    -0.3638960000
   25      C       0.0000000000     0.0000000000     0.0000000000
   26      S       0.4516480000     0.7778110000     1.5107320000
   27      C       1.2383770000     2.1426170000     0.7276290000
   28      C       0.4540850000     0.7865590000    -1.0646650000
   29      C       1.1471690000     1.9900430000    -0.6782870000
   30      C       0.4223250000     0.7282400000    -2.4861500000
   31      C       1.0546290000     1.8236830000    -3.1069160000
   32      S       1.6754910000     2.9057180000    -1.9657350000
   33      C       1.1859140000     2.0417290000    -4.5599720000
   34      O       0.7217490000     1.2318020000    -5.3502770000
   35      O       1.8303130000     3.1513860000    -5.0043750000
   36      F      -0.1313470000    -0.2385770000    -3.2462900000
   37      C       2.0184530000     3.4569560000    -6.3349760000
   38      H       2.5714550000     4.4135800000    -6.3702680000
   39      H       1.0521780000     3.5652440000    -6.8756090000
   40      H       2.6019500000     2.6697680000    -6.8618780000
   41      H       1.6984440000     2.9393460000     1.3215100000
   42      H      -0.4016360000    -9.1464710000     0.7938250000
   43      H      -0.1035190000    -9.1505700000    -0.9773670000
   44      H      -0.1791950000    -1.4441580000     1.0649920000
 ----------------------------------------------------------------

   11   -2755.3107509532      7.12e-07  Convergence criterion met
 Total energy in the final basis set =    -2755.3107509532
        RIMP2         total energy =     -2760.4065224131 a.u.

                    Orbital Energies (a.u.)
 --------------------------------------------------------------

 Alpha MOs
 -- Occupied --
-92.0189 -91.9984 -91.9760 -91.9567 -26.3354 -20.6138 -20.5863 -20.5859
-20.5530 -11.4128 -11.3772 -11.3081 -11.3055 -11.3049 -11.3030 -11.3011
-11.2983 -11.2893 -11.2840 -11.2839 -11.2819 -11.2819 -11.2782 -11.2710
-11.2707 -11.2570 -11.2546 -11.2482 -11.2343  -9.0174  -9.0023  -8.9784
 -8.9593  -6.6981  -6.6975  -6.6971  -6.6835  -6.6829  -6.6816  -6.6594
 -6.6585  -6.6573  -6.6405  -6.6396  -6.6386  -1.6483  -1.4737  -1.4094
 -1.4080  -1.3693  -1.2400  -1.2078  -1.1743  -1.1448  -1.0978  -1.0513
 -1.0445  -1.0322  -1.0076  -0.9961  -0.9737  -0.9594  -0.9477  -0.9399
 -0.8923  -0.8728  -0.8627  -0.8080  -0.7945  -0.7838  -0.7775  -0.7743
 -0.7642  -0.7329  -0.7212  -0.7168  -0.6964  -0.6932  -0.6805  -0.6799
 -0.6739  -0.6637  -0.6554  -0.6477  -0.6307  -0.6301  -0.6187  -0.6139
 -0.6113  -0.6085  -0.5979  -0.5924  -0.5791  -0.5638  -0.5588  -0.5544
 -0.5454  -0.5359  -0.5286  -0.5222  -0.5122  -0.5066  -0.5043  -0.5002
 -0.4885  -0.4855  -0.4744  -0.4712  -0.4637  -0.4625  -0.4599  -0.4451
 -0.4220  -0.4025  -0.3841  -0.3689  -0.3503  -0.2947  -0.2882  -0.2194

          Ground-State Mulliken Net Atomic Charges

     Atom                 Charge (a.u.)
  ----------------------------------------
      1 C                    -0.069836
      2 C                    -0.266712
      3 S                    -0.138481
      4 C                    -0.041951
      5 H                     0.192427
      6 C                    -0.054030
      7 C                     0.223845
      8 C                     0.222655
      9 C                    -0.074869
     10 C                    -0.048288
     11 O                    -0.335143
     12 O                    -0.343263
     13 C                    -0.082271
     14 H                     0.119757
     15 H                     0.091540
     16 H                     0.093244
     17 C                    -0.086711
     18 H                     0.123089
     19 H                     0.091329
     20 H                     0.090227
     21 C                    -0.257042
     22 S                    -0.071603
     23 C                     0.019379
     24 H                     0.204711
     25 C                    -0.046396
     26 S                     0.106922
     27 C                    -0.213981
     28 C                    -0.091041
     29 C                     0.001895
     30 C                     0.362512
     31 C                    -0.143529
     32 S                     0.050729
     33 C                     0.457746
     34 O                    -0.445251
     35 O                    -0.297384
     36 F                    -0.210571
     37 C                    -0.054949
     38 H                     0.116956
     39 H                     0.084985
     40 H                     0.085206
     41 H                     0.218181
     42 H                     0.116182
     43 H                     0.114157
     44 H                     0.185634
  ----------------------------------------
  Sum of atomic charges =     0.000000

                    Cartesian Multipole Moments
 -----------------------------------------------------------------
    Charge (ESU x 10^10)
                -0.0000
    Dipole Moment (Debye)
         X       2.1559      Y       4.3304      Z       3.5650
       Tot       6.0091
    Quadrupole Moments (Debye-Ang)
        XX    -183.1163     XY       4.0317     YY    -181.5136
        XZ       1.9925     YZ     -10.2625     ZZ    -200.4394

 Total job time:  327.44s(wall), 10550.31s(cpu)
        *  Thank you very much for using Q-Chem.  Have a nice day.  *
