 Q-Chem 5.4, Q-Chem, Inc., Pleasanton, CA (2021)
 Q-Chem 5.4.0 for Intel X86 EM64T Linux

User input:
--------------------------------------------------------------
$molecule
0 1
C	-0.235993	-8.519741	0.135457
C	0.577858	-7.635967	-0.558188
S	-1.414705	-7.651740	1.148850
C	0.283020	-6.261894	-0.308648
H	1.377597	-7.954738	-1.238560
C	-0.810887	-6.079985	0.609026
C	-1.231581	-4.798382	0.996828
C	0.982901	-5.153542	-0.865740
C	0.564713	-3.869626	-0.474408
C	-0.532196	-3.688927	0.442046
O	1.976332	-5.481075	-1.738137
O	-2.228709	-4.479871	1.874052
C	-3.340298	-5.356026	2.016062
H	-4.110807	-4.790496	2.573877
H	-3.085998	-6.268513	2.598484
H	-3.751679	-5.658187	1.028695
C	3.007565	-4.546999	-2.033195
H	3.778655	-5.107564	-2.594833
H	3.461650	-4.131473	-1.108067
H	2.645264	-3.712085	-2.671451
C	-0.822814	-2.314326	0.691020
S	1.178037	-2.295487	-1.005649
C	-0.000000	-1.435180	-0.000000
H	-1.623656	-1.993211	1.368875
C	0.000000	0.000000	0.000000
S	0.382139	0.814215	1.510732
C	1.046923	2.242395	0.727629
C	0.383804	0.823142	-1.064665
C	0.969360	2.082453	-0.678287
C	0.357247	0.762277	-2.486150
C	0.891671	1.908660	-3.106916
S	1.415865	3.040689	-1.965735
C	1.003453	2.137318	-4.559972
O	0.611644	1.290019	-5.350277
O	1.548687	3.298916	-5.004375
F	-0.110054	-0.249117	-3.246290
C	1.709479	3.619721	-6.334976
H	2.177001	4.620902	-6.370268
H	0.737443	3.643380	-6.875609
H	2.359363	2.886384	-6.861878
H	1.435800	3.076190	1.321510
H	0.349939	-9.146471	0.817932
H	-0.815247	-9.150570	-0.548939
H	0.700647	-1.444158	0.821835
$end

$rem
JOBTYPE		SP
EXCHANGE	HF
CORRELATION	pRIMP2
BASIS		cc-pvtz
METHOD		rimp2
AUX_BASIS	rimp2-cc-pvtz
SOLVENT_METHOD	PCM
PURECART	11111
SYMMETRY	false
MEM_TOTAL	110000
SCF_CONVERGENCE = 6
THRESH=10
GUI = 2
$end

$solvent
dielectric 4.90
$end
--------------------------------------------------------------

             Standard Nuclear Orientation (Angstroms)
    I     Atom           X                Y                Z
 ----------------------------------------------------------------
    1      C      -0.2359930000    -8.5197410000     0.1354570000
    2      C       0.5778580000    -7.6359670000    -0.5581880000
    3      S      -1.4147050000    -7.6517400000     1.1488500000
    4      C       0.2830200000    -6.2618940000    -0.3086480000
    5      H       1.3775970000    -7.9547380000    -1.2385600000
    6      C      -0.8108870000    -6.0799850000     0.6090260000
    7      C      -1.2315810000    -4.7983820000     0.9968280000
    8      C       0.9829010000    -5.1535420000    -0.8657400000
    9      C       0.5647130000    -3.8696260000    -0.4744080000
   10      C      -0.5321960000    -3.6889270000     0.4420460000
   11      O       1.9763320000    -5.4810750000    -1.7381370000
   12      O      -2.2287090000    -4.4798710000     1.8740520000
   13      C      -3.3402980000    -5.3560260000     2.0160620000
   14      H      -4.1108070000    -4.7904960000     2.5738770000
   15      H      -3.0859980000    -6.2685130000     2.5984840000
   16      H      -3.7516790000    -5.6581870000     1.0286950000
   17      C       3.0075650000    -4.5469990000    -2.0331950000
   18      H       3.7786550000    -5.1075640000    -2.5948330000
   19      H       3.4616500000    -4.1314730000    -1.1080670000
   20      H       2.6452640000    -3.7120850000    -2.6714510000
   21      C      -0.8228140000    -2.3143260000     0.6910200000
   22      S       1.1780370000    -2.2954870000    -1.0056490000
   23      C       0.0000000000    -1.4351800000     0.0000000000
   24      H      -1.6236560000    -1.9932110000     1.3688750000
   25      C       0.0000000000     0.0000000000     0.0000000000
   26      S       0.3821390000     0.8142150000     1.5107320000
   27      C       1.0469230000     2.2423950000     0.7276290000
   28      C       0.3838040000     0.8231420000    -1.0646650000
   29      C       0.9693600000     2.0824530000    -0.6782870000
   30      C       0.3572470000     0.7622770000    -2.4861500000
   31      C       0.8916710000     1.9086600000    -3.1069160000
   32      S       1.4158650000     3.0406890000    -1.9657350000
   33      C       1.0034530000     2.1373180000    -4.5599720000
   34      O       0.6116440000     1.2900190000    -5.3502770000
   35      O       1.5486870000     3.2989160000    -5.0043750000
   36      F      -0.1100540000    -0.2491170000    -3.2462900000
   37      C       1.7094790000     3.6197210000    -6.3349760000
   38      H       2.1770010000     4.6209020000    -6.3702680000
   39      H       0.7374430000     3.6433800000    -6.8756090000
   40      H       2.3593630000     2.8863840000    -6.8618780000
   41      H       1.4358000000     3.0761900000     1.3215100000
   42      H       0.3499390000    -9.1464710000     0.8179320000
   43      H      -0.8152470000    -9.1505700000    -0.5489390000
   44      H       0.7006470000    -1.4441580000     0.8218350000
 ----------------------------------------------------------------

   11   -2755.3135382526      8.14e-07  Convergence criterion met
 Total energy in the final basis set =    -2755.3135382526
        RIMP2         total energy =     -2760.4071155591 a.u.

                    Orbital Energies (a.u.)
 --------------------------------------------------------------

 Alpha MOs
 -- Occupied --
-92.0137 -91.9950 -91.9781 -91.9583 -26.3344 -20.6127 -20.5873 -20.5866
-20.5508 -11.4110 -11.3785 -11.3145 -11.3090 -11.3073 -11.2988 -11.2975
-11.2955 -11.2888 -11.2841 -11.2831 -11.2829 -11.2825 -11.2813 -11.2731
-11.2718 -11.2582 -11.2582 -11.2497 -11.2370  -9.0129  -8.9991  -8.9803
 -8.9609  -6.6936  -6.6930  -6.6925  -6.6803  -6.6797  -6.6783  -6.6614
 -6.6605  -6.6592  -6.6421  -6.6412  -6.6402  -1.6476  -1.4723  -1.4102
 -1.4090  -1.3677  -1.2403  -1.2092  -1.1759  -1.1446  -1.0990  -1.0512
 -1.0456  -1.0318  -1.0080  -0.9979  -0.9726  -0.9598  -0.9486  -0.9406
 -0.8935  -0.8714  -0.8635  -0.8105  -0.7930  -0.7854  -0.7760  -0.7714
 -0.7653  -0.7331  -0.7209  -0.7158  -0.6968  -0.6931  -0.6824  -0.6789
 -0.6723  -0.6669  -0.6562  -0.6486  -0.6372  -0.6282  -0.6200  -0.6149
 -0.6111  -0.6070  -0.5963  -0.5932  -0.5806  -0.5649  -0.5632  -0.5574
 -0.5482  -0.5344  -0.5283  -0.5213  -0.5128  -0.5077  -0.5033  -0.5015
 -0.4866  -0.4842  -0.4773  -0.4689  -0.4619  -0.4616  -0.4611  -0.4467
 -0.4259  -0.4017  -0.3853  -0.3709  -0.3514  -0.2937  -0.2864  -0.2182

          Ground-State Mulliken Net Atomic Charges

     Atom                 Charge (a.u.)
  ----------------------------------------
      1 C                    -0.070057
      2 C                    -0.259511
      3 S                    -0.135587
      4 C                    -0.046172
      5 H                     0.193658
      6 C                    -0.047100
      7 C                     0.216310
      8 C                     0.224471
      9 C                    -0.072458
     10 C                    -0.024150
     11 O                    -0.334704
     12 O                    -0.343722
     13 C                    -0.082679
     14 H                     0.119769
     15 H                     0.092095
     16 H                     0.093190
     17 C                    -0.088250
     18 H                     0.123756
     19 H                     0.091845
     20 H                     0.091434
     21 C                    -0.299967
     22 S                    -0.084254
     23 C                     0.087839
     24 H                     0.203354
     25 C                    -0.014670
     26 S                     0.094255
     27 C                    -0.234225
     28 C                    -0.156908
     29 C                    -0.001352
     30 C                     0.389795
     31 C                    -0.148473
     32 S                     0.038969
     33 C                     0.460245
     34 O                    -0.448548
     35 O                    -0.297894
     36 F                    -0.209237
     37 C                    -0.054899
     38 H                     0.116692
     39 H                     0.084803
     40 H                     0.084625
     41 H                     0.215254
     42 H                     0.117398
     43 H                     0.115245
     44 H                     0.199815
  ----------------------------------------
  Sum of atomic charges =     0.000000

                    Cartesian Multipole Moments
 -----------------------------------------------------------------
    Charge (ESU x 10^10)
                -0.0000
    Dipole Moment (Debye)
         X       2.0328      Y       3.1004      Z       3.4185
       Tot       5.0429
    Quadrupole Moments (Debye-Ang)
        XX    -182.5635     XY       3.1284     YY    -176.7961
        XZ     -11.0183     YZ      -7.1614     ZZ    -203.4678

 Total job time:  341.24s(wall), 10432.55s(cpu)
        *  Thank you very much for using Q-Chem.  Have a nice day.  *
