 Q-Chem 5.4, Q-Chem, Inc., Pleasanton, CA (2021)
 Q-Chem 5.4.0 for Intel X86 EM64T Linux

User input:
--------------------------------------------------------------
$molecule
0 1
C	0.208886	-8.519741	-0.174379
C	-0.472151	-7.635967	0.650052
S	1.193717	-7.651740	-1.377058
C	-0.225125	-6.261894	0.353105
H	-1.141594	-7.954738	1.458961
C	0.692811	-6.079985	-0.740583
C	1.039773	-4.798382	-1.195546
C	-0.817634	-5.153542	1.023267
C	-0.473754	-3.869626	0.565262
C	0.447350	-3.688927	-0.527745
O	-1.644483	-5.481075	2.054917
O	1.869424	-4.479871	-2.232592
C	2.939466	-5.356026	-2.565470
H	3.601405	-4.790496	-3.248608
H	2.587892	-6.268513	-3.094885
H	3.516052	-5.658187	-1.664539
C	-2.608813	-4.546999	2.524564
H	-3.270661	-5.107564	3.211568
H	-3.216646	-4.131473	1.692342
H	-2.141184	-3.712085	3.090211
C	0.690319	-2.314326	-0.823402
S	-0.985511	-2.295487	1.194935
C	0.000000	-1.435180	0.000000
H	1.361286	-1.993211	-1.630024
C	0.000000	0.000000	0.000000
S	0.234946	0.868203	1.510732
C	0.641630	2.390125	0.727629
C	0.235036	0.877284	-1.064665
C	0.593019	2.219143	-0.678287
C	0.219452	0.812732	-2.486150
C	0.546689	2.034501	-3.106916
S	0.866345	3.240357	-1.965735
C	0.617067	2.279095	-4.559972
O	0.378342	1.376631	-5.350277
O	0.952308	3.517725	-5.004375
F	-0.065123	-0.264443	-3.246290
C	1.054950	3.861577	-6.334976
H	1.341516	4.928732	-6.370268
H	0.093573	3.716085	-6.875609
H	1.822303	3.252232	-6.861878
H	0.879812	3.278780	1.321510
H	-0.486655	-9.146471	-0.744739
H	0.898184	-9.150570	0.399033
H	-0.832713	-1.444158	-0.687683
$end

$rem
JOBTYPE		SP
EXCHANGE	HF
CORRELATION	pRIMP2
BASIS		cc-pvtz
METHOD		rimp2
AUX_BASIS	rimp2-cc-pvtz
SOLVENT_METHOD	PCM
PURECART	11111
SYMMETRY	false
MEM_TOTAL	110000
SCF_CONVERGENCE = 6
THRESH=10
GUI = 2
$end

$solvent
dielectric 4.90
$end
--------------------------------------------------------------

             Standard Nuclear Orientation (Angstroms)
    I     Atom           X                Y                Z
 ----------------------------------------------------------------
    1      C       0.2088860000    -8.5197410000    -0.1743790000
    2      C      -0.4721510000    -7.6359670000     0.6500520000
    3      S       1.1937170000    -7.6517400000    -1.3770580000
    4      C      -0.2251250000    -6.2618940000     0.3531050000
    5      H      -1.1415940000    -7.9547380000     1.4589610000
    6      C       0.6928110000    -6.0799850000    -0.7405830000
    7      C       1.0397730000    -4.7983820000    -1.1955460000
    8      C      -0.8176340000    -5.1535420000     1.0232670000
    9      C      -0.4737540000    -3.8696260000     0.5652620000
   10      C       0.4473500000    -3.6889270000    -0.5277450000
   11      O      -1.6444830000    -5.4810750000     2.0549170000
   12      O       1.8694240000    -4.4798710000    -2.2325920000
   13      C       2.9394660000    -5.3560260000    -2.5654700000
   14      H       3.6014050000    -4.7904960000    -3.2486080000
   15      H       2.5878920000    -6.2685130000    -3.0948850000
   16      H       3.5160520000    -5.6581870000    -1.6645390000
   17      C      -2.6088130000    -4.5469990000     2.5245640000
   18      H      -3.2706610000    -5.1075640000     3.2115680000
   19      H      -3.2166460000    -4.1314730000     1.6923420000
   20      H      -2.1411840000    -3.7120850000     3.0902110000
   21      C       0.6903190000    -2.3143260000    -0.8234020000
   22      S      -0.9855110000    -2.2954870000     1.1949350000
   23      C       0.0000000000    -1.4351800000     0.0000000000
   24      H       1.3612860000    -1.9932110000    -1.6300240000
   25      C       0.0000000000     0.0000000000     0.0000000000
   26      S       0.2349460000     0.8682030000     1.5107320000
   27      C       0.6416300000     2.3901250000     0.7276290000
   28      C       0.2350360000     0.8772840000    -1.0646650000
   29      C       0.5930190000     2.2191430000    -0.6782870000
   30      C       0.2194520000     0.8127320000    -2.4861500000
   31      C       0.5466890000     2.0345010000    -3.1069160000
   32      S       0.8663450000     3.2403570000    -1.9657350000
   33      C       0.6170670000     2.2790950000    -4.5599720000
   34      O       0.3783420000     1.3766310000    -5.3502770000
   35      O       0.9523080000     3.5177250000    -5.0043750000
   36      F      -0.0651230000    -0.2644430000    -3.2462900000
   37      C       1.0549500000     3.8615770000    -6.3349760000
   38      H       1.3415160000     4.9287320000    -6.3702680000
   39      H       0.0935730000     3.7160850000    -6.8756090000
   40      H       1.8223030000     3.2522320000    -6.8618780000
   41      H       0.8798120000     3.2787800000     1.3215100000
   42      H      -0.4866550000    -9.1464710000    -0.7447390000
   43      H       0.8981840000    -9.1505700000     0.3990330000
   44      H      -0.8327130000    -1.4441580000    -0.6876830000
 ----------------------------------------------------------------

   11   -2755.3239358990      7.32e-07  Convergence criterion met
 Total energy in the final basis set =    -2755.3239358990
        RIMP2         total energy =     -2760.4167353215 a.u.

                    Orbital Energies (a.u.)
 --------------------------------------------------------------

 Alpha MOs
 -- Occupied --
-92.0144 -91.9950 -91.9815 -91.9589 -26.3384 -20.6122 -20.5885 -20.5872
-20.5497 -11.4102 -11.3795 -11.3193 -11.3100 -11.3097 -11.2979 -11.2964
-11.2896 -11.2886 -11.2856 -11.2847 -11.2845 -11.2826 -11.2815 -11.2740
-11.2737 -11.2600 -11.2592 -11.2505 -11.2392  -9.0129  -8.9991  -8.9836
 -8.9615  -6.6937  -6.6930  -6.6926  -6.6803  -6.6797  -6.6783  -6.6647
 -6.6638  -6.6626  -6.6428  -6.6418  -6.6408  -1.6515  -1.4718  -1.4118
 -1.4091  -1.3671  -1.2390  -1.2103  -1.1765  -1.1436  -1.1008  -1.0514
 -1.0475  -1.0289  -1.0099  -0.9995  -0.9720  -0.9602  -0.9496  -0.9412
 -0.8951  -0.8740  -0.8627  -0.8085  -0.7952  -0.7868  -0.7776  -0.7724
 -0.7624  -0.7342  -0.7205  -0.7188  -0.6987  -0.6938  -0.6861  -0.6787
 -0.6753  -0.6724  -0.6568  -0.6490  -0.6374  -0.6284  -0.6209  -0.6153
 -0.6110  -0.6063  -0.5953  -0.5935  -0.5811  -0.5690  -0.5595  -0.5534
 -0.5464  -0.5359  -0.5303  -0.5231  -0.5134  -0.5083  -0.5055  -0.5024
 -0.4859  -0.4847  -0.4774  -0.4704  -0.4625  -0.4614  -0.4607  -0.4474
 -0.4291  -0.4000  -0.3870  -0.3712  -0.3509  -0.2937  -0.2868  -0.2192

          Ground-State Mulliken Net Atomic Charges

     Atom                 Charge (a.u.)
  ----------------------------------------
      1 C                    -0.070619
      2 C                    -0.253791
      3 S                    -0.133107
      4 C                    -0.048820
      5 H                     0.194163
      6 C                    -0.052007
      7 C                     0.221273
      8 C                     0.234704
      9 C                    -0.079107
     10 C                    -0.034122
     11 O                    -0.334285
     12 O                    -0.342501
     13 C                    -0.082847
     14 H                     0.120706
     15 H                     0.092174
     16 H                     0.092539
     17 C                    -0.087218
     18 H                     0.124277
     19 H                     0.093309
     20 H                     0.090052
     21 C                    -0.305635
     22 S                    -0.082269
     23 C                     0.116276
     24 H                     0.204950
     25 C                    -0.079316
     26 S                     0.103279
     27 C                    -0.253105
     28 C                    -0.099729
     29 C                    -0.004217
     30 C                     0.390940
     31 C                    -0.148668
     32 S                     0.037297
     33 C                     0.462399
     34 O                    -0.452133
     35 O                    -0.298172
     36 F                    -0.215847
     37 C                    -0.055032
     38 H                     0.116635
     39 H                     0.084561
     40 H                     0.084394
     41 H                     0.213719
     42 H                     0.118310
     43 H                     0.115899
     44 H                     0.200691
  ----------------------------------------
  Sum of atomic charges =     0.000000

                    Cartesian Multipole Moments
 -----------------------------------------------------------------
    Charge (ESU x 10^10)
                 0.0000
    Dipole Moment (Debye)
         X       0.2268      Y       2.5301      Z       3.0337
       Tot       3.9568
    Quadrupole Moments (Debye-Ang)
        XX    -186.7259     XY       6.5629     YY    -171.9992
        XZ     -11.2900     YZ     -13.4437     ZZ    -201.9151

 Total job time:  327.58s(wall), 10432.42s(cpu)
        *  Thank you very much for using Q-Chem.  Have a nice day.  *
