 Q-Chem 5.4, Q-Chem, Inc., Pleasanton, CA (2021)
 Q-Chem 5.4.0 for Intel X86 EM64T Linux

User input:
--------------------------------------------------------------
$molecule
0 1
C	0.175432	-8.519741	-0.208002
C	-0.352097	-7.635967	0.722164
S	0.936458	-7.651740	-1.563424
C	-0.160388	-6.261894	0.386833
H	-0.870905	-7.954738	1.635031
C	0.553685	-6.079985	-0.849637
C	0.816372	-4.798382	-1.357938
C	-0.627524	-5.153542	1.149702
C	-0.368399	-3.869626	0.638941
C	0.348912	-3.688927	-0.597409
O	-1.262667	-5.481075	2.309260
O	1.453338	-4.479871	-2.523296
C	2.449320	-5.356026	-3.036927
H	2.982577	-4.790496	-3.824632
H	2.011155	-6.268513	-3.497250
H	3.173591	-5.658187	-2.249807
C	-2.130793	-4.546999	2.939226
H	-2.663289	-5.107564	3.730721
H	-2.873906	-4.131473	2.225196
H	-1.572045	-3.712085	3.415077
C	0.536849	-2.314326	-0.930765
S	-0.763041	-2.295487	1.347913
C	0.000000	-1.435180	0.000000
H	1.057554	-1.993211	-1.841645
C	0.000000	0.000000	0.000000
S	0.309721	0.844422	1.510732
C	0.847502	2.325108	0.727629
C	0.310602	0.853460	-1.064665
C	0.784173	2.159014	-0.678287
C	0.289451	0.790512	-2.486150
C	0.721927	1.979112	-3.106916
S	1.145464	3.152519	-1.965735
C	0.813355	2.216642	-4.559972
O	0.496884	1.338418	-5.350277
O	1.255274	3.421340	-5.004375
F	-0.087923	-0.257761	-3.246290
C	1.387494	3.754937	-6.334976
H	1.765978	4.793056	-6.370268
H	0.417095	3.693789	-6.875609
H	2.098820	3.081033	-6.861878
H	1.162229	3.189623	1.321510
H	-0.608584	-9.146471	-0.648918
H	0.953830	-9.150570	0.237003
H	-0.939477	-1.444158	-0.532637
$end

$rem
JOBTYPE		SP
EXCHANGE	HF
CORRELATION	pRIMP2
BASIS		cc-pvtz
METHOD		rimp2
AUX_BASIS	rimp2-cc-pvtz
SOLVENT_METHOD	PCM
PURECART	11111
SYMMETRY	false
MEM_TOTAL	110000
SCF_CONVERGENCE = 6
THRESH=10
GUI = 2
$end

$solvent
dielectric 4.90
$end
--------------------------------------------------------------

             Standard Nuclear Orientation (Angstroms)
    I     Atom           X                Y                Z
 ----------------------------------------------------------------
    1      C       0.1754320000    -8.5197410000    -0.2080020000
    2      C      -0.3520970000    -7.6359670000     0.7221640000
    3      S       0.9364580000    -7.6517400000    -1.5634240000
    4      C      -0.1603880000    -6.2618940000     0.3868330000
    5      H      -0.8709050000    -7.9547380000     1.6350310000
    6      C       0.5536850000    -6.0799850000    -0.8496370000
    7      C       0.8163720000    -4.7983820000    -1.3579380000
    8      C      -0.6275240000    -5.1535420000     1.1497020000
    9      C      -0.3683990000    -3.8696260000     0.6389410000
   10      C       0.3489120000    -3.6889270000    -0.5974090000
   11      O      -1.2626670000    -5.4810750000     2.3092600000
   12      O       1.4533380000    -4.4798710000    -2.5232960000
   13      C       2.4493200000    -5.3560260000    -3.0369270000
   14      H       2.9825770000    -4.7904960000    -3.8246320000
   15      H       2.0111550000    -6.2685130000    -3.4972500000
   16      H       3.1735910000    -5.6581870000    -2.2498070000
   17      C      -2.1307930000    -4.5469990000     2.9392260000
   18      H      -2.6632890000    -5.1075640000     3.7307210000
   19      H      -2.8739060000    -4.1314730000     2.2251960000
   20      H      -1.5720450000    -3.7120850000     3.4150770000
   21      C       0.5368490000    -2.3143260000    -0.9307650000
   22      S      -0.7630410000    -2.2954870000     1.3479130000
   23      C       0.0000000000    -1.4351800000     0.0000000000
   24      H       1.0575540000    -1.9932110000    -1.8416450000
   25      C       0.0000000000     0.0000000000     0.0000000000
   26      S       0.3097210000     0.8444220000     1.5107320000
   27      C       0.8475020000     2.3251080000     0.7276290000
   28      C       0.3106020000     0.8534600000    -1.0646650000
   29      C       0.7841730000     2.1590140000    -0.6782870000
   30      C       0.2894510000     0.7905120000    -2.4861500000
   31      C       0.7219270000     1.9791120000    -3.1069160000
   32      S       1.1454640000     3.1525190000    -1.9657350000
   33      C       0.8133550000     2.2166420000    -4.5599720000
   34      O       0.4968840000     1.3384180000    -5.3502770000
   35      O       1.2552740000     3.4213400000    -5.0043750000
   36      F      -0.0879230000    -0.2577610000    -3.2462900000
   37      C       1.3874940000     3.7549370000    -6.3349760000
   38      H       1.7659780000     4.7930560000    -6.3702680000
   39      H       0.4170950000     3.6937890000    -6.8756090000
   40      H       2.0988200000     3.0810330000    -6.8618780000
   41      H       1.1622290000     3.1896230000     1.3215100000
   42      H      -0.6085840000    -9.1464710000    -0.6489180000
   43      H       0.9538300000    -9.1505700000     0.2370030000
   44      H      -0.9394770000    -1.4441580000    -0.5326370000
 ----------------------------------------------------------------

   11   -2755.3190601236      7.21e-07  Convergence criterion met
 Total energy in the final basis set =    -2755.3190601236
        RIMP2         total energy =     -2760.4135731036 a.u.

                    Orbital Energies (a.u.)
 --------------------------------------------------------------

 Alpha MOs
 -- Occupied --
-92.0144 -91.9948 -91.9821 -91.9591 -26.3387 -20.6119 -20.5890 -20.5872
-20.5493 -11.4099 -11.3794 -11.3194 -11.3107 -11.3098 -11.2979 -11.2957
-11.2888 -11.2885 -11.2858 -11.2852 -11.2847 -11.2824 -11.2805 -11.2742
-11.2735 -11.2604 -11.2595 -11.2507 -11.2399  -9.0130  -8.9988  -8.9842
 -8.9617  -6.6937  -6.6931  -6.6926  -6.6801  -6.6794  -6.6781  -6.6654
 -6.6645  -6.6632  -6.6429  -6.6420  -6.6410  -1.6521  -1.4716  -1.4122
 -1.4091  -1.3668  -1.2391  -1.2105  -1.1768  -1.1437  -1.1009  -1.0513
 -1.0478  -1.0289  -1.0100  -0.9998  -0.9720  -0.9602  -0.9499  -0.9412
 -0.8954  -0.8738  -0.8626  -0.8088  -0.7960  -0.7872  -0.7770  -0.7722
 -0.7625  -0.7345  -0.7214  -0.7189  -0.6988  -0.6940  -0.6856  -0.6785
 -0.6743  -0.6724  -0.6572  -0.6492  -0.6386  -0.6289  -0.6211  -0.6154
 -0.6105  -0.6061  -0.5955  -0.5934  -0.5801  -0.5697  -0.5598  -0.5537
 -0.5457  -0.5358  -0.5308  -0.5232  -0.5137  -0.5086  -0.5062  -0.5023
 -0.4854  -0.4847  -0.4779  -0.4698  -0.4626  -0.4612  -0.4601  -0.4476
 -0.4306  -0.3987  -0.3875  -0.3714  -0.3508  -0.2939  -0.2862  -0.2185

          Ground-State Mulliken Net Atomic Charges

     Atom                 Charge (a.u.)
  ----------------------------------------
      1 C                    -0.070785
      2 C                    -0.252229
      3 S                    -0.132569
      4 C                    -0.049868
      5 H                     0.194358
      6 C                    -0.051052
      7 C                     0.221848
      8 C                     0.235417
      9 C                    -0.075760
     10 C                    -0.032573
     11 O                    -0.333906
     12 O                    -0.342544
     13 C                    -0.082941
     14 H                     0.120955
     15 H                     0.092235
     16 H                     0.092549
     17 C                    -0.087750
     18 H                     0.124719
     19 H                     0.093435
     20 H                     0.090105
     21 C                    -0.320869
     22 S                    -0.089458
     23 C                     0.129862
     24 H                     0.202740
     25 C                    -0.061514
     26 S                     0.104181
     27 C                    -0.258847
     28 C                    -0.103063
     29 C                    -0.002180
     30 C                     0.375798
     31 C                    -0.148680
     32 S                     0.038897
     33 C                     0.462047
     34 O                    -0.452790
     35 O                    -0.298377
     36 F                    -0.215438
     37 C                    -0.054932
     38 H                     0.116608
     39 H                     0.084476
     40 H                     0.084269
     41 H                     0.213598
     42 H                     0.118564
     43 H                     0.116136
     44 H                     0.205325
  ----------------------------------------
  Sum of atomic charges =     0.000000

                    Cartesian Multipole Moments
 -----------------------------------------------------------------
    Charge (ESU x 10^10)
                 0.0000
    Dipole Moment (Debye)
         X       0.4079      Y       2.2225      Z       3.2032
       Tot       3.9200
    Quadrupole Moments (Debye-Ang)
        XX    -189.1004     XY       7.0599     YY    -171.8305
        XZ     -13.1444     YZ     -13.5232     ZZ    -198.9408

 Total job time:  325.17s(wall), 10520.52s(cpu)
        *  Thank you very much for using Q-Chem.  Have a nice day.  *
