 Q-Chem 5.4, Q-Chem, Inc., Pleasanton, CA (2021)
 Q-Chem 5.4.0 for Intel X86 EM64T Linux

User input:
--------------------------------------------------------------
$molecule
0 1
C	-0.235993	-8.519741	0.135457
C	0.577858	-7.635967	-0.558188
S	-1.414705	-7.651740	1.148850
C	0.283020	-6.261894	-0.308648
H	1.377597	-7.954738	-1.238560
C	-0.810887	-6.079985	0.609026
C	-1.231581	-4.798382	0.996828
C	0.982901	-5.153542	-0.865740
C	0.564713	-3.869626	-0.474408
C	-0.532196	-3.688927	0.442046
O	1.976332	-5.481075	-1.738137
O	-2.228709	-4.479871	1.874052
C	-3.340298	-5.356026	2.016062
H	-4.110807	-4.790496	2.573877
H	-3.085998	-6.268513	2.598484
H	-3.751679	-5.658187	1.028695
C	3.007565	-4.546999	-2.033195
H	3.778655	-5.107564	-2.594833
H	3.461650	-4.131473	-1.108067
H	2.645264	-3.712085	-2.671451
C	-0.822814	-2.314326	0.691020
S	1.178037	-2.295487	-1.005649
C	0.000000	-1.435180	0.000000
H	-1.623656	-1.993211	1.368875
C	0.000000	0.000000	0.000000
S	0.780044	0.447780	1.510732
C	2.143774	1.236372	0.727629
C	0.786529	0.454137	-1.064665
C	1.988499	1.149844	-0.678287
C	0.729864	0.419512	-2.486150
C	1.825177	1.052041	-3.106916
S	2.903877	1.678680	-1.965735
C	2.047896	1.175232	-4.559972
O	1.240953	0.705897	-5.350277
O	3.160791	1.814024	-5.004375
F	-0.233039	-0.140940	-3.246290
C	3.476510	1.984585	-6.334976
H	4.433735	2.536545	-6.370268
H	2.693835	2.561503	-6.875609
H	3.588239	1.011113	-6.861878
H	2.940569	1.696327	1.321510
H	0.349939	-9.146471	0.817932
H	-0.815247	-9.150570	-0.548939
H	0.700647	-1.444158	0.821835
$end

$rem
JOBTYPE		SP
EXCHANGE	HF
CORRELATION	pRIMP2
BASIS		cc-pvtz
METHOD		rimp2
AUX_BASIS	rimp2-cc-pvtz
SOLVENT_METHOD	PCM
PURECART	11111
SYMMETRY	false
MEM_TOTAL	110000
SCF_CONVERGENCE = 6
THRESH=10
GUI = 2
$end

$solvent
dielectric 4.90
$end
--------------------------------------------------------------

             Standard Nuclear Orientation (Angstroms)
    I     Atom           X                Y                Z
 ----------------------------------------------------------------
    1      C      -0.2359930000    -8.5197410000     0.1354570000
    2      C       0.5778580000    -7.6359670000    -0.5581880000
    3      S      -1.4147050000    -7.6517400000     1.1488500000
    4      C       0.2830200000    -6.2618940000    -0.3086480000
    5      H       1.3775970000    -7.9547380000    -1.2385600000
    6      C      -0.8108870000    -6.0799850000     0.6090260000
    7      C      -1.2315810000    -4.7983820000     0.9968280000
    8      C       0.9829010000    -5.1535420000    -0.8657400000
    9      C       0.5647130000    -3.8696260000    -0.4744080000
   10      C      -0.5321960000    -3.6889270000     0.4420460000
   11      O       1.9763320000    -5.4810750000    -1.7381370000
   12      O      -2.2287090000    -4.4798710000     1.8740520000
   13      C      -3.3402980000    -5.3560260000     2.0160620000
   14      H      -4.1108070000    -4.7904960000     2.5738770000
   15      H      -3.0859980000    -6.2685130000     2.5984840000
   16      H      -3.7516790000    -5.6581870000     1.0286950000
   17      C       3.0075650000    -4.5469990000    -2.0331950000
   18      H       3.7786550000    -5.1075640000    -2.5948330000
   19      H       3.4616500000    -4.1314730000    -1.1080670000
   20      H       2.6452640000    -3.7120850000    -2.6714510000
   21      C      -0.8228140000    -2.3143260000     0.6910200000
   22      S       1.1780370000    -2.2954870000    -1.0056490000
   23      C       0.0000000000    -1.4351800000     0.0000000000
   24      H      -1.6236560000    -1.9932110000     1.3688750000
   25      C       0.0000000000     0.0000000000     0.0000000000
   26      S       0.7800440000     0.4477800000     1.5107320000
   27      C       2.1437740000     1.2363720000     0.7276290000
   28      C       0.7865290000     0.4541370000    -1.0646650000
   29      C       1.9884990000     1.1498440000    -0.6782870000
   30      C       0.7298640000     0.4195120000    -2.4861500000
   31      C       1.8251770000     1.0520410000    -3.1069160000
   32      S       2.9038770000     1.6786800000    -1.9657350000
   33      C       2.0478960000     1.1752320000    -4.5599720000
   34      O       1.2409530000     0.7058970000    -5.3502770000
   35      O       3.1607910000     1.8140240000    -5.0043750000
   36      F      -0.2330390000    -0.1409400000    -3.2462900000
   37      C       3.4765100000     1.9845850000    -6.3349760000
   38      H       4.4337350000     2.5365450000    -6.3702680000
   39      H       2.6938350000     2.5615030000    -6.8756090000
   40      H       3.5882390000     1.0111130000    -6.8618780000
   41      H       2.9405690000     1.6963270000     1.3215100000
   42      H       0.3499390000    -9.1464710000     0.8179320000
   43      H      -0.8152470000    -9.1505700000    -0.5489390000
   44      H       0.7006470000    -1.4441580000     0.8218350000
 ----------------------------------------------------------------

   11   -2755.2410474782      9.97e-07  Convergence criterion met
 Total energy in the final basis set =    -2755.2410474782
        RIMP2         total energy =     -2760.3561234244 a.u.

                    Orbital Energies (a.u.)
 --------------------------------------------------------------

 Alpha MOs
 -- Occupied --
-92.0099 -92.0060 -91.9745 -91.9548 -26.3356 -20.6171 -20.5857 -20.5836
-20.5587 -11.4178 -11.3788 -11.3261 -11.3149 -11.3069 -11.3017 -11.3014
-11.2975 -11.2911 -11.2829 -11.2825 -11.2816 -11.2797 -11.2695 -11.2679
-11.2677 -11.2549 -11.2508 -11.2461 -11.2288  -9.0108  -9.0096  -8.9769
 -8.9574  -6.6913  -6.6908  -6.6903  -6.6902  -6.6902  -6.6889  -6.6580
 -6.6571  -6.6558  -6.6387  -6.6377  -6.6367  -1.6487  -1.4774  -1.4079
 -1.4066  -1.3736  -1.2540  -1.2080  -1.1747  -1.1477  -1.0964  -1.0572
 -1.0426  -1.0381  -1.0062  -0.9943  -0.9777  -0.9591  -0.9471  -0.9404
 -0.8909  -0.8785  -0.8560  -0.8130  -0.7970  -0.7852  -0.7783  -0.7707
 -0.7612  -0.7350  -0.7209  -0.7168  -0.6987  -0.6939  -0.6827  -0.6800
 -0.6784  -0.6693  -0.6541  -0.6467  -0.6365  -0.6277  -0.6166  -0.6139
 -0.6128  -0.6102  -0.6054  -0.5909  -0.5775  -0.5684  -0.5597  -0.5545
 -0.5434  -0.5328  -0.5321  -0.5223  -0.5111  -0.5070  -0.5057  -0.4984
 -0.4919  -0.4814  -0.4725  -0.4688  -0.4653  -0.4624  -0.4564  -0.4435
 -0.4228  -0.3984  -0.3812  -0.3700  -0.3493  -0.3010  -0.2849  -0.2109

          Ground-State Mulliken Net Atomic Charges

     Atom                 Charge (a.u.)
  ----------------------------------------
      1 C                    -0.068865
      2 C                    -0.282696
      3 S                    -0.143206
      4 C                    -0.043218
      5 H                     0.190458
      6 C                    -0.052302
      7 C                     0.219732
      8 C                     0.217637
      9 C                    -0.067139
     10 C                    -0.031647
     11 O                    -0.335663
     12 O                    -0.343619
     13 C                    -0.082565
     14 H                     0.119152
     15 H                     0.091909
     16 H                     0.092893
     17 C                    -0.088463
     18 H                     0.123224
     19 H                     0.090181
     20 H                     0.090094
     21 C                    -0.327710
     22 S                    -0.119871
     23 C                     0.126042
     24 H                     0.202790
     25 C                    -0.160566
     26 S                     0.092225
     27 C                    -0.140175
     28 C                    -0.054640
     29 C                    -0.032755
     30 C                     0.380114
     31 C                    -0.119119
     32 S                     0.070677
     33 C                     0.459172
     34 O                    -0.435588
     35 O                    -0.296209
     36 F                    -0.210896
     37 C                    -0.054717
     38 H                     0.117752
     39 H                     0.086168
     40 H                     0.086087
     41 H                     0.221537
     42 H                     0.114102
     43 H                     0.111969
     44 H                     0.187710
  ----------------------------------------
  Sum of atomic charges =     0.000000

                    Cartesian Multipole Moments
 -----------------------------------------------------------------
    Charge (ESU x 10^10)
                -0.0000
    Dipole Moment (Debye)
         X       5.3232      Y       4.4879      Z       2.7253
       Tot       7.4770
    Quadrupole Moments (Debye-Ang)
        XX    -170.2181     XY       6.7744     YY    -198.1114
        XZ     -17.2580     YZ      -4.3684     ZZ    -199.0712

 Total job time:  334.10s(wall), 10901.68s(cpu)
        *  Thank you very much for using Q-Chem.  Have a nice day.  *
