 Q-Chem 5.4, Q-Chem, Inc., Pleasanton, CA (2021)
 Q-Chem 5.4.0 for Intel X86 EM64T Linux

User input:
--------------------------------------------------------------
$molecule
0 1
C	0.267851	-8.519741	0.047927
C	-0.801461	-7.635967	0.056157
S	1.822194	-7.651740	0.029285
C	-0.415201	-6.261894	0.054516
H	-1.851431	-7.954738	0.063290
C	1.012650	-6.079985	0.054687
C	1.584194	-4.798382	0.028030
C	-1.309433	-5.153542	0.031399
C	-0.737539	-3.869626	0.000427
C	0.691828	-3.688927	0.003462
O	-2.631211	-5.481075	0.061128
O	2.911907	-4.479871	-0.003021
C	3.854716	-5.356026	0.602710
H	4.803517	-4.790496	0.670671
H	4.034285	-6.268513	-0.006913
H	3.535185	-5.658187	1.623507
C	-3.610841	-4.546999	-0.375708
H	-4.562544	-5.107564	-0.441115
H	-3.364029	-4.131473	-1.376277
H	-3.743566	-3.712085	0.346107
C	1.074491	-2.314326	-0.000458
S	-1.548848	-2.295487	0.013144
C	-0.000000	-1.435180	-0.000000
H	2.123688	-1.993211	-0.004953
C	0.000000	0.000000	0.000000
S	0.579852	0.687566	1.510732
C	1.591625	1.895024	0.727629
C	0.583771	0.695758	-1.064665
C	1.475308	1.760606	-0.678287
C	0.542366	0.643841	-2.486150
C	1.355286	1.612843	-3.106916
S	2.154609	2.570627	-1.965735
C	1.522440	1.804778	-4.559972
O	0.924684	1.087757	-5.350277
O	2.349739	2.785679	-5.004375
F	-0.170780	-0.212144	-3.246290
C	2.588082	3.053936	-6.334976
H	3.298799	3.899999	-6.370268
H	1.655291	3.328371	-6.875609
H	3.026021	2.177385	-6.861878
H	2.183053	2.599759	1.321510
H	0.257688	-9.146471	-0.851509
H	0.271664	-9.150570	0.944542
H	-0.008462	-1.444158	-1.079930
$end

$rem
JOBTYPE		SP
EXCHANGE	HF
CORRELATION	pRIMP2
BASIS		cc-pvtz
METHOD		rimp2
AUX_BASIS	rimp2-cc-pvtz
SOLVENT_METHOD	PCM
PURECART	11111
SYMMETRY	false
MEM_TOTAL	110000
SCF_CONVERGENCE = 6
THRESH=10
GUI = 2
$end

$solvent
dielectric 4.90
$end
--------------------------------------------------------------

             Standard Nuclear Orientation (Angstroms)
    I     Atom           X                Y                Z
 ----------------------------------------------------------------
    1      C       0.2678510000    -8.5197410000     0.0479270000
    2      C      -0.8014610000    -7.6359670000     0.0561570000
    3      S       1.8221940000    -7.6517400000     0.0292850000
    4      C      -0.4152010000    -6.2618940000     0.0545160000
    5      H      -1.8514310000    -7.9547380000     0.0632900000
    6      C       1.0126500000    -6.0799850000     0.0546870000
    7      C       1.5841940000    -4.7983820000     0.0280300000
    8      C      -1.3094330000    -5.1535420000     0.0313990000
    9      C      -0.7375390000    -3.8696260000     0.0004270000
   10      C       0.6918280000    -3.6889270000     0.0034620000
   11      O      -2.6312110000    -5.4810750000     0.0611280000
   12      O       2.9119070000    -4.4798710000    -0.0030210000
   13      C       3.8547160000    -5.3560260000     0.6027100000
   14      H       4.8035170000    -4.7904960000     0.6706710000
   15      H       4.0342850000    -6.2685130000    -0.0069130000
   16      H       3.5351850000    -5.6581870000     1.6235070000
   17      C      -3.6108410000    -4.5469990000    -0.3757080000
   18      H      -4.5625440000    -5.1075640000    -0.4411150000
   19      H      -3.3640290000    -4.1314730000    -1.3762770000
   20      H      -3.7435660000    -3.7120850000     0.3461070000
   21      C       1.0744910000    -2.3143260000    -0.0004580000
   22      S      -1.5488480000    -2.2954870000     0.0131440000
   23      C       0.0000000000    -1.4351800000     0.0000000000
   24      H       2.1236880000    -1.9932110000    -0.0049530000
   25      C       0.0000000000     0.0000000000     0.0000000000
   26      S       0.5798520000     0.6875660000     1.5107320000
   27      C       1.5916250000     1.8950240000     0.7276290000
   28      C       0.5837710000     0.6957580000    -1.0646650000
   29      C       1.4753080000     1.7606060000    -0.6782870000
   30      C       0.5423660000     0.6438410000    -2.4861500000
   31      C       1.3552860000     1.6128430000    -3.1069160000
   32      S       2.1546090000     2.5706270000    -1.9657350000
   33      C       1.5224400000     1.8047780000    -4.5599720000
   34      O       0.9246840000     1.0877570000    -5.3502770000
   35      O       2.3497390000     2.7856790000    -5.0043750000
   36      F      -0.1707800000    -0.2121440000    -3.2462900000
   37      C       2.5880820000     3.0539360000    -6.3349760000
   38      H       3.2987990000     3.8999990000    -6.3702680000
   39      H       1.6552910000     3.3283710000    -6.8756090000
   40      H       3.0260210000     2.1773850000    -6.8618780000
   41      H       2.1830530000     2.5997590000     1.3215100000
   42      H       0.2576880000    -9.1464710000    -0.8515090000
   43      H       0.2716640000    -9.1505700000     0.9445420000
   44      H      -0.0084620000    -1.4441580000    -1.0799300000
 ----------------------------------------------------------------

   11   -2755.3001424056      6.69e-07  Convergence criterion met
 Total energy in the final basis set =    -2755.3001424056
        RIMP2         total energy =     -2760.4008064398 a.u.

                    Orbital Energies (a.u.)
 --------------------------------------------------------------

 Alpha MOs
 -- Occupied --
-92.0129 -92.0023 -91.9707 -91.9571 -26.3389 -20.6155 -20.5866 -20.5846
-20.5556 -11.4153 -11.3792 -11.3110 -11.3080 -11.3080 -11.3037 -11.2998
-11.2951 -11.2915 -11.2903 -11.2825 -11.2824 -11.2800 -11.2756 -11.2716
-11.2707 -11.2566 -11.2560 -11.2484 -11.2343  -9.0118  -9.0060  -8.9731
 -8.9597  -6.6925  -6.6918  -6.6915  -6.6873  -6.6866  -6.6853  -6.6542
 -6.6533  -6.6520  -6.6410  -6.6401  -6.6390  -1.6521  -1.4755  -1.4088
 -1.4075  -1.3715  -1.2437  -1.2062  -1.1741  -1.1452  -1.0986  -1.0545
 -1.0438  -1.0320  -1.0069  -0.9953  -0.9748  -0.9586  -0.9479  -0.9410
 -0.8912  -0.8765  -0.8598  -0.8098  -0.7958  -0.7835  -0.7821  -0.7703
 -0.7604  -0.7332  -0.7209  -0.7187  -0.6974  -0.6924  -0.6872  -0.6815
 -0.6772  -0.6747  -0.6541  -0.6474  -0.6312  -0.6266  -0.6189  -0.6143
 -0.6105  -0.6100  -0.6005  -0.5944  -0.5803  -0.5650  -0.5560  -0.5550
 -0.5491  -0.5320  -0.5262  -0.5221  -0.5116  -0.5064  -0.5040  -0.4998
 -0.4900  -0.4849  -0.4724  -0.4668  -0.4654  -0.4638  -0.4576  -0.4442
 -0.4195  -0.4027  -0.3827  -0.3685  -0.3498  -0.2986  -0.2872  -0.2188

          Ground-State Mulliken Net Atomic Charges

     Atom                 Charge (a.u.)
  ----------------------------------------
      1 C                    -0.069754
      2 C                    -0.266066
      3 S                    -0.137559
      4 C                    -0.042651
      5 H                     0.192768
      6 C                    -0.052527
      7 C                     0.224293
      8 C                     0.223049
      9 C                    -0.078090
     10 C                    -0.044243
     11 O                    -0.335990
     12 O                    -0.343775
     13 C                    -0.082395
     14 H                     0.119390
     15 H                     0.092009
     16 H                     0.092517
     17 C                    -0.086275
     18 H                     0.122213
     19 H                     0.092294
     20 H                     0.089893
     21 C                    -0.270985
     22 S                    -0.088126
     23 C                     0.052054
     24 H                     0.207272
     25 C                    -0.089742
     26 S                     0.104098
     27 C                    -0.193253
     28 C                    -0.088295
     29 C                    -0.006392
     30 C                     0.349276
     31 C                    -0.122008
     32 S                     0.060918
     33 C                     0.457797
     34 O                    -0.442283
     35 O                    -0.296899
     36 F                    -0.210938
     37 C                    -0.054693
     38 H                     0.117388
     39 H                     0.085505
     40 H                     0.085453
     41 H                     0.217898
     42 H                     0.116577
     43 H                     0.113997
     44 H                     0.186280
  ----------------------------------------
  Sum of atomic charges =     0.000000

                    Cartesian Multipole Moments
 -----------------------------------------------------------------
    Charge (ESU x 10^10)
                 0.0000
    Dipole Moment (Debye)
         X       3.1106      Y       4.3073      Z       2.1720
       Tot       5.7399
    Quadrupole Moments (Debye-Ang)
        XX    -177.7714     XY      12.4564     YY    -183.3235
        XZ      -2.2749     YZ      -9.3500     ZZ    -201.8417

 Total job time:  336.33s(wall), 10878.57s(cpu)
        *  Thank you very much for using Q-Chem.  Have a nice day.  *
