 Q-Chem 5.4, Q-Chem, Inc., Pleasanton, CA (2021)
 Q-Chem 5.4.0 for Intel X86 EM64T Linux

User input:
--------------------------------------------------------------
$molecule
0 1
C	-0.235306	-8.519741	-0.136647
C	0.772334	-7.635967	0.221346
S	-1.702286	-7.651740	-0.650746
C	0.408807	-6.261894	0.090779
H	1.761423	-7.954738	0.573754
C	-0.932876	-6.079985	-0.397735
C	-1.479069	-4.798382	-0.568166
C	1.241204	-5.153542	0.418347
C	0.693206	-3.869626	0.251852
C	-0.648921	-3.688927	-0.239872
O	2.493437	-5.481075	0.842486
O	-2.737331	-4.479871	-0.993092
C	-3.416110	-5.356026	-1.884752
H	-4.284447	-4.790496	-2.273124
H	-3.793352	-6.268513	-1.373310
H	-2.766716	-5.658187	-2.734702
C	3.264581	-4.546999	1.588030
H	4.136519	-5.107564	1.974995
H	2.690439	-4.131473	2.443843
H	3.636177	-3.712085	0.955140
C	-1.009848	-2.314326	-0.367068
S	1.459936	-2.295487	0.517386
C	0.000000	-1.435180	0.000000
H	-1.997308	-1.993211	-0.721689
C	0.000000	0.000000	0.000000
S	0.002233	0.899428	1.510732
C	0.001157	2.474749	0.727629
C	-0.000030	0.908223	-1.064665
C	-0.001545	2.297013	-0.678287
C	0.001624	0.841837	-2.486150
C	0.001494	2.106670	-3.106916
S	-0.001841	3.354171	-1.965735
C	0.006168	2.361146	-4.559972
O	0.009152	1.427646	-5.350277
O	0.009405	3.644337	-5.004375
F	0.005539	-0.272288	-3.246290
C	0.019554	4.003038	-6.334976
H	0.020155	5.108000	-6.370268
H	-0.871409	3.613681	-6.875609
H	0.918470	3.613062	-6.861878
H	0.001222	3.394771	1.321510
H	-0.533380	-9.146471	0.712022
H	0.067771	-9.150570	-0.980494
H	-0.361406	-1.444158	1.017696
$end

$rem
JOBTYPE		SP
EXCHANGE	HF
CORRELATION	pRIMP2
BASIS		cc-pvtz
METHOD		rimp2
AUX_BASIS	rimp2-cc-pvtz
SOLVENT_METHOD	PCM
PURECART	11111
SYMMETRY	false
MEM_TOTAL	110000
SCF_CONVERGENCE = 6
THRESH=10
GUI = 2
$end

$solvent
dielectric 4.90
$end
--------------------------------------------------------------

             Standard Nuclear Orientation (Angstroms)
    I     Atom           X                Y                Z
 ----------------------------------------------------------------
    1      C      -0.2353060000    -8.5197410000    -0.1366470000
    2      C       0.7723340000    -7.6359670000     0.2213460000
    3      S      -1.7022860000    -7.6517400000    -0.6507460000
    4      C       0.4088070000    -6.2618940000     0.0907790000
    5      H       1.7614230000    -7.9547380000     0.5737540000
    6      C      -0.9328760000    -6.0799850000    -0.3977350000
    7      C      -1.4790690000    -4.7983820000    -0.5681660000
    8      C       1.2412040000    -5.1535420000     0.4183470000
    9      C       0.6932060000    -3.8696260000     0.2518520000
   10      C      -0.6489210000    -3.6889270000    -0.2398720000
   11      O       2.4934370000    -5.4810750000     0.8424860000
   12      O      -2.7373310000    -4.4798710000    -0.9930920000
   13      C      -3.4161100000    -5.3560260000    -1.8847520000
   14      H      -4.2844470000    -4.7904960000    -2.2731240000
   15      H      -3.7933520000    -6.2685130000    -1.3733100000
   16      H      -2.7667160000    -5.6581870000    -2.7347020000
   17      C       3.2645810000    -4.5469990000     1.5880300000
   18      H       4.1365190000    -5.1075640000     1.9749950000
   19      H       2.6904390000    -4.1314730000     2.4438430000
   20      H       3.6361770000    -3.7120850000     0.9551400000
   21      C      -1.0098480000    -2.3143260000    -0.3670680000
   22      S       1.4599360000    -2.2954870000     0.5173860000
   23      C       0.0000000000    -1.4351800000     0.0000000000
   24      H      -1.9973080000    -1.9932110000    -0.7216890000
   25      C       0.0000000000     0.0000000000     0.0000000000
   26      S       0.0022330000     0.8994280000     1.5107320000
   27      C       0.0011570000     2.4747490000     0.7276290000
   28      C      -0.0000300000     0.9082230000    -1.0646650000
   29      C      -0.0015450000     2.2970130000    -0.6782870000
   30      C       0.0016240000     0.8418370000    -2.4861500000
   31      C       0.0014940000     2.1066700000    -3.1069160000
   32      S      -0.0018410000     3.3541710000    -1.9657350000
   33      C       0.0061680000     2.3611460000    -4.5599720000
   34      O       0.0091520000     1.4276460000    -5.3502770000
   35      O       0.0094050000     3.6443370000    -5.0043750000
   36      F       0.0055390000    -0.2722880000    -3.2462900000
   37      C       0.0195540000     4.0030380000    -6.3349760000
   38      H       0.0201550000     5.1080000000    -6.3702680000
   39      H      -0.8714090000     3.6136810000    -6.8756090000
   40      H       0.9184700000     3.6130620000    -6.8618780000
   41      H       0.0012220000     3.3947710000     1.3215100000
   42      H      -0.5333800000    -9.1464710000     0.7120220000
   43      H       0.0677710000    -9.1505700000    -0.9804940000
   44      H      -0.3614060000    -1.4441580000     1.0176960000
 ----------------------------------------------------------------

   11   -2755.3268890960      7.67e-07  Convergence criterion met
 Total energy in the final basis set =    -2755.3268890960
        RIMP2         total energy =     -2760.4166249779 a.u.

                    Orbital Energies (a.u.)
 --------------------------------------------------------------

 Alpha MOs
 -- Occupied --
-92.0189 -91.9953 -91.9779 -91.9580 -26.3357 -20.6128 -20.5869 -20.5869
-20.5510 -11.4111 -11.3780 -11.3131 -11.3089 -11.3072 -11.2988 -11.2976
-11.2957 -11.2888 -11.2845 -11.2831 -11.2823 -11.2813 -11.2811 -11.2728
-11.2727 -11.2581 -11.2579 -11.2495 -11.2367  -9.0172  -8.9994  -8.9802
 -8.9606  -6.6979  -6.6974  -6.6969  -6.6806  -6.6800  -6.6786  -6.6613
 -6.6603  -6.6590  -6.6418  -6.6409  -6.6399  -1.6485  -1.4725  -1.4103
 -1.4086  -1.3679  -1.2379  -1.2092  -1.1753  -1.1441  -1.0993  -1.0501
 -1.0459  -1.0311  -1.0086  -0.9977  -0.9727  -0.9596  -0.9485  -0.9405
 -0.8933  -0.8715  -0.8647  -0.8079  -0.7946  -0.7851  -0.7782  -0.7735
 -0.7653  -0.7331  -0.7215  -0.7167  -0.6973  -0.6924  -0.6816  -0.6791
 -0.6725  -0.6645  -0.6562  -0.6484  -0.6327  -0.6307  -0.6199  -0.6146
 -0.6109  -0.6071  -0.5955  -0.5926  -0.5825  -0.5661  -0.5587  -0.5530
 -0.5497  -0.5354  -0.5287  -0.5227  -0.5132  -0.5074  -0.5036  -0.5011
 -0.4879  -0.4858  -0.4785  -0.4703  -0.4623  -0.4618  -0.4608  -0.4460
 -0.4240  -0.4028  -0.3853  -0.3704  -0.3512  -0.2926  -0.2883  -0.2206

          Ground-State Mulliken Net Atomic Charges

     Atom                 Charge (a.u.)
  ----------------------------------------
      1 C                    -0.070237
      2 C                    -0.259725
      3 S                    -0.135158
      4 C                    -0.044406
      5 H                     0.193319
      6 C                    -0.051822
      7 C                     0.226905
      8 C                     0.227113
      9 C                    -0.081824
     10 C                    -0.063486
     11 O                    -0.334904
     12 O                    -0.343647
     13 C                    -0.082366
     14 H                     0.120055
     15 H                     0.091463
     16 H                     0.093464
     17 C                    -0.086639
     18 H                     0.123131
     19 H                     0.091715
     20 H                     0.090472
     21 C                    -0.233989
     22 S                    -0.071735
     23 C                     0.069311
     24 H                     0.206036
     25 C                    -0.105364
     26 S                     0.101684
     27 C                    -0.239385
     28 C                    -0.071412
     29 C                    -0.006019
     30 C                     0.398487
     31 C                    -0.154533
     32 S                     0.037453
     33 C                     0.460548
     34 O                    -0.449192
     35 O                    -0.297620
     36 F                    -0.212932
     37 C                    -0.055093
     38 H                     0.116709
     39 H                     0.084677
     40 H                     0.084774
     41 H                     0.216699
     42 H                     0.117155
     43 H                     0.115123
     44 H                     0.185197
  ----------------------------------------
  Sum of atomic charges =     0.000000

                    Cartesian Multipole Moments
 -----------------------------------------------------------------
    Charge (ESU x 10^10)
                -0.0000
    Dipole Moment (Debye)
         X      -0.0903      Y       3.6803      Z       3.7739
       Tot       5.2721
    Quadrupole Moments (Debye-Ang)
        XX    -190.3245     XY      -3.4381     YY    -174.3123
        XZ       9.0483     YZ     -11.9752     ZZ    -198.7410

 Total job time:  331.32s(wall), 10765.48s(cpu)
        *  Thank you very much for using Q-Chem.  Have a nice day.  *
