 Q-Chem 5.4, Q-Chem, Inc., Pleasanton, CA (2021)
 Q-Chem 5.4.0 for Intel X86 EM64T Linux

User input:
--------------------------------------------------------------
$molecule
0 1
C	0.272104	-8.519741	0.000687
C	-0.779533	-7.635967	0.194476
S	1.799596	-7.651740	-0.287581
C	-0.399427	-6.261894	0.125787
H	-1.812314	-7.954738	0.383826
C	1.006762	-6.079985	-0.121989
C	1.564994	-4.798382	-0.247488
C	-1.284087	-5.153542	0.258303
C	-0.726260	-3.869626	0.128493
C	0.681918	-3.688927	-0.116725
O	-2.580622	-5.481075	0.517104
O	2.867144	-4.479871	-0.508622
C	3.900814	-5.356026	-0.075811
H	4.847002	-4.790496	-0.173640
H	3.971794	-6.268513	-0.707354
H	3.763397	-5.658187	0.984963
C	-3.621225	-4.546999	0.257016
H	-4.569828	-5.107564	0.357864
H	-3.551910	-4.131473	-0.771211
H	-3.626592	-3.712085	0.990913
C	1.058088	-2.314326	-0.187034
S	-1.523035	-2.295487	0.281899
C	-0.000000	-1.435180	-0.000000
H	2.090565	-1.993211	-0.373653
C	0.000000	0.000000	0.000000
S	0.451648	0.777811	1.510732
C	1.238377	2.142617	0.727629
C	0.454085	0.786559	-1.064665
C	1.147169	1.990043	-0.678287
C	0.422325	0.728240	-2.486150
C	1.054629	1.823683	-3.106916
S	1.675491	2.905718	-1.965735
C	1.185914	2.041729	-4.559972
O	0.721749	1.231802	-5.350277
O	1.830313	3.151386	-5.004375
F	-0.131347	-0.238577	-3.246290
C	2.018453	3.456956	-6.334976
H	2.571455	4.413580	-6.370268
H	1.052178	3.565244	-6.875609
H	2.601950	2.669768	-6.861878
H	1.698444	2.939346	1.321510
H	0.105910	-9.146471	-0.883319
H	0.431555	-9.150570	0.883019
H	-0.195861	-1.444158	-1.062054
$end

$rem
JOBTYPE		SP
EXCHANGE	HF
CORRELATION	pRIMP2
BASIS		cc-pvtz
METHOD		rimp2
AUX_BASIS	rimp2-cc-pvtz
SOLVENT_METHOD	PCM
PURECART	11111
SYMMETRY	false
MEM_TOTAL	110000
SCF_CONVERGENCE = 6
THRESH=10
GUI = 2
$end

$solvent
dielectric 4.90
$end
--------------------------------------------------------------

             Standard Nuclear Orientation (Angstroms)
    I     Atom           X                Y                Z
 ----------------------------------------------------------------
    1      C       0.2721040000    -8.5197410000     0.0006870000
    2      C      -0.7795330000    -7.6359670000     0.1944760000
    3      S       1.7995960000    -7.6517400000    -0.2875810000
    4      C      -0.3994270000    -6.2618940000     0.1257870000
    5      H      -1.8123140000    -7.9547380000     0.3838260000
    6      C       1.0067620000    -6.0799850000    -0.1219890000
    7      C       1.5649940000    -4.7983820000    -0.2474880000
    8      C      -1.2840870000    -5.1535420000     0.2583030000
    9      C      -0.7262600000    -3.8696260000     0.1284930000
   10      C       0.6819180000    -3.6889270000    -0.1167250000
   11      O      -2.5806220000    -5.4810750000     0.5171040000
   12      O       2.8671440000    -4.4798710000    -0.5086220000
   13      C       3.9008140000    -5.3560260000    -0.0758110000
   14      H       4.8470020000    -4.7904960000    -0.1736400000
   15      H       3.9717940000    -6.2685130000    -0.7073540000
   16      H       3.7633970000    -5.6581870000     0.9849630000
   17      C      -3.6212250000    -4.5469990000     0.2570160000
   18      H      -4.5698280000    -5.1075640000     0.3578640000
   19      H      -3.5519100000    -4.1314730000    -0.7712110000
   20      H      -3.6265920000    -3.7120850000     0.9909130000
   21      C       1.0580880000    -2.3143260000    -0.1870340000
   22      S      -1.5230350000    -2.2954870000     0.2818990000
   23      C       0.0000000000    -1.4351800000     0.0000000000
   24      H       2.0905650000    -1.9932110000    -0.3736530000
   25      C       0.0000000000     0.0000000000     0.0000000000
   26      S       0.4516480000     0.7778110000     1.5107320000
   27      C       1.2383770000     2.1426170000     0.7276290000
   28      C       0.4540850000     0.7865590000    -1.0646650000
   29      C       1.1471690000     1.9900430000    -0.6782870000
   30      C       0.4223250000     0.7282400000    -2.4861500000
   31      C       1.0546290000     1.8236830000    -3.1069160000
   32      S       1.6754910000     2.9057180000    -1.9657350000
   33      C       1.1859140000     2.0417290000    -4.5599720000
   34      O       0.7217490000     1.2318020000    -5.3502770000
   35      O       1.8303130000     3.1513860000    -5.0043750000
   36      F      -0.1313470000    -0.2385770000    -3.2462900000
   37      C       2.0184530000     3.4569560000    -6.3349760000
   38      H       2.5714550000     4.4135800000    -6.3702680000
   39      H       1.0521780000     3.5652440000    -6.8756090000
   40      H       2.6019500000     2.6697680000    -6.8618780000
   41      H       1.6984440000     2.9393460000     1.3215100000
   42      H       0.1059100000    -9.1464710000    -0.8833190000
   43      H       0.4315550000    -9.1505700000     0.8830190000
   44      H      -0.1958610000    -1.4441580000    -1.0620540000
 ----------------------------------------------------------------

   11   -2755.3137551863      6.62e-07  Convergence criterion met
 Total energy in the final basis set =    -2755.3137551863
        RIMP2         total energy =     -2760.4103067670 a.u.

                    Orbital Energies (a.u.)
 --------------------------------------------------------------

 Alpha MOs
 -- Occupied --
-92.0124 -91.9998 -91.9739 -91.9575 -26.3390 -20.6146 -20.5867 -20.5856
-20.5541 -11.4139 -11.3795 -11.3084 -11.3053 -11.3048 -11.3047 -11.3030
-11.2989 -11.2899 -11.2897 -11.2833 -11.2825 -11.2812 -11.2779 -11.2722
-11.2717 -11.2573 -11.2569 -11.2489 -11.2355  -9.0112  -9.0036  -8.9762
 -8.9601  -6.6919  -6.6912  -6.6909  -6.6849  -6.6842  -6.6829  -6.6573
 -6.6564  -6.6552  -6.6414  -6.6404  -6.6394  -1.6521  -1.4746  -1.4093
 -1.4082  -1.3703  -1.2415  -1.2072  -1.1744  -1.1444  -1.0992  -1.0534
 -1.0447  -1.0308  -1.0078  -0.9964  -0.9739  -0.9590  -0.9482  -0.9411
 -0.8921  -0.8754  -0.8613  -0.8091  -0.7952  -0.7841  -0.7814  -0.7713
 -0.7613  -0.7334  -0.7206  -0.7190  -0.6975  -0.6924  -0.6871  -0.6808
 -0.6764  -0.6745  -0.6547  -0.6478  -0.6323  -0.6269  -0.6193  -0.6144
 -0.6106  -0.6091  -0.5989  -0.5941  -0.5821  -0.5657  -0.5569  -0.5546
 -0.5480  -0.5321  -0.5280  -0.5224  -0.5121  -0.5069  -0.5035  -0.5008
 -0.4887  -0.4850  -0.4739  -0.4682  -0.4643  -0.4633  -0.4591  -0.4451
 -0.4200  -0.4044  -0.3839  -0.3692  -0.3502  -0.2959  -0.2882  -0.2197

          Ground-State Mulliken Net Atomic Charges

     Atom                 Charge (a.u.)
  ----------------------------------------
      1 C                    -0.070135
      2 C                    -0.263060
      3 S                    -0.136373
      4 C                    -0.044211
      5 H                     0.193030
      6 C                    -0.052669
      7 C                     0.223515
      8 C                     0.227783
      9 C                    -0.083251
     10 C                    -0.037709
     11 O                    -0.335739
     12 O                    -0.343527
     13 C                    -0.082472
     14 H                     0.119657
     15 H                     0.092150
     16 H                     0.092522
     17 C                    -0.086335
     18 H                     0.122581
     19 H                     0.092508
     20 H                     0.089933
     21 C                    -0.272722
     22 S                    -0.076953
     23 C                     0.055803
     24 H                     0.206971
     25 C                    -0.065929
     26 S                     0.100556
     27 C                    -0.210333
     28 C                    -0.114464
     29 C                    -0.001915
     30 C                     0.366260
     31 C                    -0.128548
     32 S                     0.052544
     33 C                     0.458550
     34 O                    -0.444884
     35 O                    -0.297157
     36 F                    -0.212880
     37 C                    -0.054961
     38 H                     0.117217
     39 H                     0.085231
     40 H                     0.085262
     41 H                     0.216573
     42 H                     0.117066
     43 H                     0.114476
     44 H                     0.186041
  ----------------------------------------
  Sum of atomic charges =     0.000000

                    Cartesian Multipole Moments
 -----------------------------------------------------------------
    Charge (ESU x 10^10)
                -0.0000
    Dipole Moment (Debye)
         X       2.0296      Y       4.0787      Z       2.3092
       Tot       5.1076
    Quadrupole Moments (Debye-Ang)
        XX    -179.2709     XY      11.0654     YY    -179.1573
        XZ      -3.1267     YZ     -10.8086     ZZ    -204.3149

 Total job time:  336.14s(wall), 11038.45s(cpu)
        *  Thank you very much for using Q-Chem.  Have a nice day.  *
