 Q-Chem 5.4, Q-Chem, Inc., Pleasanton, CA (2021)
 Q-Chem 5.4.0 for Intel X86 EM64T Linux

User input:
--------------------------------------------------------------
$molecule
0 1
C	0.235993	-8.519741	-0.135457
C	-0.577858	-7.635967	0.558188
S	1.414705	-7.651740	-1.148850
C	-0.283020	-6.261894	0.308648
H	-1.377597	-7.954738	1.238560
C	0.810887	-6.079985	-0.609026
C	1.231581	-4.798382	-0.996828
C	-0.982901	-5.153542	0.865740
C	-0.564713	-3.869626	0.474408
C	0.532196	-3.688927	-0.442046
O	-1.976332	-5.481075	1.738137
O	2.228709	-4.479871	-1.874052
C	3.340298	-5.356026	-2.016062
H	4.110807	-4.790496	-2.573877
H	3.085998	-6.268513	-2.598484
H	3.751679	-5.658187	-1.028695
C	-3.007565	-4.546999	2.033195
H	-3.778655	-5.107564	2.594833
H	-3.461650	-4.131473	1.108067
H	-2.645264	-3.712085	2.671451
C	0.822814	-2.314326	-0.691020
S	-1.178037	-2.295487	1.005649
C	-0.000000	-1.435180	-0.000000
H	1.623656	-1.993211	-1.368875
C	0.000000	0.000000	0.000000
S	0.579852	0.687566	1.510732
C	1.591625	1.895024	0.727629
C	0.583771	0.695758	-1.064665
C	1.475308	1.760606	-0.678287
C	0.542366	0.643841	-2.486150
C	1.355286	1.612843	-3.106916
S	2.154609	2.570627	-1.965735
C	1.522440	1.804778	-4.559972
O	0.924684	1.087757	-5.350277
O	2.349739	2.785679	-5.004375
F	-0.170780	-0.212144	-3.246290
C	2.588082	3.053936	-6.334976
H	3.298799	3.899999	-6.370268
H	1.655291	3.328371	-6.875609
H	3.026021	2.177385	-6.861878
H	2.183053	2.599759	1.321510
H	-0.349939	-9.146471	-0.817932
H	0.815247	-9.150570	0.548939
H	-0.700647	-1.444158	-0.821835
$end

$rem
JOBTYPE		SP
EXCHANGE	HF
CORRELATION	pRIMP2
BASIS		cc-pvtz
METHOD		rimp2
AUX_BASIS	rimp2-cc-pvtz
SOLVENT_METHOD	PCM
PURECART	11111
SYMMETRY	false
MEM_TOTAL	110000
SCF_CONVERGENCE = 6
THRESH=10
GUI = 2
$end

$solvent
dielectric 4.90
$end
--------------------------------------------------------------

             Standard Nuclear Orientation (Angstroms)
    I     Atom           X                Y                Z
 ----------------------------------------------------------------
    1      C       0.2359930000    -8.5197410000    -0.1354570000
    2      C      -0.5778580000    -7.6359670000     0.5581880000
    3      S       1.4147050000    -7.6517400000    -1.1488500000
    4      C      -0.2830200000    -6.2618940000     0.3086480000
    5      H      -1.3775970000    -7.9547380000     1.2385600000
    6      C       0.8108870000    -6.0799850000    -0.6090260000
    7      C       1.2315810000    -4.7983820000    -0.9968280000
    8      C      -0.9829010000    -5.1535420000     0.8657400000
    9      C      -0.5647130000    -3.8696260000     0.4744080000
   10      C       0.5321960000    -3.6889270000    -0.4420460000
   11      O      -1.9763320000    -5.4810750000     1.7381370000
   12      O       2.2287090000    -4.4798710000    -1.8740520000
   13      C       3.3402980000    -5.3560260000    -2.0160620000
   14      H       4.1108070000    -4.7904960000    -2.5738770000
   15      H       3.0859980000    -6.2685130000    -2.5984840000
   16      H       3.7516790000    -5.6581870000    -1.0286950000
   17      C      -3.0075650000    -4.5469990000     2.0331950000
   18      H      -3.7786550000    -5.1075640000     2.5948330000
   19      H      -3.4616500000    -4.1314730000     1.1080670000
   20      H      -2.6452640000    -3.7120850000     2.6714510000
   21      C       0.8228140000    -2.3143260000    -0.6910200000
   22      S      -1.1780370000    -2.2954870000     1.0056490000
   23      C       0.0000000000    -1.4351800000     0.0000000000
   24      H       1.6236560000    -1.9932110000    -1.3688750000
   25      C       0.0000000000     0.0000000000     0.0000000000
   26      S       0.5798520000     0.6875660000     1.5107320000
   27      C       1.5916250000     1.8950240000     0.7276290000
   28      C       0.5837710000     0.6957580000    -1.0646650000
   29      C       1.4753080000     1.7606060000    -0.6782870000
   30      C       0.5423660000     0.6438410000    -2.4861500000
   31      C       1.3552860000     1.6128430000    -3.1069160000
   32      S       2.1546090000     2.5706270000    -1.9657350000
   33      C       1.5224400000     1.8047780000    -4.5599720000
   34      O       0.9246840000     1.0877570000    -5.3502770000
   35      O       2.3497390000     2.7856790000    -5.0043750000
   36      F      -0.1707800000    -0.2121440000    -3.2462900000
   37      C       2.5880820000     3.0539360000    -6.3349760000
   38      H       3.2987990000     3.8999990000    -6.3702680000
   39      H       1.6552910000     3.3283710000    -6.8756090000
   40      H       3.0260210000     2.1773850000    -6.8618780000
   41      H       2.1830530000     2.5997590000     1.3215100000
   42      H      -0.3499390000    -9.1464710000    -0.8179320000
   43      H       0.8152470000    -9.1505700000     0.5489390000
   44      H      -0.7006470000    -1.4441580000    -0.8218350000
 ----------------------------------------------------------------

   11   -2755.2993473644      6.94e-07  Convergence criterion met
 Total energy in the final basis set =    -2755.2993473644
        RIMP2         total energy =     -2760.4014414164 a.u.

                    Orbital Energies (a.u.)
 --------------------------------------------------------------

 Alpha MOs
 -- Occupied --
-92.0122 -92.0011 -91.9765 -91.9571 -26.3385 -20.6147 -20.5866 -20.5861
-20.5542 -11.4141 -11.3794 -11.3085 -11.3070 -11.3059 -11.3053 -11.3003
-11.2995 -11.2900 -11.2897 -11.2839 -11.2823 -11.2822 -11.2783 -11.2728
-11.2715 -11.2573 -11.2562 -11.2486 -11.2348  -9.0112  -9.0049  -8.9787
 -8.9597  -6.6919  -6.6911  -6.6908  -6.6861  -6.6855  -6.6842  -6.6598
 -6.6590  -6.6577  -6.6410  -6.6400  -6.6390  -1.6516  -1.4747  -1.4096
 -1.4082  -1.3705  -1.2431  -1.2079  -1.1746  -1.1452  -1.0991  -1.0540
 -1.0452  -1.0313  -1.0079  -0.9971  -0.9741  -0.9595  -0.9484  -0.9414
 -0.8930  -0.8756  -0.8607  -0.8079  -0.7964  -0.7851  -0.7792  -0.7733
 -0.7608  -0.7336  -0.7212  -0.7182  -0.6976  -0.6934  -0.6860  -0.6809
 -0.6764  -0.6735  -0.6552  -0.6480  -0.6357  -0.6267  -0.6190  -0.6144
 -0.6112  -0.6094  -0.5998  -0.5942  -0.5809  -0.5674  -0.5573  -0.5558
 -0.5435  -0.5330  -0.5293  -0.5229  -0.5120  -0.5070  -0.5054  -0.5011
 -0.4890  -0.4836  -0.4725  -0.4689  -0.4639  -0.4635  -0.4590  -0.4451
 -0.4238  -0.4005  -0.3841  -0.3690  -0.3511  -0.2966  -0.2879  -0.2172

          Ground-State Mulliken Net Atomic Charges

     Atom                 Charge (a.u.)
  ----------------------------------------
      1 C                    -0.069871
      2 C                    -0.265712
      3 S                    -0.137391
      4 C                    -0.044874
      5 H                     0.192663
      6 C                    -0.053469
      7 C                     0.224225
      8 C                     0.228633
      9 C                    -0.072204
     10 C                    -0.041371
     11 O                    -0.335183
     12 O                    -0.343402
     13 C                    -0.082683
     14 H                     0.119820
     15 H                     0.092382
     16 H                     0.092412
     17 C                    -0.087178
     18 H                     0.123703
     19 H                     0.092464
     20 H                     0.089788
     21 C                    -0.297175
     22 S                    -0.090315
     23 C                     0.086233
     24 H                     0.206315
     25 C                    -0.096867
     26 S                     0.110380
     27 C                    -0.200983
     28 C                    -0.109443
     29 C                    -0.013442
     30 C                     0.377384
     31 C                    -0.133272
     32 S                     0.056333
     33 C                     0.459674
     34 O                    -0.444615
     35 O                    -0.297394
     36 F                    -0.213349
     37 C                    -0.054715
     38 H                     0.117210
     39 H                     0.085311
     40 H                     0.085191
     41 H                     0.216450
     42 H                     0.116684
     43 H                     0.114114
     44 H                     0.197539
  ----------------------------------------
  Sum of atomic charges =     0.000000

                    Cartesian Multipole Moments
 -----------------------------------------------------------------
    Charge (ESU x 10^10)
                 0.0000
    Dipole Moment (Debye)
         X       2.4634      Y       3.8359      Z       2.4398
       Tot       5.1706
    Quadrupole Moments (Debye-Ang)
        XX    -177.9809     XY      11.6995     YY    -182.7506
        XZ     -13.9482     YZ     -11.3305     ZZ    -202.3365

 Total job time:  330.06s(wall), 10795.17s(cpu)
        *  Thank you very much for using Q-Chem.  Have a nice day.  *
