 Q-Chem 5.4, Q-Chem, Inc., Pleasanton, CA (2021)
 Q-Chem 5.4.0 for Intel X86 EM64T Linux

User input:
--------------------------------------------------------------
$molecule
0 1
C	0.174379	-8.519741	0.208886
C	-0.650052	-7.635967	-0.472151
S	1.377058	-7.651740	1.193717
C	-0.353105	-6.261894	-0.225125
H	-1.458961	-7.954738	-1.141594
C	0.740583	-6.079985	0.692811
C	1.195546	-4.798382	1.039773
C	-1.023267	-5.153542	-0.817634
C	-0.565262	-3.869626	-0.473754
C	0.527745	-3.688927	0.447350
O	-2.054917	-5.481075	-1.644483
O	2.232592	-4.479871	1.869424
C	2.565470	-5.356026	2.939466
H	3.248608	-4.790496	3.601405
H	3.094885	-6.268513	2.587892
H	1.664539	-5.658187	3.516052
C	-2.524564	-4.546999	-2.608813
H	-3.211568	-5.107564	-3.270661
H	-1.692342	-4.131473	-3.216646
H	-3.090211	-3.712085	-2.141184
C	0.823402	-2.314326	0.690319
S	-1.194935	-2.295487	-0.985511
C	-0.000000	-1.435180	-0.000000
H	1.630024	-1.993211	1.361286
C	0.000000	0.000000	0.000000
S	0.451648	0.777811	1.510732
C	1.238377	2.142617	0.727629
C	0.454085	0.786559	-1.064665
C	1.147169	1.990043	-0.678287
C	0.422325	0.728240	-2.486150
C	1.054629	1.823683	-3.106916
S	1.675491	2.905718	-1.965735
C	1.185914	2.041729	-4.559972
O	0.721749	1.231802	-5.350277
O	1.830313	3.151386	-5.004375
F	-0.131347	-0.238577	-3.246290
C	2.018453	3.456956	-6.334976
H	2.571455	4.413580	-6.370268
H	1.052178	3.565244	-6.875609
H	2.601950	2.669768	-6.861878
H	1.698444	2.939346	1.321510
H	0.744739	-9.146471	-0.486655
H	-0.399033	-9.150570	0.898184
H	0.687683	-1.444158	-0.832713
$end

$rem
JOBTYPE		SP
EXCHANGE	HF
CORRELATION	pRIMP2
BASIS		cc-pvtz
METHOD		rimp2
AUX_BASIS	rimp2-cc-pvtz
SOLVENT_METHOD	PCM
PURECART	11111
SYMMETRY	false
MEM_TOTAL	110000
SCF_CONVERGENCE = 6
THRESH=10
GUI = 2
$end

$solvent
dielectric 4.90
$end
--------------------------------------------------------------

             Standard Nuclear Orientation (Angstroms)
    I     Atom           X                Y                Z
 ----------------------------------------------------------------
    1      C       0.1743790000    -8.5197410000     0.2088860000
    2      C      -0.6500520000    -7.6359670000    -0.4721510000
    3      S       1.3770580000    -7.6517400000     1.1937170000
    4      C      -0.3531050000    -6.2618940000    -0.2251250000
    5      H      -1.4589610000    -7.9547380000    -1.1415940000
    6      C       0.7405830000    -6.0799850000     0.6928110000
    7      C       1.1955460000    -4.7983820000     1.0397730000
    8      C      -1.0232670000    -5.1535420000    -0.8176340000
    9      C      -0.5652620000    -3.8696260000    -0.4737540000
   10      C       0.5277450000    -3.6889270000     0.4473500000
   11      O      -2.0549170000    -5.4810750000    -1.6444830000
   12      O       2.2325920000    -4.4798710000     1.8694240000
   13      C       2.5654700000    -5.3560260000     2.9394660000
   14      H       3.2486080000    -4.7904960000     3.6014050000
   15      H       3.0948850000    -6.2685130000     2.5878920000
   16      H       1.6645390000    -5.6581870000     3.5160520000
   17      C      -2.5245640000    -4.5469990000    -2.6088130000
   18      H      -3.2115680000    -5.1075640000    -3.2706610000
   19      H      -1.6923420000    -4.1314730000    -3.2166460000
   20      H      -3.0902110000    -3.7120850000    -2.1411840000
   21      C       0.8234020000    -2.3143260000     0.6903190000
   22      S      -1.1949350000    -2.2954870000    -0.9855110000
   23      C       0.0000000000    -1.4351800000     0.0000000000
   24      H       1.6300240000    -1.9932110000     1.3612860000
   25      C       0.0000000000     0.0000000000     0.0000000000
   26      S       0.4516480000     0.7778110000     1.5107320000
   27      C       1.2383770000     2.1426170000     0.7276290000
   28      C       0.4540850000     0.7865590000    -1.0646650000
   29      C       1.1471690000     1.9900430000    -0.6782870000
   30      C       0.4223250000     0.7282400000    -2.4861500000
   31      C       1.0546290000     1.8236830000    -3.1069160000
   32      S       1.6754910000     2.9057180000    -1.9657350000
   33      C       1.1859140000     2.0417290000    -4.5599720000
   34      O       0.7217490000     1.2318020000    -5.3502770000
   35      O       1.8303130000     3.1513860000    -5.0043750000
   36      F      -0.1313470000    -0.2385770000    -3.2462900000
   37      C       2.0184530000     3.4569560000    -6.3349760000
   38      H       2.5714550000     4.4135800000    -6.3702680000
   39      H       1.0521780000     3.5652440000    -6.8756090000
   40      H       2.6019500000     2.6697680000    -6.8618780000
   41      H       1.6984440000     2.9393460000     1.3215100000
   42      H       0.7447390000    -9.1464710000    -0.4866550000
   43      H      -0.3990330000    -9.1505700000     0.8981840000
   44      H       0.6876830000    -1.4441580000    -0.8327130000
 ----------------------------------------------------------------

   11   -2755.3082519285      7.46e-07  Convergence criterion met
 Total energy in the final basis set =    -2755.3082519285
        RIMP2         total energy =     -2760.4066917377 a.u.

                    Orbital Energies (a.u.)
 --------------------------------------------------------------

 Alpha MOs
 -- Occupied --
-92.0169 -91.9978 -91.9737 -91.9581 -26.3360 -20.6132 -20.5873 -20.5856
-20.5516 -11.4118 -11.3785 -11.3116 -11.3088 -11.3056 -11.3002 -11.2989
-11.2963 -11.2892 -11.2830 -11.2829 -11.2827 -11.2820 -11.2809 -11.2729
-11.2726 -11.2579 -11.2576 -11.2494 -11.2362  -9.0152  -9.0017  -8.9762
 -8.9607  -6.6959  -6.6953  -6.6950  -6.6830  -6.6823  -6.6810  -6.6573
 -6.6564  -6.6551  -6.6419  -6.6410  -6.6400  -1.6495  -1.4730  -1.4097
 -1.4084  -1.3685  -1.2414  -1.2081  -1.1753  -1.1444  -1.0992  -1.0525
 -1.0452  -1.0304  -1.0075  -0.9973  -0.9732  -0.9591  -0.9482  -0.9408
 -0.8925  -0.8747  -0.8608  -0.8115  -0.7928  -0.7852  -0.7793  -0.7670
 -0.7615  -0.7329  -0.7191  -0.7181  -0.6977  -0.6925  -0.6875  -0.6796
 -0.6760  -0.6733  -0.6548  -0.6480  -0.6313  -0.6293  -0.6197  -0.6147
 -0.6103  -0.6076  -0.5972  -0.5944  -0.5789  -0.5648  -0.5579  -0.5568
 -0.5523  -0.5308  -0.5284  -0.5207  -0.5126  -0.5074  -0.5042  -0.4999
 -0.4882  -0.4856  -0.4771  -0.4667  -0.4626  -0.4621  -0.4594  -0.4455
 -0.4285  -0.3984  -0.3837  -0.3694  -0.3507  -0.2938  -0.2869  -0.2176

          Ground-State Mulliken Net Atomic Charges

     Atom                 Charge (a.u.)
  ----------------------------------------
      1 C                    -0.070011
      2 C                    -0.261452
      3 S                    -0.135954
      4 C                    -0.044580
      5 H                     0.193460
      6 C                    -0.051457
      7 C                     0.222083
      8 C                     0.227634
      9 C                    -0.076952
     10 C                    -0.045511
     11 O                    -0.335857
     12 O                    -0.344010
     13 C                    -0.082432
     14 H                     0.119675
     15 H                     0.092054
     16 H                     0.092763
     17 C                    -0.086976
     18 H                     0.122602
     19 H                     0.093437
     20 H                     0.089702
     21 C                    -0.277698
     22 S                    -0.071742
     23 C                     0.049608
     24 H                     0.208952
     25 C                    -0.055393
     26 S                     0.101355
     27 C                    -0.231117
     28 C                    -0.085921
     29 C                    -0.003463
     30 C                     0.350502
     31 C                    -0.133611
     32 S                     0.049138
     33 C                     0.457906
     34 O                    -0.448664
     35 O                    -0.297909
     36 F                    -0.209152
     37 C                    -0.054942
     38 H                     0.116885
     39 H                     0.084773
     40 H                     0.084756
     41 H                     0.215354
     42 H                     0.117312
     43 H                     0.114814
     44 H                     0.200041
  ----------------------------------------
  Sum of atomic charges =     0.000000

                    Cartesian Multipole Moments
 -----------------------------------------------------------------
    Charge (ESU x 10^10)
                -0.0000
    Dipole Moment (Debye)
         X       2.1992      Y       3.3690      Z       2.5822
       Tot       4.7806
    Quadrupole Moments (Debye-Ang)
        XX    -192.6275     XY       9.8357     YY    -179.0562
        XZ       2.4770     YZ      -7.1903     ZZ    -192.0889

 Total job time:  327.26s(wall), 10457.17s(cpu)
        *  Thank you very much for using Q-Chem.  Have a nice day.  *
