 Q-Chem 5.4, Q-Chem, Inc., Pleasanton, CA (2021)
 Q-Chem 5.4.0 for Intel X86 EM64T Linux

User input:
--------------------------------------------------------------
$molecule
0 1
C	-0.136647	-8.519741	0.235306
C	0.221346	-7.635967	-0.772334
S	-0.650746	-7.651740	1.702286
C	0.090779	-6.261894	-0.408807
H	0.573754	-7.954738	-1.761423
C	-0.397735	-6.079985	0.932876
C	-0.568166	-4.798382	1.479069
C	0.418347	-5.153542	-1.241204
C	0.251852	-3.869626	-0.693206
C	-0.239872	-3.688927	0.648921
O	0.842486	-5.481075	-2.493437
O	-0.993092	-4.479871	2.737331
C	-1.884752	-5.356026	3.416110
H	-2.273124	-4.790496	4.284447
H	-1.373310	-6.268513	3.793352
H	-2.734702	-5.658187	2.766716
C	1.588030	-4.546999	-3.264581
H	1.974995	-5.107564	-4.136519
H	2.443843	-4.131473	-2.690439
H	0.955140	-3.712085	-3.636177
C	-0.367068	-2.314326	1.009848
S	0.517386	-2.295487	-1.459936
C	0.000000	-1.435180	0.000000
H	-0.721689	-1.993211	1.997308
C	0.000000	0.000000	0.000000
S	0.080615	0.895811	1.510732
C	0.216842	2.465231	0.727629
C	0.079127	0.904769	-1.064665
C	0.198659	2.288406	-0.678287
C	0.074988	0.838492	-2.486150
C	0.185097	2.098524	-3.106916
S	0.290501	3.341568	-1.965735
C	0.211932	2.351623	-4.559972
O	0.133545	1.421416	-5.350277
O	0.326994	3.629649	-5.004375
F	-0.018214	-0.271734	-3.246290
C	0.368367	3.986101	-6.334976
H	0.465270	5.086806	-6.370268
H	-0.553140	3.675878	-6.875609
H	1.229874	3.519263	-6.861878
H	0.297091	3.381746	1.321510
H	0.712022	-9.146471	0.533380
H	-0.980494	-9.150570	-0.067771
H	1.017696	-1.444158	0.361406
$end

$rem
JOBTYPE		SP
EXCHANGE	HF
CORRELATION	pRIMP2
BASIS		cc-pvtz
METHOD		rimp2
AUX_BASIS	rimp2-cc-pvtz
SOLVENT_METHOD	PCM
PURECART	11111
SYMMETRY	false
MEM_TOTAL	110000
SCF_CONVERGENCE = 6
THRESH=10
GUI = 2
$end

$solvent
dielectric 4.90
$end
--------------------------------------------------------------

             Standard Nuclear Orientation (Angstroms)
    I     Atom           X                Y                Z
 ----------------------------------------------------------------
    1      C      -0.1366470000    -8.5197410000     0.2353060000
    2      C       0.2213460000    -7.6359670000    -0.7723340000
    3      S      -0.6507460000    -7.6517400000     1.7022860000
    4      C       0.0907790000    -6.2618940000    -0.4088070000
    5      H       0.5737540000    -7.9547380000    -1.7614230000
    6      C      -0.3977350000    -6.0799850000     0.9328760000
    7      C      -0.5681660000    -4.7983820000     1.4790690000
    8      C       0.4183470000    -5.1535420000    -1.2412040000
    9      C       0.2518520000    -3.8696260000    -0.6932060000
   10      C      -0.2398720000    -3.6889270000     0.6489210000
   11      O       0.8424860000    -5.4810750000    -2.4934370000
   12      O      -0.9930920000    -4.4798710000     2.7373310000
   13      C      -1.8847520000    -5.3560260000     3.4161100000
   14      H      -2.2731240000    -4.7904960000     4.2844470000
   15      H      -1.3733100000    -6.2685130000     3.7933520000
   16      H      -2.7347020000    -5.6581870000     2.7667160000
   17      C       1.5880300000    -4.5469990000    -3.2645810000
   18      H       1.9749950000    -5.1075640000    -4.1365190000
   19      H       2.4438430000    -4.1314730000    -2.6904390000
   20      H       0.9551400000    -3.7120850000    -3.6361770000
   21      C      -0.3670680000    -2.3143260000     1.0098480000
   22      S       0.5173860000    -2.2954870000    -1.4599360000
   23      C       0.0000000000    -1.4351800000     0.0000000000
   24      H      -0.7216890000    -1.9932110000     1.9973080000
   25      C       0.0000000000     0.0000000000     0.0000000000
   26      S       0.0806150000     0.8958110000     1.5107320000
   27      C       0.2168420000     2.4652310000     0.7276290000
   28      C       0.0791270000     0.9047690000    -1.0646650000
   29      C       0.1986590000     2.2884060000    -0.6782870000
   30      C       0.0749880000     0.8384920000    -2.4861500000
   31      C       0.1850970000     2.0985240000    -3.1069160000
   32      S       0.2905010000     3.3415680000    -1.9657350000
   33      C       0.2119320000     2.3516230000    -4.5599720000
   34      O       0.1335450000     1.4214160000    -5.3502770000
   35      O       0.3269940000     3.6296490000    -5.0043750000
   36      F      -0.0182140000    -0.2717340000    -3.2462900000
   37      C       0.3683670000     3.9861010000    -6.3349760000
   38      H       0.4652700000     5.0868060000    -6.3702680000
   39      H      -0.5531400000     3.6758780000    -6.8756090000
   40      H       1.2298740000     3.5192630000    -6.8618780000
   41      H       0.2970910000     3.3817460000     1.3215100000
   42      H       0.7120220000    -9.1464710000     0.5333800000
   43      H      -0.9804940000    -9.1505700000    -0.0677710000
   44      H       1.0176960000    -1.4441580000     0.3614060000
 ----------------------------------------------------------------

   11   -2755.3228291879      7.34e-07  Convergence criterion met
 Total energy in the final basis set =    -2755.3228291879
        RIMP2         total energy =     -2760.4133903439 a.u.

                    Orbital Energies (a.u.)
 --------------------------------------------------------------

 Alpha MOs
 -- Occupied --
-92.0129 -91.9911 -91.9767 -91.9608 -26.3346 -20.6106 -20.5883 -20.5882
-20.5470 -11.4078 -11.3790 -11.3264 -11.3105 -11.3100 -11.2960 -11.2914
-11.2878 -11.2869 -11.2843 -11.2838 -11.2833 -11.2830 -11.2768 -11.2765
-11.2720 -11.2632 -11.2601 -11.2523 -11.2428  -9.0117  -8.9953  -8.9792
 -8.9634  -6.6926  -6.6919  -6.6914  -6.6766  -6.6759  -6.6745  -6.6602
 -6.6594  -6.6580  -6.6446  -6.6437  -6.6427  -1.6497  -1.4701  -1.4117
 -1.4101  -1.3650  -1.2377  -1.2103  -1.1781  -1.1431  -1.1008  -1.0503
 -1.0471  -1.0296  -1.0086  -1.0003  -0.9710  -0.9603  -0.9497  -0.9403
 -0.8952  -0.8714  -0.8642  -0.8124  -0.7947  -0.7862  -0.7764  -0.7666
 -0.7647  -0.7336  -0.7211  -0.7167  -0.6978  -0.6944  -0.6841  -0.6773
 -0.6713  -0.6705  -0.6569  -0.6495  -0.6390  -0.6297  -0.6225  -0.6159
 -0.6108  -0.6044  -0.5965  -0.5913  -0.5779  -0.5682  -0.5648  -0.5592
 -0.5493  -0.5336  -0.5285  -0.5212  -0.5136  -0.5089  -0.5044  -0.5001
 -0.4846  -0.4819  -0.4797  -0.4676  -0.4618  -0.4602  -0.4586  -0.4485
 -0.4304  -0.4004  -0.3852  -0.3728  -0.3511  -0.2932  -0.2836  -0.2193

          Ground-State Mulliken Net Atomic Charges

     Atom                 Charge (a.u.)
  ----------------------------------------
      1 C                    -0.070978
      2 C                    -0.242446
      3 S                    -0.129824
      4 C                    -0.053269
      5 H                     0.195884
      6 C                    -0.047088
      7 C                     0.219765
      8 C                     0.235682
      9 C                    -0.078329
     10 C                    -0.005840
     11 O                    -0.334257
     12 O                    -0.343848
     13 C                    -0.082799
     14 H                     0.120200
     15 H                     0.092045
     16 H                     0.093249
     17 C                    -0.089956
     18 H                     0.124598
     19 H                     0.092393
     20 H                     0.093524
     21 C                    -0.358916
     22 S                    -0.088695
     23 C                     0.182314
     24 H                     0.195822
     25 C                    -0.055211
     26 S                     0.079327
     27 C                    -0.267527
     28 C                    -0.125683
     29 C                    -0.014192
     30 C                     0.398390
     31 C                    -0.151233
     32 S                     0.025836
     33 C                     0.461985
     34 O                    -0.455954
     35 O                    -0.298649
     36 F                    -0.208303
     37 C                    -0.055289
     38 H                     0.116316
     39 H                     0.084206
     40 H                     0.083846
     41 H                     0.213756
     42 H                     0.119770
     43 H                     0.117604
     44 H                     0.211774
  ----------------------------------------
  Sum of atomic charges =     0.000000

                    Cartesian Multipole Moments
 -----------------------------------------------------------------
    Charge (ESU x 10^10)
                -0.0000
    Dipole Moment (Debye)
         X       0.9570      Y       1.2830      Z       3.2046
       Tot       3.5821
    Quadrupole Moments (Debye-Ang)
        XX    -194.1959     XY      -0.1744     YY    -166.9658
        XZ     -10.0788     YZ      -5.4807     ZZ    -196.1983

 Total job time:  345.43s(wall), 10600.22s(cpu)
        *  Thank you very much for using Q-Chem.  Have a nice day.  *
