 Q-Chem 5.4, Q-Chem, Inc., Pleasanton, CA (2021)
 Q-Chem 5.4.0 for Intel X86 EM64T Linux

User input:
--------------------------------------------------------------
$molecule
0 1
C	-0.268090	-8.519741	0.046574
C	0.733920	-7.635967	-0.326886
S	-1.722318	-7.651740	0.595708
C	0.371516	-6.261894	-0.193236
H	1.718130	-7.954738	-0.692700
C	-0.970283	-6.079985	0.294958
C	-1.498243	-4.798382	0.515487
C	1.219725	-5.153542	-0.477358
C	0.692914	-3.869626	-0.252655
C	-0.651289	-3.688927	0.233366
O	2.451623	-5.481075	-0.957369
O	-2.735264	-4.479871	0.998769
C	-3.828387	-5.356026	0.752029
H	-4.743213	-4.790496	1.012675
H	-3.788623	-6.268513	1.386303
H	-3.877260	-5.658187	-0.316492
C	3.521580	-4.546999	-0.881930
H	4.438260	-5.107564	-1.145969
H	3.631868	-4.131473	0.142712
H	3.399425	-3.712085	-1.605610
C	-1.009535	-2.314326	0.367928
S	1.450945	-2.295487	-0.542088
C	0.000000	-1.435180	0.000000
H	-1.993920	-1.993211	0.730999
C	0.000000	0.000000	0.000000
S	0.234946	0.868203	1.510732
C	0.641630	2.390125	0.727629
C	0.235036	0.877284	-1.064665
C	0.593019	2.219143	-0.678287
C	0.219452	0.812732	-2.486150
C	0.546689	2.034501	-3.106916
S	0.866345	3.240357	-1.965735
C	0.617067	2.279095	-4.559972
O	0.378342	1.376631	-5.350277
O	0.952308	3.517725	-5.004375
F	-0.065123	-0.264443	-3.246290
C	1.054950	3.861577	-6.334976
H	1.341516	4.928732	-6.370268
H	0.093573	3.716085	-6.875609
H	1.822303	3.252232	-6.861878
H	0.879812	3.278780	1.321510
H	0.049086	-9.146471	0.888291
H	-0.578334	-9.150570	-0.794665
H	0.377309	-1.444158	1.011908
$end

$rem
JOBTYPE		SP
EXCHANGE	HF
CORRELATION	pRIMP2
BASIS		cc-pvtz
METHOD		rimp2
AUX_BASIS	rimp2-cc-pvtz
SOLVENT_METHOD	PCM
PURECART	11111
SYMMETRY	false
MEM_TOTAL	110000
SCF_CONVERGENCE = 6
THRESH=10
GUI = 2
$end

$solvent
dielectric 4.90
$end
--------------------------------------------------------------

             Standard Nuclear Orientation (Angstroms)
    I     Atom           X                Y                Z
 ----------------------------------------------------------------
    1      C      -0.2680900000    -8.5197410000     0.0465740000
    2      C       0.7339200000    -7.6359670000    -0.3268860000
    3      S      -1.7223180000    -7.6517400000     0.5957080000
    4      C       0.3715160000    -6.2618940000    -0.1932360000
    5      H       1.7181300000    -7.9547380000    -0.6927000000
    6      C      -0.9702830000    -6.0799850000     0.2949580000
    7      C      -1.4982430000    -4.7983820000     0.5154870000
    8      C       1.2197250000    -5.1535420000    -0.4773580000
    9      C       0.6929140000    -3.8696260000    -0.2526550000
   10      C      -0.6512890000    -3.6889270000     0.2333660000
   11      O       2.4516230000    -5.4810750000    -0.9573690000
   12      O      -2.7352640000    -4.4798710000     0.9987690000
   13      C      -3.8283870000    -5.3560260000     0.7520290000
   14      H      -4.7432130000    -4.7904960000     1.0126750000
   15      H      -3.7886230000    -6.2685130000     1.3863030000
   16      H      -3.8772600000    -5.6581870000    -0.3164920000
   17      C       3.5215800000    -4.5469990000    -0.8819300000
   18      H       4.4382600000    -5.1075640000    -1.1459690000
   19      H       3.6318680000    -4.1314730000     0.1427120000
   20      H       3.3994250000    -3.7120850000    -1.6056100000
   21      C      -1.0095350000    -2.3143260000     0.3679280000
   22      S       1.4509450000    -2.2954870000    -0.5420880000
   23      C       0.0000000000    -1.4351800000     0.0000000000
   24      H      -1.9939200000    -1.9932110000     0.7309990000
   25      C       0.0000000000     0.0000000000     0.0000000000
   26      S       0.2349460000     0.8682030000     1.5107320000
   27      C       0.6416300000     2.3901250000     0.7276290000
   28      C       0.2350360000     0.8772840000    -1.0646650000
   29      C       0.5930190000     2.2191430000    -0.6782870000
   30      C       0.2194520000     0.8127320000    -2.4861500000
   31      C       0.5466890000     2.0345010000    -3.1069160000
   32      S       0.8663450000     3.2403570000    -1.9657350000
   33      C       0.6170670000     2.2790950000    -4.5599720000
   34      O       0.3783420000     1.3766310000    -5.3502770000
   35      O       0.9523080000     3.5177250000    -5.0043750000
   36      F      -0.0651230000    -0.2644430000    -3.2462900000
   37      C       1.0549500000     3.8615770000    -6.3349760000
   38      H       1.3415160000     4.9287320000    -6.3702680000
   39      H       0.0935730000     3.7160850000    -6.8756090000
   40      H       1.8223030000     3.2522320000    -6.8618780000
   41      H       0.8798120000     3.2787800000     1.3215100000
   42      H       0.0490860000    -9.1464710000     0.8882910000
   43      H      -0.5783340000    -9.1505700000    -0.7946650000
   44      H       0.3773090000    -1.4441580000     1.0119080000
 ----------------------------------------------------------------

   11   -2755.3221648662      7.82e-07  Convergence criterion met
 Total energy in the final basis set =    -2755.3221648662
        RIMP2         total energy =     -2760.4131526647 a.u.

                    Orbital Energies (a.u.)
 --------------------------------------------------------------

 Alpha MOs
 -- Occupied --
-92.0180 -91.9956 -91.9782 -91.9577 -26.3350 -20.6128 -20.5871 -20.5865
-20.5511 -11.4113 -11.3779 -11.3121 -11.3088 -11.3069 -11.2994 -11.2979
-11.2966 -11.2888 -11.2842 -11.2829 -11.2826 -11.2820 -11.2809 -11.2725
-11.2723 -11.2578 -11.2570 -11.2492 -11.2360  -9.0165  -8.9997  -8.9804
 -8.9603  -6.6973  -6.6967  -6.6962  -6.6810  -6.6803  -6.6790  -6.6615
 -6.6606  -6.6593  -6.6416  -6.6407  -6.6396  -1.6479  -1.4725  -1.4100
 -1.4087  -1.3680  -1.2387  -1.2090  -1.1751  -1.1443  -1.0990  -1.0506
 -1.0454  -1.0316  -1.0082  -0.9974  -0.9727  -0.9596  -0.9483  -0.9405
 -0.8931  -0.8715  -0.8643  -0.8095  -0.7928  -0.7850  -0.7764  -0.7741
 -0.7653  -0.7332  -0.7212  -0.7161  -0.6969  -0.6926  -0.6817  -0.6791
 -0.6725  -0.6648  -0.6561  -0.6484  -0.6348  -0.6287  -0.6196  -0.6146
 -0.6110  -0.6072  -0.5960  -0.5927  -0.5821  -0.5640  -0.5615  -0.5563
 -0.5488  -0.5347  -0.5280  -0.5216  -0.5126  -0.5073  -0.5035  -0.5015
 -0.4873  -0.4855  -0.4770  -0.4699  -0.4621  -0.4619  -0.4610  -0.4462
 -0.4239  -0.4027  -0.3855  -0.3701  -0.3512  -0.2928  -0.2885  -0.2199

          Ground-State Mulliken Net Atomic Charges

     Atom                 Charge (a.u.)
  ----------------------------------------
      1 C                    -0.069963
      2 C                    -0.261702
      3 S                    -0.136713
      4 C                    -0.043721
      5 H                     0.193171
      6 C                    -0.051833
      7 C                     0.225514
      8 C                     0.224250
      9 C                    -0.072701
     10 C                    -0.042193
     11 O                    -0.334812
     12 O                    -0.343558
     13 C                    -0.082536
     14 H                     0.119762
     15 H                     0.091910
     16 H                     0.093304
     17 C                    -0.086933
     18 H                     0.123292
     19 H                     0.091789
     20 H                     0.091037
     21 C                    -0.274762
     22 S                    -0.073361
     23 C                     0.070198
     24 H                     0.203099
     25 C                    -0.047033
     26 S                     0.100265
     27 C                    -0.236181
     28 C                    -0.125529
     29 C                     0.001134
     30 C                     0.396471
     31 C                    -0.153565
     32 S                     0.040198
     33 C                     0.460525
     34 O                    -0.448103
     35 O                    -0.297680
     36 F                    -0.211590
     37 C                    -0.054993
     38 H                     0.116657
     39 H                     0.084838
     40 H                     0.084751
     41 H                     0.216378
     42 H                     0.116878
     43 H                     0.114885
     44 H                     0.189158
  ----------------------------------------
  Sum of atomic charges =     0.000000

                    Cartesian Multipole Moments
 -----------------------------------------------------------------
    Charge (ESU x 10^10)
                 0.0000
    Dipole Moment (Debye)
         X       1.2930      Y       3.7627      Z       3.6249
       Tot       5.3823
    Quadrupole Moments (Debye-Ang)
        XX    -181.9219     XY       0.4854     YY    -176.4368
        XZ      -3.3444     YZ      -9.1119     ZZ    -205.7615

 Total job time:  321.82s(wall), 10429.21s(cpu)
        *  Thank you very much for using Q-Chem.  Have a nice day.  *
