 Q-Chem 5.4, Q-Chem, Inc., Pleasanton, CA (2021)
 Q-Chem 5.4.0 for Intel X86 EM64T Linux

User input:
--------------------------------------------------------------
$molecule
0 1
C	-0.046574	-8.519741	-0.268090
C	0.326886	-7.635967	0.733920
S	-0.595708	-7.651740	-1.722318
C	0.193236	-6.261894	0.371516
H	0.692700	-7.954738	1.718130
C	-0.294958	-6.079985	-0.970283
C	-0.515487	-4.798382	-1.498243
C	0.477358	-5.153542	1.219725
C	0.252655	-3.869626	0.692914
C	-0.233366	-3.688927	-0.651289
O	0.957369	-5.481075	2.451623
O	-0.998769	-4.479871	-2.735264
C	-0.752029	-5.356026	-3.828387
H	-1.012675	-4.790496	-4.743213
H	-1.386303	-6.268513	-3.788623
H	0.316492	-5.658187	-3.877260
C	0.881930	-4.546999	3.521580
H	1.145969	-5.107564	4.438260
H	-0.142712	-4.131473	3.631868
H	1.605610	-3.712085	3.399425
C	-0.367928	-2.314326	-1.009535
S	0.542088	-2.295487	1.450945
C	-0.000000	-1.435180	-0.000000
H	-0.730999	-1.993211	-1.993920
C	0.000000	0.000000	0.000000
S	0.690437	0.576430	1.510732
C	1.896512	1.589852	0.727629
C	0.695720	0.583817	-1.064665
C	1.758621	1.477674	-0.678287
C	0.645928	0.539878	-2.486150
C	1.614763	1.352997	-3.106916
S	2.568261	2.157430	-1.965735
C	1.812707	1.512991	-4.559972
O	1.099523	0.910662	-5.350277
O	2.797769	2.335330	-5.004375
F	-0.205024	-0.179266	-3.246290
C	3.079074	2.558124	-6.334976
H	3.925910	3.267919	-6.370268
H	2.208109	2.990367	-6.875609
H	3.358147	1.618843	-6.861878
H	2.601331	2.181180	1.321510
H	-0.888291	-9.146471	0.049086
H	0.794665	-9.150570	-0.578334
H	-1.011908	-1.444158	0.377309
$end

$rem
JOBTYPE		SP
EXCHANGE	HF
CORRELATION	pRIMP2
BASIS		cc-pvtz
METHOD		rimp2
AUX_BASIS	rimp2-cc-pvtz
SOLVENT_METHOD	PCM
PURECART	11111
SYMMETRY	false
MEM_TOTAL	110000
SCF_CONVERGENCE = 6
THRESH=10
GUI = 2
$end

$solvent
dielectric 4.90
$end
--------------------------------------------------------------

             Standard Nuclear Orientation (Angstroms)
    I     Atom           X                Y                Z
 ----------------------------------------------------------------
    1      C      -0.0465740000    -8.5197410000    -0.2680900000
    2      C       0.3268860000    -7.6359670000     0.7339200000
    3      S      -0.5957080000    -7.6517400000    -1.7223180000
    4      C       0.1932360000    -6.2618940000     0.3715160000
    5      H       0.6927000000    -7.9547380000     1.7181300000
    6      C      -0.2949580000    -6.0799850000    -0.9702830000
    7      C      -0.5154870000    -4.7983820000    -1.4982430000
    8      C       0.4773580000    -5.1535420000     1.2197250000
    9      C       0.2526550000    -3.8696260000     0.6929140000
   10      C      -0.2333660000    -3.6889270000    -0.6512890000
   11      O       0.9573690000    -5.4810750000     2.4516230000
   12      O      -0.9987690000    -4.4798710000    -2.7352640000
   13      C      -0.7520290000    -5.3560260000    -3.8283870000
   14      H      -1.0126750000    -4.7904960000    -4.7432130000
   15      H      -1.3863030000    -6.2685130000    -3.7886230000
   16      H       0.3164920000    -5.6581870000    -3.8772600000
   17      C       0.8819300000    -4.5469990000     3.5215800000
   18      H       1.1459690000    -5.1075640000     4.4382600000
   19      H      -0.1427120000    -4.1314730000     3.6318680000
   20      H       1.6056100000    -3.7120850000     3.3994250000
   21      C      -0.3679280000    -2.3143260000    -1.0095350000
   22      S       0.5420880000    -2.2954870000     1.4509450000
   23      C       0.0000000000    -1.4351800000     0.0000000000
   24      H      -0.7309990000    -1.9932110000    -1.9939200000
   25      C       0.0000000000     0.0000000000     0.0000000000
   26      S       0.6904370000     0.5764300000     1.5107320000
   27      C       1.8965120000     1.5898520000     0.7276290000
   28      C       0.6957200000     0.5838170000    -1.0646650000
   29      C       1.7586210000     1.4776740000    -0.6782870000
   30      C       0.6459280000     0.5398780000    -2.4861500000
   31      C       1.6147630000     1.3529970000    -3.1069160000
   32      S       2.5682610000     2.1574300000    -1.9657350000
   33      C       1.8127070000     1.5129910000    -4.5599720000
   34      O       1.0995230000     0.9106620000    -5.3502770000
   35      O       2.7977690000     2.3353300000    -5.0043750000
   36      F      -0.2050240000    -0.1792660000    -3.2462900000
   37      C       3.0790740000     2.5581240000    -6.3349760000
   38      H       3.9259100000     3.2679190000    -6.3702680000
   39      H       2.2081090000     2.9903670000    -6.8756090000
   40      H       3.3581470000     1.6188430000    -6.8618780000
   41      H       2.6013310000     2.1811800000     1.3215100000
   42      H      -0.8882910000    -9.1464710000     0.0490860000
   43      H       0.7946650000    -9.1505700000    -0.5783340000
   44      H      -1.0119080000    -1.4441580000     0.3773090000
 ----------------------------------------------------------------

   11   -2755.2655678977      7.05e-07  Convergence criterion met
 Total energy in the final basis set =    -2755.2655678977
        RIMP2         total energy =     -2760.3774185030 a.u.

                    Orbital Energies (a.u.)
 --------------------------------------------------------------

 Alpha MOs
 -- Occupied --
-92.0155 -92.0017 -91.9781 -91.9556 -26.3387 -20.6147 -20.5854 -20.5854
-20.5544 -11.4142 -11.3782 -11.3109 -11.3076 -11.3060 -11.3041 -11.3002
-11.2919 -11.2899 -11.2874 -11.2841 -11.2810 -11.2797 -11.2739 -11.2712
-11.2690 -11.2560 -11.2529 -11.2471 -11.2315  -9.0149  -9.0054  -8.9804
 -8.9582  -6.6956  -6.6948  -6.6945  -6.6866  -6.6860  -6.6847  -6.6613
 -6.6604  -6.6591  -6.6395  -6.6385  -6.6375  -1.6527  -1.4747  -1.4088
 -1.4071  -1.3706  -1.2443  -1.2078  -1.1739  -1.1456  -1.0969  -1.0538
 -1.0447  -1.0327  -1.0073  -0.9966  -0.9748  -0.9594  -0.9472  -0.9396
 -0.8935  -0.8748  -0.8604  -0.8082  -0.7999  -0.7859  -0.7755  -0.7713
 -0.7612  -0.7319  -0.7248  -0.7196  -0.6965  -0.6940  -0.6835  -0.6808
 -0.6759  -0.6654  -0.6554  -0.6472  -0.6387  -0.6275  -0.6176  -0.6126
 -0.6098  -0.6096  -0.6009  -0.5921  -0.5739  -0.5687  -0.5569  -0.5553
 -0.5405  -0.5375  -0.5306  -0.5227  -0.5155  -0.5092  -0.5059  -0.4988
 -0.4885  -0.4815  -0.4718  -0.4700  -0.4639  -0.4624  -0.4520  -0.4435
 -0.4304  -0.3928  -0.3845  -0.3672  -0.3495  -0.2974  -0.2849  -0.2119

          Ground-State Mulliken Net Atomic Charges

     Atom                 Charge (a.u.)
  ----------------------------------------
      1 C                    -0.069290
      2 C                    -0.275680
      3 S                    -0.140658
      4 C                    -0.042464
      5 H                     0.191220
      6 C                    -0.056366
      7 C                     0.228214
      8 C                     0.220446
      9 C                    -0.077437
     10 C                    -0.051936
     11 O                    -0.335267
     12 O                    -0.343557
     13 C                    -0.082709
     14 H                     0.120920
     15 H                     0.091813
     16 H                     0.092279
     17 C                    -0.088073
     18 H                     0.123818
     19 H                     0.091740
     20 H                     0.088706
     21 C                    -0.275352
     22 S                    -0.091525
     23 C                     0.050427
     24 H                     0.215436
     25 C                    -0.137956
     26 S                     0.098563
     27 C                    -0.183356
     28 C                    -0.021137
     29 C                    -0.028871
     30 C                     0.360902
     31 C                    -0.124052
     32 S                     0.059803
     33 C                     0.457264
     34 O                    -0.444422
     35 O                    -0.297212
     36 F                    -0.213243
     37 C                    -0.054683
     38 H                     0.117274
     39 H                     0.085133
     40 H                     0.085252
     41 H                     0.219520
     42 H                     0.115170
     43 H                     0.112823
     44 H                     0.208522
  ----------------------------------------
  Sum of atomic charges =     0.000000

                    Cartesian Multipole Moments
 -----------------------------------------------------------------
    Charge (ESU x 10^10)
                 0.0000
    Dipole Moment (Debye)
         X       3.1754      Y       4.1277      Z       3.2433
       Tot       6.1352
    Quadrupole Moments (Debye-Ang)
        XX    -190.5242     XY       7.9661     YY    -191.5009
        XZ      -8.6733     YZ     -10.7311     ZZ    -185.6130

 Total job time:  329.50s(wall), 10700.10s(cpu)
        *  Thank you very much for using Q-Chem.  Have a nice day.  *
