 Q-Chem 5.4, Q-Chem, Inc., Pleasanton, CA (2021)
 Q-Chem 5.4.0 for Intel X86 EM64T Linux

User input:
--------------------------------------------------------------
$molecule
0 1
C	-0.175432	-8.519741	0.208002
C	0.352097	-7.635967	-0.722164
S	-0.936458	-7.651740	1.563424
C	0.160388	-6.261894	-0.386833
H	0.870905	-7.954738	-1.635031
C	-0.553685	-6.079985	0.849637
C	-0.816372	-4.798382	1.357938
C	0.627524	-5.153542	-1.149702
C	0.368399	-3.869626	-0.638941
C	-0.348912	-3.688927	0.597409
O	1.262667	-5.481075	-2.309260
O	-1.453338	-4.479871	2.523296
C	-2.449320	-5.356026	3.036927
H	-2.982577	-4.790496	3.824632
H	-2.011155	-6.268513	3.497250
H	-3.173591	-5.658187	2.249807
C	2.130793	-4.546999	-2.939226
H	2.663289	-5.107564	-3.730721
H	2.873906	-4.131473	-2.225196
H	1.572045	-3.712085	-3.415077
C	-0.536849	-2.314326	0.930765
S	0.763041	-2.295487	-1.347913
C	0.000000	-1.435180	0.000000
H	-1.057554	-1.993211	1.841645
C	0.000000	0.000000	0.000000
S	0.234946	0.868203	1.510732
C	0.641630	2.390125	0.727629
C	0.235036	0.877284	-1.064665
C	0.593019	2.219143	-0.678287
C	0.219452	0.812732	-2.486150
C	0.546689	2.034501	-3.106916
S	0.866345	3.240357	-1.965735
C	0.617067	2.279095	-4.559972
O	0.378342	1.376631	-5.350277
O	0.952308	3.517725	-5.004375
F	-0.065123	-0.264443	-3.246290
C	1.054950	3.861577	-6.334976
H	1.341516	4.928732	-6.370268
H	0.093573	3.716085	-6.875609
H	1.822303	3.252232	-6.861878
H	0.879812	3.278780	1.321510
H	0.608584	-9.146471	0.648918
H	-0.953830	-9.150570	-0.237003
H	0.939477	-1.444158	0.532637
$end

$rem
JOBTYPE		SP
EXCHANGE	HF
CORRELATION	pRIMP2
BASIS		cc-pvtz
METHOD		rimp2
AUX_BASIS	rimp2-cc-pvtz
SOLVENT_METHOD	PCM
PURECART	11111
SYMMETRY	false
MEM_TOTAL	110000
SCF_CONVERGENCE = 6
THRESH=10
GUI = 2
$end

$solvent
dielectric 4.90
$end
--------------------------------------------------------------

             Standard Nuclear Orientation (Angstroms)
    I     Atom           X                Y                Z
 ----------------------------------------------------------------
    1      C      -0.1754320000    -8.5197410000     0.2080020000
    2      C       0.3520970000    -7.6359670000    -0.7221640000
    3      S      -0.9364580000    -7.6517400000     1.5634240000
    4      C       0.1603880000    -6.2618940000    -0.3868330000
    5      H       0.8709050000    -7.9547380000    -1.6350310000
    6      C      -0.5536850000    -6.0799850000     0.8496370000
    7      C      -0.8163720000    -4.7983820000     1.3579380000
    8      C       0.6275240000    -5.1535420000    -1.1497020000
    9      C       0.3683990000    -3.8696260000    -0.6389410000
   10      C      -0.3489120000    -3.6889270000     0.5974090000
   11      O       1.2626670000    -5.4810750000    -2.3092600000
   12      O      -1.4533380000    -4.4798710000     2.5232960000
   13      C      -2.4493200000    -5.3560260000     3.0369270000
   14      H      -2.9825770000    -4.7904960000     3.8246320000
   15      H      -2.0111550000    -6.2685130000     3.4972500000
   16      H      -3.1735910000    -5.6581870000     2.2498070000
   17      C       2.1307930000    -4.5469990000    -2.9392260000
   18      H       2.6632890000    -5.1075640000    -3.7307210000
   19      H       2.8739060000    -4.1314730000    -2.2251960000
   20      H       1.5720450000    -3.7120850000    -3.4150770000
   21      C      -0.5368490000    -2.3143260000     0.9307650000
   22      S       0.7630410000    -2.2954870000    -1.3479130000
   23      C       0.0000000000    -1.4351800000     0.0000000000
   24      H      -1.0575540000    -1.9932110000     1.8416450000
   25      C       0.0000000000     0.0000000000     0.0000000000
   26      S       0.2349460000     0.8682030000     1.5107320000
   27      C       0.6416300000     2.3901250000     0.7276290000
   28      C       0.2350360000     0.8772840000    -1.0646650000
   29      C       0.5930190000     2.2191430000    -0.6782870000
   30      C       0.2194520000     0.8127320000    -2.4861500000
   31      C       0.5466890000     2.0345010000    -3.1069160000
   32      S       0.8663450000     3.2403570000    -1.9657350000
   33      C       0.6170670000     2.2790950000    -4.5599720000
   34      O       0.3783420000     1.3766310000    -5.3502770000
   35      O       0.9523080000     3.5177250000    -5.0043750000
   36      F      -0.0651230000    -0.2644430000    -3.2462900000
   37      C       1.0549500000     3.8615770000    -6.3349760000
   38      H       1.3415160000     4.9287320000    -6.3702680000
   39      H       0.0935730000     3.7160850000    -6.8756090000
   40      H       1.8223030000     3.2522320000    -6.8618780000
   41      H       0.8798120000     3.2787800000     1.3215100000
   42      H       0.6085840000    -9.1464710000     0.6489180000
   43      H      -0.9538300000    -9.1505700000    -0.2370030000
   44      H       0.9394770000    -1.4441580000     0.5326370000
 ----------------------------------------------------------------

   11   -2755.3208418020      7.58e-07  Convergence criterion met
 Total energy in the final basis set =    -2755.3208418020
        RIMP2         total energy =     -2760.4121264381 a.u.

                    Orbital Energies (a.u.)
 --------------------------------------------------------------

 Alpha MOs
 -- Occupied --
-92.0124 -91.9919 -91.9772 -91.9602 -26.3340 -20.6111 -20.5880 -20.5879
-20.5479 -11.4086 -11.3788 -11.3234 -11.3098 -11.3097 -11.2962 -11.2933
-11.2880 -11.2867 -11.2856 -11.2843 -11.2836 -11.2835 -11.2781 -11.2760
-11.2716 -11.2622 -11.2597 -11.2516 -11.2414  -9.0114  -8.9961  -8.9796
 -8.9628  -6.6922  -6.6916  -6.6910  -6.6774  -6.6767  -6.6753  -6.6607
 -6.6598  -6.6585  -6.6440  -6.6431  -6.6421  -1.6483  -1.4706  -1.4113
 -1.4098  -1.3656  -1.2386  -1.2100  -1.1776  -1.1436  -1.1003  -1.0505
 -1.0468  -1.0302  -1.0084  -0.9996  -0.9713  -0.9601  -0.9495  -0.9405
 -0.8948  -0.8708  -0.8641  -0.8116  -0.7936  -0.7859  -0.7762  -0.7670
 -0.7660  -0.7334  -0.7209  -0.7158  -0.6975  -0.6936  -0.6838  -0.6777
 -0.6710  -0.6697  -0.6568  -0.6493  -0.6388  -0.6292  -0.6219  -0.6157
 -0.6109  -0.6050  -0.5961  -0.5920  -0.5790  -0.5671  -0.5643  -0.5589
 -0.5490  -0.5341  -0.5281  -0.5213  -0.5135  -0.5087  -0.5040  -0.5007
 -0.4850  -0.4829  -0.4792  -0.4680  -0.4624  -0.4605  -0.4593  -0.4481
 -0.4290  -0.4011  -0.3849  -0.3725  -0.3513  -0.2935  -0.2841  -0.2189

          Ground-State Mulliken Net Atomic Charges

     Atom                 Charge (a.u.)
  ----------------------------------------
      1 C                    -0.070820
      2 C                    -0.246631
      3 S                    -0.131065
      4 C                    -0.051014
      5 H                     0.195382
      6 C                    -0.045931
      7 C                     0.216110
      8 C                     0.230219
      9 C                    -0.076937
     10 C                    -0.005893
     11 O                    -0.334382
     12 O                    -0.343733
     13 C                    -0.082664
     14 H                     0.120063
     15 H                     0.092012
     16 H                     0.093241
     17 C                    -0.089596
     18 H                     0.124336
     19 H                     0.092245
     20 H                     0.092902
     21 C                    -0.342204
     22 S                    -0.086308
     23 C                     0.146538
     24 H                     0.199297
     25 C                    -0.013287
     26 S                     0.086543
     27 C                    -0.261199
     28 C                    -0.158527
     29 C                    -0.005298
     30 C                     0.386010
     31 C                    -0.150204
     32 S                     0.030307
     33 C                     0.460797
     34 O                    -0.453742
     35 O                    -0.298545
     36 F                    -0.207119
     37 C                    -0.055054
     38 H                     0.116380
     39 H                     0.084363
     40 H                     0.083998
     41 H                     0.213635
     42 H                     0.119243
     43 H                     0.117112
     44 H                     0.209420
  ----------------------------------------
  Sum of atomic charges =     0.000000

                    Cartesian Multipole Moments
 -----------------------------------------------------------------
    Charge (ESU x 10^10)
                -0.0000
    Dipole Moment (Debye)
         X       1.4304      Y       1.6842      Z       3.2941
       Tot       3.9666
    Quadrupole Moments (Debye-Ang)
        XX    -190.0523     XY       1.5843     YY    -169.3457
        XZ     -12.0308     YZ      -5.8464     ZZ    -199.0904

 Total job time:  324.92s(wall), 10552.36s(cpu)
        *  Thank you very much for using Q-Chem.  Have a nice day.  *
