 Q-Chem 5.4, Q-Chem, Inc., Pleasanton, CA (2021)
 Q-Chem 5.4.0 for Intel X86 EM64T Linux

User input:
--------------------------------------------------------------
$molecule
0 1
C	-0.268090	-8.519741	0.046574
C	0.733920	-7.635967	-0.326886
S	-1.722318	-7.651740	0.595708
C	0.371516	-6.261894	-0.193236
H	1.718130	-7.954738	-0.692700
C	-0.970283	-6.079985	0.294958
C	-1.498243	-4.798382	0.515487
C	1.219725	-5.153542	-0.477358
C	0.692914	-3.869626	-0.252655
C	-0.651289	-3.688927	0.233366
O	2.451623	-5.481075	-0.957369
O	-2.735264	-4.479871	0.998769
C	-3.828387	-5.356026	0.752029
H	-4.743213	-4.790496	1.012675
H	-3.788623	-6.268513	1.386303
H	-3.877260	-5.658187	-0.316492
C	3.521580	-4.546999	-0.881930
H	4.438260	-5.107564	-1.145969
H	3.631868	-4.131473	0.142712
H	3.399425	-3.712085	-1.605610
C	-1.009535	-2.314326	0.367928
S	1.450945	-2.295487	-0.542088
C	0.000000	-1.435180	0.000000
H	-1.993920	-1.993211	0.730999
C	0.000000	0.000000	0.000000
S	0.780044	0.447780	1.510732
C	2.143774	1.236372	0.727629
C	0.786529	0.454137	-1.064665
C	1.988499	1.149844	-0.678287
C	0.729864	0.419512	-2.486150
C	1.825177	1.052041	-3.106916
S	2.903877	1.678680	-1.965735
C	2.047896	1.175232	-4.559972
O	1.240953	0.705897	-5.350277
O	3.160791	1.814024	-5.004375
F	-0.233039	-0.140940	-3.246290
C	3.476510	1.984585	-6.334976
H	4.433735	2.536545	-6.370268
H	2.693835	2.561503	-6.875609
H	3.588239	1.011113	-6.861878
H	2.940569	1.696327	1.321510
H	0.049086	-9.146471	0.888291
H	-0.578334	-9.150570	-0.794665
H	0.377309	-1.444158	1.011908
$end

$rem
JOBTYPE		SP
EXCHANGE	HF
CORRELATION	pRIMP2
BASIS		cc-pvtz
METHOD		rimp2
AUX_BASIS	rimp2-cc-pvtz
SOLVENT_METHOD	PCM
PURECART	11111
SYMMETRY	false
MEM_TOTAL	110000
SCF_CONVERGENCE = 6
THRESH=10
GUI = 2
$end

$solvent
dielectric 4.90
$end
--------------------------------------------------------------

             Standard Nuclear Orientation (Angstroms)
    I     Atom           X                Y                Z
 ----------------------------------------------------------------
    1      C      -0.2680900000    -8.5197410000     0.0465740000
    2      C       0.7339200000    -7.6359670000    -0.3268860000
    3      S      -1.7223180000    -7.6517400000     0.5957080000
    4      C       0.3715160000    -6.2618940000    -0.1932360000
    5      H       1.7181300000    -7.9547380000    -0.6927000000
    6      C      -0.9702830000    -6.0799850000     0.2949580000
    7      C      -1.4982430000    -4.7983820000     0.5154870000
    8      C       1.2197250000    -5.1535420000    -0.4773580000
    9      C       0.6929140000    -3.8696260000    -0.2526550000
   10      C      -0.6512890000    -3.6889270000     0.2333660000
   11      O       2.4516230000    -5.4810750000    -0.9573690000
   12      O      -2.7352640000    -4.4798710000     0.9987690000
   13      C      -3.8283870000    -5.3560260000     0.7520290000
   14      H      -4.7432130000    -4.7904960000     1.0126750000
   15      H      -3.7886230000    -6.2685130000     1.3863030000
   16      H      -3.8772600000    -5.6581870000    -0.3164920000
   17      C       3.5215800000    -4.5469990000    -0.8819300000
   18      H       4.4382600000    -5.1075640000    -1.1459690000
   19      H       3.6318680000    -4.1314730000     0.1427120000
   20      H       3.3994250000    -3.7120850000    -1.6056100000
   21      C      -1.0095350000    -2.3143260000     0.3679280000
   22      S       1.4509450000    -2.2954870000    -0.5420880000
   23      C       0.0000000000    -1.4351800000     0.0000000000
   24      H      -1.9939200000    -1.9932110000     0.7309990000
   25      C       0.0000000000     0.0000000000     0.0000000000
   26      S       0.7800440000     0.4477800000     1.5107320000
   27      C       2.1437740000     1.2363720000     0.7276290000
   28      C       0.7865290000     0.4541370000    -1.0646650000
   29      C       1.9884990000     1.1498440000    -0.6782870000
   30      C       0.7298640000     0.4195120000    -2.4861500000
   31      C       1.8251770000     1.0520410000    -3.1069160000
   32      S       2.9038770000     1.6786800000    -1.9657350000
   33      C       2.0478960000     1.1752320000    -4.5599720000
   34      O       1.2409530000     0.7058970000    -5.3502770000
   35      O       3.1607910000     1.8140240000    -5.0043750000
   36      F      -0.2330390000    -0.1409400000    -3.2462900000
   37      C       3.4765100000     1.9845850000    -6.3349760000
   38      H       4.4337350000     2.5365450000    -6.3702680000
   39      H       2.6938350000     2.5615030000    -6.8756090000
   40      H       3.5882390000     1.0111130000    -6.8618780000
   41      H       2.9405690000     1.6963270000     1.3215100000
   42      H       0.0490860000    -9.1464710000     0.8882910000
   43      H      -0.5783340000    -9.1505700000    -0.7946650000
   44      H       0.3773090000    -1.4441580000     1.0119080000
 ----------------------------------------------------------------

   11   -2755.2446425507      9.17e-07  Convergence criterion met
 Total energy in the final basis set =    -2755.2446425507
        RIMP2         total energy =     -2760.3571824810 a.u.

                    Orbital Energies (a.u.)
 --------------------------------------------------------------

 Alpha MOs
 -- Occupied --
-92.0144 -92.0079 -91.9733 -91.9533 -26.3358 -20.6174 -20.5852 -20.5832
-20.5595 -11.4183 -11.3775 -11.3299 -11.3166 -11.3065 -11.3018 -11.3005
-11.2982 -11.2912 -11.2829 -11.2810 -11.2797 -11.2753 -11.2697 -11.2685
-11.2655 -11.2541 -11.2472 -11.2449 -11.2263  -9.0147  -9.0114  -8.9759
 -8.9560  -6.6952  -6.6941  -6.6941  -6.6925  -6.6919  -6.6906  -6.6570
 -6.6561  -6.6548  -6.6372  -6.6363  -6.6353  -1.6488  -1.4777  -1.4073
 -1.4061  -1.3741  -1.2529  -1.2077  -1.1735  -1.1474  -1.0958  -1.0568
 -1.0415  -1.0383  -1.0059  -0.9933  -0.9784  -0.9592  -0.9461  -0.9398
 -0.8901  -0.8795  -0.8559  -0.8121  -0.7971  -0.7843  -0.7800  -0.7715
 -0.7606  -0.7354  -0.7199  -0.7176  -0.6986  -0.6935  -0.6830  -0.6794
 -0.6780  -0.6672  -0.6537  -0.6463  -0.6341  -0.6286  -0.6155  -0.6138
 -0.6132  -0.6101  -0.6058  -0.5901  -0.5756  -0.5661  -0.5594  -0.5530
 -0.5421  -0.5336  -0.5314  -0.5219  -0.5106  -0.5074  -0.5050  -0.4975
 -0.4930  -0.4819  -0.4711  -0.4693  -0.4655  -0.4622  -0.4571  -0.4426
 -0.4200  -0.4018  -0.3801  -0.3676  -0.3470  -0.3040  -0.2856  -0.2120

          Ground-State Mulliken Net Atomic Charges

     Atom                 Charge (a.u.)
  ----------------------------------------
      1 C                    -0.068505
      2 C                    -0.289397
      3 S                    -0.146703
      4 C                    -0.040656
      5 H                     0.189317
      6 C                    -0.057996
      7 C                     0.227194
      8 C                     0.218001
      9 C                    -0.069291
     10 C                    -0.053372
     11 O                    -0.335775
     12 O                    -0.343366
     13 C                    -0.082425
     14 H                     0.119036
     15 H                     0.091779
     16 H                     0.092925
     17 C                    -0.087188
     18 H                     0.122852
     19 H                     0.090185
     20 H                     0.088873
     21 C                    -0.282488
     22 S                    -0.115982
     23 C                     0.077033
     24 H                     0.203530
     25 C                    -0.179193
     26 S                     0.109933
     27 C                    -0.127880
     28 C                    -0.061714
     29 C                    -0.035337
     30 C                     0.398121
     31 C                    -0.120029
     32 S                     0.077432
     33 C                     0.458853
     34 O                    -0.434371
     35 O                    -0.295973
     36 F                    -0.210000
     37 C                    -0.054741
     38 H                     0.117773
     39 H                     0.086192
     40 H                     0.086359
     41 H                     0.222448
     42 H                     0.112920
     43 H                     0.110929
     44 H                     0.190697
  ----------------------------------------
  Sum of atomic charges =     0.000000

                    Cartesian Multipole Moments
 -----------------------------------------------------------------
    Charge (ESU x 10^10)
                -0.0000
    Dipole Moment (Debye)
         X       5.3998      Y       5.3083      Z       2.8761
       Tot       8.0999
    Quadrupole Moments (Debye-Ang)
        XX    -167.6657     XY       6.5850     YY    -202.4329
        XZ     -11.6206     YZ      -5.3671     ZZ    -200.6412

 Total job time:  332.54s(wall), 10902.47s(cpu)
        *  Thank you very much for using Q-Chem.  Have a nice day.  *
