 Q-Chem 5.4, Q-Chem, Inc., Pleasanton, CA (2021)
 Q-Chem 5.4.0 for Intel X86 EM64T Linux

User input:
--------------------------------------------------------------
$molecule
0 1
C	1.432238	-8.398629	0.267851
C	1.270668	-7.529711	-0.801461
S	1.299871	-7.540578	1.822194
C	1.033679	-6.176229	-0.415201
H	1.318997	-7.844878	-1.851431
C	1.001923	-5.997113	1.012650
C	0.805626	-4.730351	1.584194
C	0.863981	-5.080701	-1.309433
C	0.671533	-3.810912	-0.737539
C	0.637166	-3.633485	0.691828
O	0.891580	-5.408420	-2.631211
O	0.780896	-4.411287	2.911907
C	0.336511	-5.379315	3.854716
H	0.171379	-4.834178	4.803517
H	1.095324	-6.172080	4.034285
H	-0.616308	-5.854145	3.535185
C	1.159578	-4.412679	-3.610841
H	1.321333	-4.953370	-4.562544
H	2.072791	-3.829719	-3.364029
H	0.303747	-3.715791	-3.743566
C	0.402329	-2.279087	1.074491
S	0.385663	-2.262896	-1.548848
C	0.249216	-1.413377	0.000000
H	0.350996	-1.962069	2.123688
C	0.000000	0.000000	0.000000
S	0.451648	0.777811	1.510732
C	1.238377	2.142617	0.727629
C	0.454085	0.786559	-1.064665
C	1.147169	1.990043	-0.678287
C	0.422325	0.728240	-2.486150
C	1.054629	1.823683	-3.106916
S	1.675491	2.905718	-1.965735
C	1.185914	2.041729	-4.559972
O	0.721749	1.231802	-5.350277
O	1.830313	3.151386	-5.004375
F	-0.131347	-0.238577	-3.246290
C	2.018453	3.456956	-6.334976
H	2.571455	4.413580	-6.370268
H	1.052178	3.565244	-6.875609
H	2.601950	2.669768	-6.861878
H	1.698444	2.939346	1.321510
H	2.426840	-8.859653	0.257688
H	0.658787	-9.175570	0.271664
H	1.314298	-1.234691	-0.008462
$end

$rem
JOBTYPE		SP
EXCHANGE	HF
CORRELATION	pRIMP2
BASIS		cc-pvtz
METHOD		rimp2
AUX_BASIS	rimp2-cc-pvtz
SOLVENT_METHOD	PCM
PURECART	11111
SYMMETRY	false
MEM_TOTAL	110000
SCF_CONVERGENCE = 6
THRESH=10
GUI = 2
$end

$solvent
dielectric 4.90
$end
--------------------------------------------------------------

             Standard Nuclear Orientation (Angstroms)
    I     Atom           X                Y                Z
 ----------------------------------------------------------------
    1      C       1.4322380000    -8.3986290000     0.2678510000
    2      C       1.2706680000    -7.5297110000    -0.8014610000
    3      S       1.2998710000    -7.5405780000     1.8221940000
    4      C       1.0336790000    -6.1762290000    -0.4152010000
    5      H       1.3189970000    -7.8448780000    -1.8514310000
    6      C       1.0019230000    -5.9971130000     1.0126500000
    7      C       0.8056260000    -4.7303510000     1.5841940000
    8      C       0.8639810000    -5.0807010000    -1.3094330000
    9      C       0.6715330000    -3.8109120000    -0.7375390000
   10      C       0.6371660000    -3.6334850000     0.6918280000
   11      O       0.8915800000    -5.4084200000    -2.6312110000
   12      O       0.7808960000    -4.4112870000     2.9119070000
   13      C       0.3365110000    -5.3793150000     3.8547160000
   14      H       0.1713790000    -4.8341780000     4.8035170000
   15      H       1.0953240000    -6.1720800000     4.0342850000
   16      H      -0.6163080000    -5.8541450000     3.5351850000
   17      C       1.1595780000    -4.4126790000    -3.6108410000
   18      H       1.3213330000    -4.9533700000    -4.5625440000
   19      H       2.0727910000    -3.8297190000    -3.3640290000
   20      H       0.3037470000    -3.7157910000    -3.7435660000
   21      C       0.4023290000    -2.2790870000     1.0744910000
   22      S       0.3856630000    -2.2628960000    -1.5488480000
   23      C       0.2492160000    -1.4133770000     0.0000000000
   24      H       0.3509960000    -1.9620690000     2.1236880000
   25      C       0.0000000000     0.0000000000     0.0000000000
   26      S       0.4516480000     0.7778110000     1.5107320000
   27      C       1.2383770000     2.1426170000     0.7276290000
   28      C       0.4540850000     0.7865590000    -1.0646650000
   29      C       1.1471690000     1.9900430000    -0.6782870000
   30      C       0.4223250000     0.7282400000    -2.4861500000
   31      C       1.0546290000     1.8236830000    -3.1069160000
   32      S       1.6754910000     2.9057180000    -1.9657350000
   33      C       1.1859140000     2.0417290000    -4.5599720000
   34      O       0.7217490000     1.2318020000    -5.3502770000
   35      O       1.8303130000     3.1513860000    -5.0043750000
   36      F      -0.1313470000    -0.2385770000    -3.2462900000
   37      C       2.0184530000     3.4569560000    -6.3349760000
   38      H       2.5714550000     4.4135800000    -6.3702680000
   39      H       1.0521780000     3.5652440000    -6.8756090000
   40      H       2.6019500000     2.6697680000    -6.8618780000
   41      H       1.6984440000     2.9393460000     1.3215100000
   42      H       2.4268400000    -8.8596530000     0.2576880000
   43      H       0.6587870000    -9.1755700000     0.2716640000
   44      H       1.3142980000    -1.2346910000    -0.0084620000
 ----------------------------------------------------------------

   11   -2755.2939438947      5.67e-07  Convergence criterion met
 Total energy in the final basis set =    -2755.2939438947
        RIMP2         total energy =     -2760.3972597615 a.u.

                    Orbital Energies (a.u.)
 --------------------------------------------------------------

 Alpha MOs
 -- Occupied --
-92.0114 -91.9944 -91.9741 -91.9606 -26.3351 -20.6114 -20.5883 -20.5878
-20.5486 -11.4092 -11.3787 -11.3154 -11.3110 -11.3094 -11.2981 -11.2947
-11.2924 -11.2883 -11.2847 -11.2838 -11.2835 -11.2811 -11.2783 -11.2761
-11.2683 -11.2615 -11.2600 -11.2523 -11.2435  -9.0107  -8.9984  -8.9769
 -8.9632  -6.6914  -6.6908  -6.6903  -6.6797  -6.6790  -6.6777  -6.6578
 -6.6571  -6.6556  -6.6444  -6.6435  -6.6425  -1.6507  -1.4711  -1.4116
 -1.4097  -1.3662  -1.2428  -1.2085  -1.1785  -1.1448  -1.0992  -1.0525
 -1.0467  -1.0307  -1.0070  -0.9995  -0.9723  -0.9595  -0.9499  -0.9408
 -0.8946  -0.8724  -0.8608  -0.8132  -0.7961  -0.7860  -0.7763  -0.7656
 -0.7617  -0.7334  -0.7222  -0.7171  -0.6983  -0.6959  -0.6850  -0.6782
 -0.6743  -0.6730  -0.6562  -0.6491  -0.6363  -0.6288  -0.6225  -0.6157
 -0.6111  -0.6056  -0.5980  -0.5941  -0.5755  -0.5674  -0.5632  -0.5593
 -0.5482  -0.5328  -0.5297  -0.5208  -0.5135  -0.5086  -0.5043  -0.5003
 -0.4843  -0.4835  -0.4787  -0.4634  -0.4608  -0.4598  -0.4583  -0.4482
 -0.4303  -0.4007  -0.3822  -0.3727  -0.3513  -0.2949  -0.2839  -0.2173

          Ground-State Mulliken Net Atomic Charges

     Atom                 Charge (a.u.)
  ----------------------------------------
      1 C                    -0.071441
      2 C                    -0.239969
      3 S                    -0.130412
      4 C                    -0.051315
      5 H                     0.196193
      6 C                    -0.046057
      7 C                     0.216661
      8 C                     0.233937
      9 C                    -0.076871
     10 C                    -0.024007
     11 O                    -0.334227
     12 O                    -0.343846
     13 C                    -0.082774
     14 H                     0.120093
     15 H                     0.091836
     16 H                     0.093055
     17 C                    -0.088623
     18 H                     0.124259
     19 H                     0.092606
     20 H                     0.093349
     21 C                    -0.322338
     22 S                    -0.094691
     23 C                     0.094522
     24 H                     0.198721
     25 C                     0.005752
     26 S                     0.081694
     27 C                    -0.243240
     28 C                    -0.119575
     29 C                    -0.018578
     30 C                     0.351725
     31 C                    -0.137935
     32 S                     0.043166
     33 C                     0.457410
     34 O                    -0.453379
     35 O                    -0.298706
     36 F                    -0.207701
     37 C                    -0.054898
     38 H                     0.116504
     39 H                     0.084340
     40 H                     0.084044
     41 H                     0.215492
     42 H                     0.120107
     43 H                     0.117849
     44 H                     0.207269
  ----------------------------------------
  Sum of atomic charges =     0.000000

                    Cartesian Multipole Moments
 -----------------------------------------------------------------
    Charge (ESU x 10^10)
                -0.0000
    Dipole Moment (Debye)
         X       2.4531      Y       1.5305      Z       2.8764
       Tot       4.0784
    Quadrupole Moments (Debye-Ang)
        XX    -195.3244     XY       3.4282     YY    -169.3849
        XZ     -11.6683     YZ      -5.1361     ZZ    -190.1168

 Total job time:  436.88s(wall), 10953.88s(cpu)
        *  Thank you very much for using Q-Chem.  Have a nice day.  *
