 Q-Chem 5.4, Q-Chem, Inc., Pleasanton, CA (2021)
 Q-Chem 5.4.0 for Intel X86 EM64T Linux

User input:
--------------------------------------------------------------
$molecule
0 1
C	-0.268090	-8.519741	0.046574
C	0.733920	-7.635967	-0.326886
S	-1.722318	-7.651740	0.595708
C	0.371516	-6.261894	-0.193236
H	1.718130	-7.954738	-0.692700
C	-0.970283	-6.079985	0.294958
C	-1.498243	-4.798382	0.515487
C	1.219725	-5.153542	-0.477358
C	0.692914	-3.869626	-0.252655
C	-0.651289	-3.688927	0.233366
O	2.451623	-5.481075	-0.957369
O	-2.735264	-4.479871	0.998769
C	-3.828387	-5.356026	0.752029
H	-4.743213	-4.790496	1.012675
H	-3.788623	-6.268513	1.386303
H	-3.877260	-5.658187	-0.316492
C	3.521580	-4.546999	-0.881930
H	4.438260	-5.107564	-1.145969
H	3.631868	-4.131473	0.142712
H	3.399425	-3.712085	-1.605610
C	-1.009535	-2.314326	0.367928
S	1.450945	-2.295487	-0.542088
C	-0.000000	-1.435180	-0.000000
H	-1.993920	-1.993211	0.730999
C	0.000000	0.000000	0.000000
S	0.690437	0.576430	1.510732
C	1.896512	1.589852	0.727629
C	0.695720	0.583817	-1.064665
C	1.758621	1.477674	-0.678287
C	0.645928	0.539878	-2.486150
C	1.614763	1.352997	-3.106916
S	2.568261	2.157430	-1.965735
C	1.812707	1.512991	-4.559972
O	1.099523	0.910662	-5.350277
O	2.797769	2.335330	-5.004375
F	-0.205024	-0.179266	-3.246290
C	3.079074	2.558124	-6.334976
H	3.925910	3.267919	-6.370268
H	2.208109	2.990367	-6.875609
H	3.358147	1.618843	-6.861878
H	2.601331	2.181180	1.321510
H	0.049086	-9.146471	0.888291
H	-0.578334	-9.150570	-0.794665
H	0.377309	-1.444158	1.011908
$end

$rem
JOBTYPE		SP
EXCHANGE	HF
CORRELATION	pRIMP2
BASIS		cc-pvtz
METHOD		rimp2
AUX_BASIS	rimp2-cc-pvtz
SOLVENT_METHOD	PCM
PURECART	11111
SYMMETRY	false
MEM_TOTAL	110000
SCF_CONVERGENCE = 6
THRESH=10
GUI = 2
$end

$solvent
dielectric 4.90
$end
--------------------------------------------------------------

             Standard Nuclear Orientation (Angstroms)
    I     Atom           X                Y                Z
 ----------------------------------------------------------------
    1      C      -0.2680900000    -8.5197410000     0.0465740000
    2      C       0.7339200000    -7.6359670000    -0.3268860000
    3      S      -1.7223180000    -7.6517400000     0.5957080000
    4      C       0.3715160000    -6.2618940000    -0.1932360000
    5      H       1.7181300000    -7.9547380000    -0.6927000000
    6      C      -0.9702830000    -6.0799850000     0.2949580000
    7      C      -1.4982430000    -4.7983820000     0.5154870000
    8      C       1.2197250000    -5.1535420000    -0.4773580000
    9      C       0.6929140000    -3.8696260000    -0.2526550000
   10      C      -0.6512890000    -3.6889270000     0.2333660000
   11      O       2.4516230000    -5.4810750000    -0.9573690000
   12      O      -2.7352640000    -4.4798710000     0.9987690000
   13      C      -3.8283870000    -5.3560260000     0.7520290000
   14      H      -4.7432130000    -4.7904960000     1.0126750000
   15      H      -3.7886230000    -6.2685130000     1.3863030000
   16      H      -3.8772600000    -5.6581870000    -0.3164920000
   17      C       3.5215800000    -4.5469990000    -0.8819300000
   18      H       4.4382600000    -5.1075640000    -1.1459690000
   19      H       3.6318680000    -4.1314730000     0.1427120000
   20      H       3.3994250000    -3.7120850000    -1.6056100000
   21      C      -1.0095350000    -2.3143260000     0.3679280000
   22      S       1.4509450000    -2.2954870000    -0.5420880000
   23      C       0.0000000000    -1.4351800000     0.0000000000
   24      H      -1.9939200000    -1.9932110000     0.7309990000
   25      C       0.0000000000     0.0000000000     0.0000000000
   26      S       0.6904370000     0.5764300000     1.5107320000
   27      C       1.8965120000     1.5898520000     0.7276290000
   28      C       0.6957200000     0.5838170000    -1.0646650000
   29      C       1.7586210000     1.4776740000    -0.6782870000
   30      C       0.6459280000     0.5398780000    -2.4861500000
   31      C       1.6147630000     1.3529970000    -3.1069160000
   32      S       2.5682610000     2.1574300000    -1.9657350000
   33      C       1.8127070000     1.5129910000    -4.5599720000
   34      O       1.0995230000     0.9106620000    -5.3502770000
   35      O       2.7977690000     2.3353300000    -5.0043750000
   36      F      -0.2050240000    -0.1792660000    -3.2462900000
   37      C       3.0790740000     2.5581240000    -6.3349760000
   38      H       3.9259100000     3.2679190000    -6.3702680000
   39      H       2.2081090000     2.9903670000    -6.8756090000
   40      H       3.3581470000     1.6188430000    -6.8618780000
   41      H       2.6013310000     2.1811800000     1.3215100000
   42      H       0.0490860000    -9.1464710000     0.8882910000
   43      H      -0.5783340000    -9.1505700000    -0.7946650000
   44      H       0.3773090000    -1.4441580000     1.0119080000
 ----------------------------------------------------------------

   11   -2755.2724301827      8.39e-07  Convergence criterion met
 Total energy in the final basis set =    -2755.2724301827
        RIMP2         total energy =     -2760.3782769314 a.u.

                    Orbital Energies (a.u.)
 --------------------------------------------------------------

 Alpha MOs
 -- Occupied --
-92.0146 -92.0034 -91.9751 -91.9547 -26.3356 -20.6160 -20.5858 -20.5842
-20.5568 -11.4161 -11.3776 -11.3185 -11.3110 -11.3072 -11.3026 -11.3003
-11.2925 -11.2905 -11.2878 -11.2832 -11.2815 -11.2807 -11.2727 -11.2698
-11.2676 -11.2553 -11.2502 -11.2462 -11.2295  -9.0144  -9.0072  -8.9775
 -8.9574  -6.6950  -6.6941  -6.6938  -6.6884  -6.6877  -6.6864  -6.6586
 -6.6577  -6.6564  -6.6386  -6.6377  -6.6367  -1.6486  -1.4761  -1.4081
 -1.4070  -1.3722  -1.2474  -1.2075  -1.1737  -1.1466  -1.0964  -1.0547
 -1.0426  -1.0359  -1.0064  -0.9944  -0.9764  -0.9592  -0.9468  -0.9400
 -0.8910  -0.8765  -0.8585  -0.8107  -0.7956  -0.7836  -0.7788  -0.7729
 -0.7621  -0.7342  -0.7203  -0.7174  -0.6969  -0.6941  -0.6817  -0.6792
 -0.6769  -0.6658  -0.6544  -0.6469  -0.6338  -0.6279  -0.6168  -0.6138
 -0.6114  -0.6106  -0.6026  -0.5914  -0.5775  -0.5644  -0.5605  -0.5542
 -0.5436  -0.5340  -0.5303  -0.5214  -0.5110  -0.5061  -0.5056  -0.4987
 -0.4912  -0.4830  -0.4721  -0.4676  -0.4654  -0.4639  -0.4587  -0.4438
 -0.4209  -0.4026  -0.3822  -0.3683  -0.3491  -0.2995  -0.2867  -0.2146

          Ground-State Mulliken Net Atomic Charges

     Atom                 Charge (a.u.)
  ----------------------------------------
      1 C                    -0.069016
      2 C                    -0.280503
      3 S                    -0.143525
      4 C                    -0.041212
      5 H                     0.190577
      6 C                    -0.055676
      7 C                     0.225009
      8 C                     0.219198
      9 C                    -0.069617
     10 C                    -0.052510
     11 O                    -0.335474
     12 O                    -0.343394
     13 C                    -0.082448
     14 H                     0.119239
     15 H                     0.091807
     16 H                     0.093066
     17 C                    -0.087315
     18 H                     0.123022
     19 H                     0.090770
     20 H                     0.089560
     21 C                    -0.271228
     22 S                    -0.100272
     23 C                     0.055527
     24 H                     0.204000
     25 C                    -0.111285
     26 S                     0.105578
     27 C                    -0.164514
     28 C                    -0.104576
     29 C                    -0.014226
     30 C                     0.398911
     31 C                    -0.130524
     32 S                     0.064052
     33 C                     0.458919
     34 O                    -0.438749
     35 O                    -0.296564
     36 F                    -0.209993
     37 C                    -0.054662
     38 H                     0.117418
     39 H                     0.085689
     40 H                     0.085849
     41 H                     0.220006
     42 H                     0.114208
     43 H                     0.112210
     44 H                     0.192666
  ----------------------------------------
  Sum of atomic charges =     0.000000

                    Cartesian Multipole Moments
 -----------------------------------------------------------------
    Charge (ESU x 10^10)
                 0.0000
    Dipole Moment (Debye)
         X       4.2326      Y       4.9594      Z       3.1162
       Tot       7.2264
    Quadrupole Moments (Debye-Ang)
        XX    -171.9923     XY       6.6058     YY    -194.3726
        XZ      -9.8675     YZ      -6.6708     ZZ    -202.3800

 Total job time:  328.43s(wall), 10699.65s(cpu)
        *  Thank you very much for using Q-Chem.  Have a nice day.  *
