 Q-Chem 5.4, Q-Chem, Inc., Pleasanton, CA (2021)
 Q-Chem 5.4.0 for Intel X86 EM64T Linux

User input:
--------------------------------------------------------------
$molecule
0 1
C	0.255929	-8.519741	-0.092419
C	-0.666007	-7.635967	0.449364
S	1.592708	-7.651740	-0.885736
C	-0.332317	-6.261894	0.254813
H	-1.571741	-7.954738	0.980526
C	0.904324	-6.079985	-0.458965
C	1.385968	-4.798382	-0.767823
C	-1.118303	-5.153542	0.681909
C	-0.638514	-3.869626	0.369139
C	0.600871	-3.688927	-0.342916
O	-2.248132	-5.481075	1.368544
O	2.520275	-4.479871	-1.458570
C	3.639637	-5.356026	-1.405396
H	4.495304	-4.790496	-1.820940
H	3.490336	-6.268513	-2.023129
H	3.873314	-5.658187	-0.361595
C	-3.314934	-4.546999	1.480048
H	-4.171837	-5.107564	1.899255
H	-3.601473	-4.131473	0.490123
H	-3.068969	-3.712085	2.171521
C	0.930308	-2.314326	-0.537642
S	-1.334769	-2.295487	0.785807
C	-0.000000	-1.435180	-0.000000
H	1.836691	-1.993211	-1.066134
C	0.000000	0.000000	0.000000
S	0.579852	0.687566	1.510732
C	1.591625	1.895024	0.727629
C	0.583771	0.695758	-1.064665
C	1.475308	1.760606	-0.678287
C	0.542366	0.643841	-2.486150
C	1.355286	1.612843	-3.106916
S	2.154609	2.570627	-1.965735
C	1.522440	1.804778	-4.559972
O	0.924684	1.087757	-5.350277
O	2.349739	2.785679	-5.004375
F	-0.170780	-0.212144	-3.246290
C	2.588082	3.053936	-6.334976
H	3.298799	3.899999	-6.370268
H	1.655291	3.328371	-6.875609
H	3.026021	2.177385	-6.861878
H	2.183053	2.599759	1.321510
H	-0.202590	-9.146471	-0.866272
H	0.707539	-9.150570	0.682165
H	-0.547293	-1.444158	-0.931016
$end

$rem
JOBTYPE		SP
EXCHANGE	HF
CORRELATION	pRIMP2
BASIS		cc-pvtz
METHOD		rimp2
AUX_BASIS	rimp2-cc-pvtz
SOLVENT_METHOD	PCM
PURECART	11111
SYMMETRY	false
MEM_TOTAL	110000
SCF_CONVERGENCE = 6
THRESH=10
GUI = 2
$end

$solvent
dielectric 4.90
$end
--------------------------------------------------------------

             Standard Nuclear Orientation (Angstroms)
    I     Atom           X                Y                Z
 ----------------------------------------------------------------
    1      C       0.2559290000    -8.5197410000    -0.0924190000
    2      C      -0.6660070000    -7.6359670000     0.4493640000
    3      S       1.5927080000    -7.6517400000    -0.8857360000
    4      C      -0.3323170000    -6.2618940000     0.2548130000
    5      H      -1.5717410000    -7.9547380000     0.9805260000
    6      C       0.9043240000    -6.0799850000    -0.4589650000
    7      C       1.3859680000    -4.7983820000    -0.7678230000
    8      C      -1.1183030000    -5.1535420000     0.6819090000
    9      C      -0.6385140000    -3.8696260000     0.3691390000
   10      C       0.6008710000    -3.6889270000    -0.3429160000
   11      O      -2.2481320000    -5.4810750000     1.3685440000
   12      O       2.5202750000    -4.4798710000    -1.4585700000
   13      C       3.6396370000    -5.3560260000    -1.4053960000
   14      H       4.4953040000    -4.7904960000    -1.8209400000
   15      H       3.4903360000    -6.2685130000    -2.0231290000
   16      H       3.8733140000    -5.6581870000    -0.3615950000
   17      C      -3.3149340000    -4.5469990000     1.4800480000
   18      H      -4.1718370000    -5.1075640000     1.8992550000
   19      H      -3.6014730000    -4.1314730000     0.4901230000
   20      H      -3.0689690000    -3.7120850000     2.1715210000
   21      C       0.9303080000    -2.3143260000    -0.5376420000
   22      S      -1.3347690000    -2.2954870000     0.7858070000
   23      C       0.0000000000    -1.4351800000     0.0000000000
   24      H       1.8366910000    -1.9932110000    -1.0661340000
   25      C       0.0000000000     0.0000000000     0.0000000000
   26      S       0.5798520000     0.6875660000     1.5107320000
   27      C       1.5916250000     1.8950240000     0.7276290000
   28      C       0.5837710000     0.6957580000    -1.0646650000
   29      C       1.4753080000     1.7606060000    -0.6782870000
   30      C       0.5423660000     0.6438410000    -2.4861500000
   31      C       1.3552860000     1.6128430000    -3.1069160000
   32      S       2.1546090000     2.5706270000    -1.9657350000
   33      C       1.5224400000     1.8047780000    -4.5599720000
   34      O       0.9246840000     1.0877570000    -5.3502770000
   35      O       2.3497390000     2.7856790000    -5.0043750000
   36      F      -0.1707800000    -0.2121440000    -3.2462900000
   37      C       2.5880820000     3.0539360000    -6.3349760000
   38      H       3.2987990000     3.8999990000    -6.3702680000
   39      H       1.6552910000     3.3283710000    -6.8756090000
   40      H       3.0260210000     2.1773850000    -6.8618780000
   41      H       2.1830530000     2.5997590000     1.3215100000
   42      H      -0.2025900000    -9.1464710000    -0.8662720000
   43      H       0.7075390000    -9.1505700000     0.6821650000
   44      H      -0.5472930000    -1.4441580000    -0.9310160000
 ----------------------------------------------------------------

   11   -2755.3009997061      6.73e-07  Convergence criterion met
 Total energy in the final basis set =    -2755.3009997061
        RIMP2         total energy =     -2760.4022119317 a.u.

                    Orbital Energies (a.u.)
 --------------------------------------------------------------

 Alpha MOs
 -- Occupied --
-92.0119 -92.0017 -91.9747 -91.9571 -26.3386 -20.6151 -20.5866 -20.5856
-20.5549 -11.4146 -11.3795 -11.3091 -11.3083 -11.3065 -11.3050 -11.3003
-11.2974 -11.2910 -11.2901 -11.2834 -11.2823 -11.2814 -11.2774 -11.2720
-11.2714 -11.2570 -11.2560 -11.2485 -11.2345  -9.0110  -9.0055  -8.9770
 -8.9597  -6.6917  -6.6909  -6.6906  -6.6867  -6.6860  -6.6847  -6.6581
 -6.6572  -6.6560  -6.6409  -6.6400  -6.6390  -1.6517  -1.4751  -1.4092
 -1.4081  -1.3709  -1.2433  -1.2073  -1.1743  -1.1452  -1.0989  -1.0542
 -1.0446  -1.0316  -1.0076  -0.9964  -0.9744  -0.9593  -0.9482  -0.9413
 -0.8924  -0.8759  -0.8604  -0.8082  -0.7962  -0.7844  -0.7802  -0.7727
 -0.7606  -0.7335  -0.7209  -0.7184  -0.6975  -0.6931  -0.6862  -0.6812
 -0.6768  -0.6739  -0.6548  -0.6478  -0.6344  -0.6264  -0.6189  -0.6144
 -0.6110  -0.6098  -0.6003  -0.5942  -0.5810  -0.5668  -0.5568  -0.5557
 -0.5446  -0.5326  -0.5286  -0.5227  -0.5118  -0.5068  -0.5047  -0.5008
 -0.4894  -0.4838  -0.4717  -0.4686  -0.4645  -0.4637  -0.4586  -0.4448
 -0.4214  -0.4021  -0.3834  -0.3688  -0.3509  -0.2974  -0.2878  -0.2179

          Ground-State Mulliken Net Atomic Charges

     Atom                 Charge (a.u.)
  ----------------------------------------
      1 C                    -0.069893
      2 C                    -0.266116
      3 S                    -0.137542
      4 C                    -0.044204
      5 H                     0.192557
      6 C                    -0.053242
      7 C                     0.223580
      8 C                     0.226890
      9 C                    -0.074568
     10 C                    -0.040202
     11 O                    -0.335514
     12 O                    -0.343544
     13 C                    -0.082505
     14 H                     0.119641
     15 H                     0.092187
     16 H                     0.092493
     17 C                    -0.086974
     18 H                     0.123247
     19 H                     0.092331
     20 H                     0.089831
     21 C                    -0.291662
     22 S                    -0.086699
     23 C                     0.076533
     24 H                     0.207301
     25 C                    -0.095152
     26 S                     0.107290
     27 C                    -0.194512
     28 C                    -0.121318
     29 C                    -0.010142
     30 C                     0.386496
     31 C                    -0.131851
     32 S                     0.057758
     33 C                     0.459405
     34 O                    -0.443535
     35 O                    -0.297192
     36 F                    -0.213510
     37 C                    -0.054716
     38 H                     0.117281
     39 H                     0.085407
     40 H                     0.085334
     41 H                     0.217089
     42 H                     0.116619
     43 H                     0.114072
     44 H                     0.191252
  ----------------------------------------
  Sum of atomic charges =     0.000000

                    Cartesian Multipole Moments
 -----------------------------------------------------------------
    Charge (ESU x 10^10)
                 0.0000
    Dipole Moment (Debye)
         X       2.6718      Y       4.0652      Z       2.3006
       Tot       5.3812
    Quadrupole Moments (Debye-Ang)
        XX    -176.2556     XY      12.0942     YY    -183.1336
        XZ     -11.2650     YZ     -10.8977     ZZ    -203.7083

 Total job time:  329.51s(wall), 10803.86s(cpu)
        *  Thank you very much for using Q-Chem.  Have a nice day.  *
