 Q-Chem 5.4, Q-Chem, Inc., Pleasanton, CA (2021)
 Q-Chem 5.4.0 for Intel X86 EM64T Linux

User input:
--------------------------------------------------------------
$molecule
0 1
C	-0.208002	-8.519741	-0.175432
C	0.722164	-7.635967	0.352097
S	-1.563424	-7.651740	-0.936458
C	0.386833	-6.261894	0.160388
H	1.635031	-7.954738	0.870905
C	-0.849637	-6.079985	-0.553685
C	-1.357938	-4.798382	-0.816372
C	1.149702	-5.153542	0.627524
C	0.638941	-3.869626	0.368399
C	-0.597409	-3.688927	-0.348912
O	2.309260	-5.481075	1.262667
O	-2.523296	-4.479871	-1.453338
C	-3.036927	-5.356026	-2.449320
H	-3.824632	-4.790496	-2.982577
H	-3.497250	-6.268513	-2.011155
H	-2.249807	-5.658187	-3.173591
C	2.939226	-4.546999	2.130793
H	3.730721	-5.107564	2.663289
H	2.225196	-4.131473	2.873906
H	3.415077	-3.712085	1.572045
C	-0.930765	-2.314326	-0.536849
S	1.347913	-2.295487	0.763041
C	-0.000000	-1.435180	-0.000000
H	-1.841645	-1.993211	-1.057554
C	0.000000	0.000000	0.000000
S	0.158383	0.885376	1.510732
C	0.430876	2.436951	0.727629
C	0.157682	0.894430	-1.064665
C	0.397351	2.262384	-0.678287
C	0.147783	0.828765	-2.486150
C	0.367291	2.074406	-3.106916
S	0.580633	3.303533	-1.965735
C	0.416083	2.324204	-4.559972
O	0.256921	1.404367	-5.350277
O	0.642094	3.587338	-5.004375
F	-0.041828	-0.269113	-3.246290
C	0.714377	3.938827	-6.334976
H	0.906844	5.026898	-6.370268
H	-0.230661	3.710099	-6.875609
H	1.531918	3.398681	-6.861878
H	0.590699	3.342984	1.321510
H	-0.648918	-9.146471	0.608584
H	0.237003	-9.150570	-0.953830
H	-0.532637	-1.444158	0.939477
$end

$rem
JOBTYPE		SP
EXCHANGE	HF
CORRELATION	pRIMP2
BASIS		cc-pvtz
METHOD		rimp2
AUX_BASIS	rimp2-cc-pvtz
SOLVENT_METHOD	PCM
PURECART	11111
SYMMETRY	false
MEM_TOTAL	110000
SCF_CONVERGENCE = 6
THRESH=10
GUI = 2
$end

$solvent
dielectric 4.90
$end
--------------------------------------------------------------

             Standard Nuclear Orientation (Angstroms)
    I     Atom           X                Y                Z
 ----------------------------------------------------------------
    1      C      -0.2080020000    -8.5197410000    -0.1754320000
    2      C       0.7221640000    -7.6359670000     0.3520970000
    3      S      -1.5634240000    -7.6517400000    -0.9364580000
    4      C       0.3868330000    -6.2618940000     0.1603880000
    5      H       1.6350310000    -7.9547380000     0.8709050000
    6      C      -0.8496370000    -6.0799850000    -0.5536850000
    7      C      -1.3579380000    -4.7983820000    -0.8163720000
    8      C       1.1497020000    -5.1535420000     0.6275240000
    9      C       0.6389410000    -3.8696260000     0.3683990000
   10      C      -0.5974090000    -3.6889270000    -0.3489120000
   11      O       2.3092600000    -5.4810750000     1.2626670000
   12      O      -2.5232960000    -4.4798710000    -1.4533380000
   13      C      -3.0369270000    -5.3560260000    -2.4493200000
   14      H      -3.8246320000    -4.7904960000    -2.9825770000
   15      H      -3.4972500000    -6.2685130000    -2.0111550000
   16      H      -2.2498070000    -5.6581870000    -3.1735910000
   17      C       2.9392260000    -4.5469990000     2.1307930000
   18      H       3.7307210000    -5.1075640000     2.6632890000
   19      H       2.2251960000    -4.1314730000     2.8739060000
   20      H       3.4150770000    -3.7120850000     1.5720450000
   21      C      -0.9307650000    -2.3143260000    -0.5368490000
   22      S       1.3479130000    -2.2954870000     0.7630410000
   23      C       0.0000000000    -1.4351800000     0.0000000000
   24      H      -1.8416450000    -1.9932110000    -1.0575540000
   25      C       0.0000000000     0.0000000000     0.0000000000
   26      S       0.1583830000     0.8853760000     1.5107320000
   27      C       0.4308760000     2.4369510000     0.7276290000
   28      C       0.1576820000     0.8944300000    -1.0646650000
   29      C       0.3973510000     2.2623840000    -0.6782870000
   30      C       0.1477830000     0.8287650000    -2.4861500000
   31      C       0.3672910000     2.0744060000    -3.1069160000
   32      S       0.5806330000     3.3035330000    -1.9657350000
   33      C       0.4160830000     2.3242040000    -4.5599720000
   34      O       0.2569210000     1.4043670000    -5.3502770000
   35      O       0.6420940000     3.5873380000    -5.0043750000
   36      F      -0.0418280000    -0.2691130000    -3.2462900000
   37      C       0.7143770000     3.9388270000    -6.3349760000
   38      H       0.9068440000     5.0268980000    -6.3702680000
   39      H      -0.2306610000     3.7100990000    -6.8756090000
   40      H       1.5319180000     3.3986810000    -6.8618780000
   41      H       0.5906990000     3.3429840000     1.3215100000
   42      H      -0.6489180000    -9.1464710000     0.6085840000
   43      H       0.2370030000    -9.1505700000    -0.9538300000
   44      H      -0.5326370000    -1.4441580000     0.9394770000
 ----------------------------------------------------------------

   11   -2755.3252383590      7.75e-07  Convergence criterion met
 Total energy in the final basis set =    -2755.3252383590
        RIMP2         total energy =     -2760.4157351785 a.u.

                    Orbital Energies (a.u.)
 --------------------------------------------------------------

 Alpha MOs
 -- Occupied --
-92.0183 -91.9951 -91.9790 -91.9579 -26.3360 -20.6127 -20.5870 -20.5867
-20.5508 -11.4110 -11.3781 -11.3136 -11.3089 -11.3074 -11.2985 -11.2975
-11.2954 -11.2888 -11.2848 -11.2834 -11.2821 -11.2816 -11.2808 -11.2727
-11.2727 -11.2581 -11.2578 -11.2493 -11.2365  -9.0167  -8.9992  -8.9812
 -8.9605  -6.6974  -6.6969  -6.6964  -6.6805  -6.6798  -6.6785  -6.6623
 -6.6614  -6.6601  -6.6417  -6.6408  -6.6398  -1.6489  -1.4724  -1.4104
 -1.4085  -1.3678  -1.2380  -1.2094  -1.1753  -1.1441  -1.0993  -1.0501
 -1.0460  -1.0308  -1.0088  -0.9979  -0.9726  -0.9597  -0.9486  -0.9403
 -0.8936  -0.8716  -0.8646  -0.8077  -0.7951  -0.7853  -0.7779  -0.7728
 -0.7652  -0.7329  -0.7217  -0.7169  -0.6973  -0.6924  -0.6818  -0.6790
 -0.6726  -0.6648  -0.6563  -0.6483  -0.6340  -0.6304  -0.6197  -0.6145
 -0.6110  -0.6070  -0.5955  -0.5927  -0.5810  -0.5665  -0.5587  -0.5526
 -0.5489  -0.5363  -0.5296  -0.5228  -0.5135  -0.5075  -0.5040  -0.5008
 -0.4873  -0.4854  -0.4782  -0.4718  -0.4623  -0.4617  -0.4604  -0.4459
 -0.4254  -0.4019  -0.3854  -0.3703  -0.3513  -0.2929  -0.2876  -0.2199

          Ground-State Mulliken Net Atomic Charges

     Atom                 Charge (a.u.)
  ----------------------------------------
      1 C                    -0.070162
      2 C                    -0.260663
      3 S                    -0.135334
      4 C                    -0.043665
      5 H                     0.193236
      6 C                    -0.051535
      7 C                     0.225653
      8 C                     0.224540
      9 C                    -0.077053
     10 C                    -0.055421
     11 O                    -0.334645
     12 O                    -0.343576
     13 C                    -0.082303
     14 H                     0.120198
     15 H                     0.091500
     16 H                     0.093398
     17 C                    -0.087035
     18 H                     0.123347
     19 H                     0.091903
     20 H                     0.090238
     21 C                    -0.248068
     22 S                    -0.070291
     23 C                     0.067753
     24 H                     0.206171
     25 C                    -0.103372
     26 S                     0.098624
     27 C                    -0.236577
     28 C                    -0.059110
     29 C                    -0.005678
     30 C                     0.382803
     31 C                    -0.150502
     32 S                     0.037510
     33 C                     0.459692
     34 O                    -0.449442
     35 O                    -0.297668
     36 F                    -0.212350
     37 C                    -0.055039
     38 H                     0.116682
     39 H                     0.084591
     40 H                     0.084754
     41 H                     0.216354
     42 H                     0.117097
     43 H                     0.115035
     44 H                     0.188407
  ----------------------------------------
  Sum of atomic charges =     0.000000

                    Cartesian Multipole Moments
 -----------------------------------------------------------------
    Charge (ESU x 10^10)
                -0.0000
    Dipole Moment (Debye)
         X       0.4419      Y       3.5740      Z       3.7761
       Tot       5.2180
    Quadrupole Moments (Debye-Ang)
        XX    -192.9970     XY      -0.4952     YY    -175.0833
        XZ       7.3035     YZ     -12.3703     ZZ    -195.5892

 Total job time:  331.54s(wall), 10425.29s(cpu)
        *  Thank you very much for using Q-Chem.  Have a nice day.  *
