 Q-Chem 5.4, Q-Chem, Inc., Pleasanton, CA (2021)
 Q-Chem 5.4.0 for Intel X86 EM64T Linux

User input:
--------------------------------------------------------------
$molecule
0 1
C	0.268090	-8.519741	-0.046574
C	-0.733920	-7.635967	0.326886
S	1.722318	-7.651740	-0.595708
C	-0.371516	-6.261894	0.193236
H	-1.718130	-7.954738	0.692700
C	0.970283	-6.079985	-0.294958
C	1.498243	-4.798382	-0.515487
C	-1.219725	-5.153542	0.477358
C	-0.692914	-3.869626	0.252655
C	0.651289	-3.688927	-0.233366
O	-2.451623	-5.481075	0.957369
O	2.735264	-4.479871	-0.998769
C	3.828387	-5.356026	-0.752029
H	4.743213	-4.790496	-1.012675
H	3.788623	-6.268513	-1.386303
H	3.877260	-5.658187	0.316492
C	-3.521580	-4.546999	0.881930
H	-4.438260	-5.107564	1.145969
H	-3.631868	-4.131473	-0.142712
H	-3.399425	-3.712085	1.605610
C	1.009535	-2.314326	-0.367928
S	-1.450945	-2.295487	0.542088
C	0.000000	-1.435180	0.000000
H	1.993920	-1.993211	-0.730999
C	0.000000	0.000000	0.000000
S	0.780044	0.447780	1.510732
C	2.143774	1.236372	0.727629
C	0.786529	0.454137	-1.064665
C	1.988499	1.149844	-0.678287
C	0.729864	0.419512	-2.486150
C	1.825177	1.052041	-3.106916
S	2.903877	1.678680	-1.965735
C	2.047896	1.175232	-4.559972
O	1.240953	0.705897	-5.350277
O	3.160791	1.814024	-5.004375
F	-0.233039	-0.140940	-3.246290
C	3.476510	1.984585	-6.334976
H	4.433735	2.536545	-6.370268
H	2.693835	2.561503	-6.875609
H	3.588239	1.011113	-6.861878
H	2.940569	1.696327	1.321510
H	-0.049086	-9.146471	-0.888291
H	0.578334	-9.150570	0.794665
H	-0.377309	-1.444158	-1.011908
$end

$rem
JOBTYPE		SP
EXCHANGE	HF
CORRELATION	pRIMP2
BASIS		cc-pvtz
METHOD		rimp2
AUX_BASIS	rimp2-cc-pvtz
SOLVENT_METHOD	PCM
PURECART	11111
SYMMETRY	false
MEM_TOTAL	110000
SCF_CONVERGENCE = 6
THRESH=10
GUI = 2
$end

$solvent
dielectric 4.90
$end
--------------------------------------------------------------

             Standard Nuclear Orientation (Angstroms)
    I     Atom           X                Y                Z
 ----------------------------------------------------------------
    1      C       0.2680900000    -8.5197410000    -0.0465740000
    2      C      -0.7339200000    -7.6359670000     0.3268860000
    3      S       1.7223180000    -7.6517400000    -0.5957080000
    4      C      -0.3715160000    -6.2618940000     0.1932360000
    5      H      -1.7181300000    -7.9547380000     0.6927000000
    6      C       0.9702830000    -6.0799850000    -0.2949580000
    7      C       1.4982430000    -4.7983820000    -0.5154870000
    8      C      -1.2197250000    -5.1535420000     0.4773580000
    9      C      -0.6929140000    -3.8696260000     0.2526550000
   10      C       0.6512890000    -3.6889270000    -0.2333660000
   11      O      -2.4516230000    -5.4810750000     0.9573690000
   12      O       2.7352640000    -4.4798710000    -0.9987690000
   13      C       3.8283870000    -5.3560260000    -0.7520290000
   14      H       4.7432130000    -4.7904960000    -1.0126750000
   15      H       3.7886230000    -6.2685130000    -1.3863030000
   16      H       3.8772600000    -5.6581870000     0.3164920000
   17      C      -3.5215800000    -4.5469990000     0.8819300000
   18      H      -4.4382600000    -5.1075640000     1.1459690000
   19      H      -3.6318680000    -4.1314730000    -0.1427120000
   20      H      -3.3994250000    -3.7120850000     1.6056100000
   21      C       1.0095350000    -2.3143260000    -0.3679280000
   22      S      -1.4509450000    -2.2954870000     0.5420880000
   23      C       0.0000000000    -1.4351800000     0.0000000000
   24      H       1.9939200000    -1.9932110000    -0.7309990000
   25      C       0.0000000000     0.0000000000     0.0000000000
   26      S       0.7800440000     0.4477800000     1.5107320000
   27      C       2.1437740000     1.2363720000     0.7276290000
   28      C       0.7865290000     0.4541370000    -1.0646650000
   29      C       1.9884990000     1.1498440000    -0.6782870000
   30      C       0.7298640000     0.4195120000    -2.4861500000
   31      C       1.8251770000     1.0520410000    -3.1069160000
   32      S       2.9038770000     1.6786800000    -1.9657350000
   33      C       2.0478960000     1.1752320000    -4.5599720000
   34      O       1.2409530000     0.7058970000    -5.3502770000
   35      O       3.1607910000     1.8140240000    -5.0043750000
   36      F      -0.2330390000    -0.1409400000    -3.2462900000
   37      C       3.4765100000     1.9845850000    -6.3349760000
   38      H       4.4337350000     2.5365450000    -6.3702680000
   39      H       2.6938350000     2.5615030000    -6.8756090000
   40      H       3.5882390000     1.0111130000    -6.8618780000
   41      H       2.9405690000     1.6963270000     1.3215100000
   42      H      -0.0490860000    -9.1464710000    -0.8882910000
   43      H       0.5783340000    -9.1505700000     0.7946650000
   44      H      -0.3773090000    -1.4441580000    -1.0119080000
 ----------------------------------------------------------------

   11   -2755.2653022023      7.44e-07  Convergence criterion met
 Total energy in the final basis set =    -2755.2653022023
        RIMP2         total energy =     -2760.3750956249 a.u.

                    Orbital Energies (a.u.)
 --------------------------------------------------------------

 Alpha MOs
 -- Occupied --
-92.0117 -92.0095 -91.9684 -91.9560 -26.3387 -20.6176 -20.5862 -20.5833
-20.5594 -11.4185 -11.3793 -11.3287 -11.3160 -11.3073 -11.3033 -11.3015
-11.2981 -11.2914 -11.2823 -11.2817 -11.2785 -11.2734 -11.2722 -11.2699
-11.2688 -11.2555 -11.2535 -11.2473 -11.2317  -9.0129  -9.0113  -8.9707
 -8.9587  -6.6941  -6.6935  -6.6922  -6.6919  -6.6909  -6.6909  -6.6518
 -6.6510  -6.6498  -6.6399  -6.6390  -6.6379  -1.6518  -1.4779  -1.4083
 -1.4064  -1.3743  -1.2509  -1.2057  -1.1742  -1.1474  -1.0984  -1.0571
 -1.0426  -1.0350  -1.0059  -0.9941  -0.9771  -0.9591  -0.9477  -0.9409
 -0.8907  -0.8794  -0.8568  -0.8097  -0.7988  -0.7838  -0.7822  -0.7713
 -0.7583  -0.7339  -0.7217  -0.7170  -0.6982  -0.6934  -0.6857  -0.6833
 -0.6802  -0.6746  -0.6536  -0.6467  -0.6346  -0.6262  -0.6178  -0.6147
 -0.6134  -0.6103  -0.6049  -0.5937  -0.5777  -0.5666  -0.5565  -0.5546
 -0.5443  -0.5336  -0.5259  -0.5226  -0.5109  -0.5064  -0.5048  -0.4992
 -0.4927  -0.4826  -0.4696  -0.4665  -0.4651  -0.4643  -0.4546  -0.4426
 -0.4154  -0.4006  -0.3802  -0.3676  -0.3505  -0.3067  -0.2859  -0.2163

          Ground-State Mulliken Net Atomic Charges

     Atom                 Charge (a.u.)
  ----------------------------------------
      1 C                    -0.069160
      2 C                    -0.273738
      3 S                    -0.140510
      4 C                    -0.040304
      5 H                     0.191670
      6 C                    -0.052127
      7 C                     0.223603
      8 C                     0.220421
      9 C                    -0.074461
     10 C                    -0.048883
     11 O                    -0.336592
     12 O                    -0.344635
     13 C                    -0.082732
     14 H                     0.118909
     15 H                     0.092392
     16 H                     0.092462
     17 C                    -0.086592
     18 H                     0.122442
     19 H                     0.091692
     20 H                     0.090061
     21 C                    -0.283152
     22 S                    -0.110044
     23 C                     0.093813
     24 H                     0.205917
     25 C                    -0.206616
     26 S                     0.112555
     27 C                    -0.135990
     28 C                    -0.071537
     29 C                    -0.025873
     30 C                     0.383058
     31 C                    -0.115750
     32 S                     0.082044
     33 C                     0.458486
     34 O                    -0.435884
     35 O                    -0.296247
     36 F                    -0.211916
     37 C                    -0.054719
     38 H                     0.117851
     39 H                     0.086180
     40 H                     0.086280
     41 H                     0.221518
     42 H                     0.115560
     43 H                     0.113012
     44 H                     0.177534
  ----------------------------------------
  Sum of atomic charges =     0.000000

                    Cartesian Multipole Moments
 -----------------------------------------------------------------
    Charge (ESU x 10^10)
                 0.0000
    Dipole Moment (Debye)
         X       5.1687      Y       4.3243      Z       1.7950
       Tot       6.9741
    Quadrupole Moments (Debye-Ang)
        XX    -167.5752     XY      12.3635     YY    -193.1592
        XZ     -11.7246     YZ      -7.6498     ZZ    -201.5668

 Total job time:  337.93s(wall), 10954.34s(cpu)
        *  Thank you very much for using Q-Chem.  Have a nice day.  *
