 Q-Chem 5.4, Q-Chem, Inc., Pleasanton, CA (2021)
 Q-Chem 5.4.0 for Intel X86 EM64T Linux

User input:
--------------------------------------------------------------
$molecule
0 1
C	-0.267851	-8.519741	-0.047927
C	0.801461	-7.635967	-0.056157
S	-1.822194	-7.651740	-0.029285
C	0.415201	-6.261894	-0.054516
H	1.851431	-7.954738	-0.063290
C	-1.012650	-6.079985	-0.054687
C	-1.584194	-4.798382	-0.028030
C	1.309433	-5.153542	-0.031399
C	0.737539	-3.869626	-0.000427
C	-0.691828	-3.688927	-0.003462
O	2.631211	-5.481075	-0.061128
O	-2.911907	-4.479871	0.003021
C	-3.854716	-5.356026	-0.602710
H	-4.803517	-4.790496	-0.670671
H	-4.034285	-6.268513	0.006913
H	-3.535185	-5.658187	-1.623507
C	3.610841	-4.546999	0.375708
H	4.562544	-5.107564	0.441115
H	3.364029	-4.131473	1.376277
H	3.743566	-3.712085	-0.346107
C	-1.074491	-2.314326	0.000458
S	1.548848	-2.295487	-0.013144
C	0.000000	-1.435180	0.000000
H	-2.123688	-1.993211	0.004953
C	0.000000	0.000000	0.000000
S	0.780044	0.447780	1.510732
C	2.143774	1.236372	0.727629
C	0.786529	0.454137	-1.064665
C	1.988499	1.149844	-0.678287
C	0.729864	0.419512	-2.486150
C	1.825177	1.052041	-3.106916
S	2.903877	1.678680	-1.965735
C	2.047896	1.175232	-4.559972
O	1.240953	0.705897	-5.350277
O	3.160791	1.814024	-5.004375
F	-0.233039	-0.140940	-3.246290
C	3.476510	1.984585	-6.334976
H	4.433735	2.536545	-6.370268
H	2.693835	2.561503	-6.875609
H	3.588239	1.011113	-6.861878
H	2.940569	1.696327	1.321510
H	-0.257688	-9.146471	0.851509
H	-0.271664	-9.150570	-0.944542
H	0.008462	-1.444158	1.079930
$end

$rem
JOBTYPE		SP
EXCHANGE	HF
CORRELATION	pRIMP2
BASIS		cc-pvtz
METHOD		rimp2
AUX_BASIS	rimp2-cc-pvtz
SOLVENT_METHOD	PCM
PURECART	11111
SYMMETRY	false
MEM_TOTAL	110000
SCF_CONVERGENCE = 6
THRESH=10
GUI = 2
$end

$solvent
dielectric 4.90
$end
--------------------------------------------------------------

             Standard Nuclear Orientation (Angstroms)
    I     Atom           X                Y                Z
 ----------------------------------------------------------------
    1      C      -0.2678510000    -8.5197410000    -0.0479270000
    2      C       0.8014610000    -7.6359670000    -0.0561570000
    3      S      -1.8221940000    -7.6517400000    -0.0292850000
    4      C       0.4152010000    -6.2618940000    -0.0545160000
    5      H       1.8514310000    -7.9547380000    -0.0632900000
    6      C      -1.0126500000    -6.0799850000    -0.0546870000
    7      C      -1.5841940000    -4.7983820000    -0.0280300000
    8      C       1.3094330000    -5.1535420000    -0.0313990000
    9      C       0.7375390000    -3.8696260000    -0.0004270000
   10      C      -0.6918280000    -3.6889270000    -0.0034620000
   11      O       2.6312110000    -5.4810750000    -0.0611280000
   12      O      -2.9119070000    -4.4798710000     0.0030210000
   13      C      -3.8547160000    -5.3560260000    -0.6027100000
   14      H      -4.8035170000    -4.7904960000    -0.6706710000
   15      H      -4.0342850000    -6.2685130000     0.0069130000
   16      H      -3.5351850000    -5.6581870000    -1.6235070000
   17      C       3.6108410000    -4.5469990000     0.3757080000
   18      H       4.5625440000    -5.1075640000     0.4411150000
   19      H       3.3640290000    -4.1314730000     1.3762770000
   20      H       3.7435660000    -3.7120850000    -0.3461070000
   21      C      -1.0744910000    -2.3143260000     0.0004580000
   22      S       1.5488480000    -2.2954870000    -0.0131440000
   23      C       0.0000000000    -1.4351800000     0.0000000000
   24      H      -2.1236880000    -1.9932110000     0.0049530000
   25      C       0.0000000000     0.0000000000     0.0000000000
   26      S       0.7800440000     0.4477800000     1.5107320000
   27      C       2.1437740000     1.2363720000     0.7276290000
   28      C       0.7865290000     0.4541370000    -1.0646650000
   29      C       1.9884990000     1.1498440000    -0.6782870000
   30      C       0.7298640000     0.4195120000    -2.4861500000
   31      C       1.8251770000     1.0520410000    -3.1069160000
   32      S       2.9038770000     1.6786800000    -1.9657350000
   33      C       2.0478960000     1.1752320000    -4.5599720000
   34      O       1.2409530000     0.7058970000    -5.3502770000
   35      O       3.1607910000     1.8140240000    -5.0043750000
   36      F      -0.2330390000    -0.1409400000    -3.2462900000
   37      C       3.4765100000     1.9845850000    -6.3349760000
   38      H       4.4337350000     2.5365450000    -6.3702680000
   39      H       2.6938350000     2.5615030000    -6.8756090000
   40      H       3.5882390000     1.0111130000    -6.8618780000
   41      H       2.9405690000     1.6963270000     1.3215100000
   42      H      -0.2576880000    -9.1464710000     0.8515090000
   43      H      -0.2716640000    -9.1505700000    -0.9445420000
   44      H       0.0084620000    -1.4441580000     1.0799300000
 ----------------------------------------------------------------

   11   -2755.2525866324      7.73e-07  Convergence criterion met
 Total energy in the final basis set =    -2755.2525866324
        RIMP2         total energy =     -2760.3634475463 a.u.

                    Orbital Energies (a.u.)
 --------------------------------------------------------------

 Alpha MOs
 -- Occupied --
-92.0157 -92.0078 -91.9699 -91.9538 -26.3353 -20.6170 -20.5850 -20.5837
-20.5590 -11.4179 -11.3763 -11.3297 -11.3157 -11.3065 -11.3016 -11.3011
-11.2953 -11.2910 -11.2829 -11.2809 -11.2796 -11.2718 -11.2709 -11.2682
-11.2660 -11.2546 -11.2475 -11.2456 -11.2286  -9.0155  -9.0113  -8.9728
 -8.9565  -6.6960  -6.6950  -6.6949  -6.6924  -6.6918  -6.6906  -6.6539
 -6.6530  -6.6517  -6.6377  -6.6368  -6.6358  -1.6484  -1.4774  -1.4074
 -1.4063  -1.3737  -1.2506  -1.2068  -1.1736  -1.1470  -1.0956  -1.0559
 -1.0416  -1.0369  -1.0056  -0.9931  -0.9777  -0.9594  -0.9462  -0.9393
 -0.8901  -0.8788  -0.8563  -0.8102  -0.7971  -0.7826  -0.7814  -0.7715
 -0.7611  -0.7347  -0.7196  -0.7177  -0.6979  -0.6937  -0.6827  -0.6788
 -0.6778  -0.6657  -0.6536  -0.6463  -0.6309  -0.6296  -0.6162  -0.6134
 -0.6128  -0.6105  -0.6049  -0.5903  -0.5739  -0.5625  -0.5598  -0.5527
 -0.5402  -0.5348  -0.5299  -0.5217  -0.5104  -0.5067  -0.5049  -0.4978
 -0.4921  -0.4830  -0.4729  -0.4688  -0.4653  -0.4607  -0.4574  -0.4428
 -0.4184  -0.4003  -0.3826  -0.3666  -0.3447  -0.3052  -0.2855  -0.2149

          Ground-State Mulliken Net Atomic Charges

     Atom                 Charge (a.u.)
  ----------------------------------------
      1 C                    -0.068947
      2 C                    -0.282078
      3 S                    -0.145355
      4 C                    -0.041769
      5 H                     0.190208
      6 C                    -0.059033
      7 C                     0.229289
      8 C                     0.221603
      9 C                    -0.073676
     10 C                    -0.057973
     11 O                    -0.335577
     12 O                    -0.342797
     13 C                    -0.082288
     14 H                     0.119249
     15 H                     0.091414
     16 H                     0.092876
     17 C                    -0.086383
     18 H                     0.122623
     19 H                     0.090149
     20 H                     0.088992
     21 C                    -0.272863
     22 S                    -0.106268
     23 C                     0.037066
     24 H                     0.204517
     25 C                    -0.168060
     26 S                     0.119969
     27 C                    -0.133382
     28 C                    -0.039361
     29 C                    -0.032829
     30 C                     0.373866
     31 C                    -0.119472
     32 S                     0.078434
     33 C                     0.457636
     34 O                    -0.435206
     35 O                    -0.296047
     36 F                    -0.209632
     37 C                    -0.054767
     38 H                     0.117695
     39 H                     0.086042
     40 H                     0.086277
     41 H                     0.222325
     42 H                     0.113732
     43 H                     0.111740
     44 H                     0.188065
  ----------------------------------------
  Sum of atomic charges =     0.000000

                    Cartesian Multipole Moments
 -----------------------------------------------------------------
    Charge (ESU x 10^10)
                 0.0000
    Dipole Moment (Debye)
         X       5.2651      Y       4.9916      Z       2.9718
       Tot       7.8402
    Quadrupole Moments (Debye-Ang)
        XX    -169.6526     XY       6.3257     YY    -199.3310
        XZ      -5.6835     YZ      -6.3158     ZZ    -198.9300

 Total job time:  338.11s(wall), 10888.83s(cpu)
        *  Thank you very much for using Q-Chem.  Have a nice day.  *
