 Q-Chem 5.4, Q-Chem, Inc., Pleasanton, CA (2021)
 Q-Chem 5.4.0 for Intel X86 EM64T Linux

User input:
--------------------------------------------------------------
$molecule
0 1
C	1.432238	-8.398629	0.267851
C	1.270668	-7.529711	-0.801461
S	1.299871	-7.540578	1.822194
C	1.033679	-6.176229	-0.415201
H	1.318997	-7.844878	-1.851431
C	1.001923	-5.997113	1.012650
C	0.805626	-4.730351	1.584194
C	0.863981	-5.080701	-1.309433
C	0.671533	-3.810912	-0.737539
C	0.637166	-3.633485	0.691828
O	0.891580	-5.408420	-2.631211
O	0.780896	-4.411287	2.911907
C	0.336511	-5.379315	3.854716
H	0.171379	-4.834178	4.803517
H	1.095324	-6.172080	4.034285
H	-0.616308	-5.854145	3.535185
C	1.159578	-4.412679	-3.610841
H	1.321333	-4.953370	-4.562544
H	2.072791	-3.829719	-3.364029
H	0.303747	-3.715791	-3.743566
C	0.402329	-2.279087	1.074491
S	0.385663	-2.262896	-1.548848
C	0.249216	-1.413377	-0.000000
H	0.350996	-1.962069	2.123688
C	0.000000	0.000000	0.000000
S	0.579852	0.687566	1.510732
C	1.591625	1.895024	0.727629
C	0.583771	0.695758	-1.064665
C	1.475308	1.760606	-0.678287
C	0.542366	0.643841	-2.486150
C	1.355286	1.612843	-3.106916
S	2.154609	2.570627	-1.965735
C	1.522440	1.804778	-4.559972
O	0.924684	1.087757	-5.350277
O	2.349739	2.785679	-5.004375
F	-0.170780	-0.212144	-3.246290
C	2.588082	3.053936	-6.334976
H	3.298799	3.899999	-6.370268
H	1.655291	3.328371	-6.875609
H	3.026021	2.177385	-6.861878
H	2.183053	2.599759	1.321510
H	2.426840	-8.859653	0.257688
H	0.658787	-9.175570	0.271664
H	1.314298	-1.234691	-0.008462
$end

$rem
JOBTYPE		SP
EXCHANGE	HF
CORRELATION	pRIMP2
BASIS		cc-pvtz
METHOD		rimp2
AUX_BASIS	rimp2-cc-pvtz
SOLVENT_METHOD	PCM
PURECART	11111
SYMMETRY	false
MEM_TOTAL	110000
SCF_CONVERGENCE = 6
THRESH=10
GUI = 2
$end

$solvent
dielectric 4.90
$end
--------------------------------------------------------------

             Standard Nuclear Orientation (Angstroms)
    I     Atom           X                Y                Z
 ----------------------------------------------------------------
    1      C       1.4322380000    -8.3986290000     0.2678510000
    2      C       1.2706680000    -7.5297110000    -0.8014610000
    3      S       1.2998710000    -7.5405780000     1.8221940000
    4      C       1.0336790000    -6.1762290000    -0.4152010000
    5      H       1.3189970000    -7.8448780000    -1.8514310000
    6      C       1.0019230000    -5.9971130000     1.0126500000
    7      C       0.8056260000    -4.7303510000     1.5841940000
    8      C       0.8639810000    -5.0807010000    -1.3094330000
    9      C       0.6715330000    -3.8109120000    -0.7375390000
   10      C       0.6371660000    -3.6334850000     0.6918280000
   11      O       0.8915800000    -5.4084200000    -2.6312110000
   12      O       0.7808960000    -4.4112870000     2.9119070000
   13      C       0.3365110000    -5.3793150000     3.8547160000
   14      H       0.1713790000    -4.8341780000     4.8035170000
   15      H       1.0953240000    -6.1720800000     4.0342850000
   16      H      -0.6163080000    -5.8541450000     3.5351850000
   17      C       1.1595780000    -4.4126790000    -3.6108410000
   18      H       1.3213330000    -4.9533700000    -4.5625440000
   19      H       2.0727910000    -3.8297190000    -3.3640290000
   20      H       0.3037470000    -3.7157910000    -3.7435660000
   21      C       0.4023290000    -2.2790870000     1.0744910000
   22      S       0.3856630000    -2.2628960000    -1.5488480000
   23      C       0.2492160000    -1.4133770000     0.0000000000
   24      H       0.3509960000    -1.9620690000     2.1236880000
   25      C       0.0000000000     0.0000000000     0.0000000000
   26      S       0.5798520000     0.6875660000     1.5107320000
   27      C       1.5916250000     1.8950240000     0.7276290000
   28      C       0.5837710000     0.6957580000    -1.0646650000
   29      C       1.4753080000     1.7606060000    -0.6782870000
   30      C       0.5423660000     0.6438410000    -2.4861500000
   31      C       1.3552860000     1.6128430000    -3.1069160000
   32      S       2.1546090000     2.5706270000    -1.9657350000
   33      C       1.5224400000     1.8047780000    -4.5599720000
   34      O       0.9246840000     1.0877570000    -5.3502770000
   35      O       2.3497390000     2.7856790000    -5.0043750000
   36      F      -0.1707800000    -0.2121440000    -3.2462900000
   37      C       2.5880820000     3.0539360000    -6.3349760000
   38      H       3.2987990000     3.8999990000    -6.3702680000
   39      H       1.6552910000     3.3283710000    -6.8756090000
   40      H       3.0260210000     2.1773850000    -6.8618780000
   41      H       2.1830530000     2.5997590000     1.3215100000
   42      H       2.4268400000    -8.8596530000     0.2576880000
   43      H       0.6587870000    -9.1755700000     0.2716640000
   44      H       1.3142980000    -1.2346910000    -0.0084620000
 ----------------------------------------------------------------

   11   -2755.2750304895      6.04e-07  Convergence criterion met
 Total energy in the final basis set =    -2755.2750304895
        RIMP2         total energy =     -2760.3858941974 a.u.

                    Orbital Energies (a.u.)
 --------------------------------------------------------------

 Alpha MOs
 -- Occupied --
-92.0111 -91.9971 -91.9729 -91.9600 -26.3350 -20.6124 -20.5879 -20.5875
-20.5502 -11.4106 -11.3785 -11.3103 -11.3090 -11.3060 -11.3019 -11.2995
-11.2980 -11.2888 -11.2835 -11.2833 -11.2827 -11.2814 -11.2806 -11.2750
-11.2670 -11.2597 -11.2594 -11.2518 -11.2424  -9.0106  -9.0010  -8.9758
 -8.9625  -6.6914  -6.6906  -6.6902  -6.6823  -6.6816  -6.6803  -6.6567
 -6.6559  -6.6545  -6.6438  -6.6428  -6.6418  -1.6504  -1.4721  -1.4112
 -1.4094  -1.3674  -1.2465  -1.2079  -1.1784  -1.1459  -1.0985  -1.0540
 -1.0462  -1.0321  -1.0063  -0.9986  -0.9734  -0.9590  -0.9498  -0.9412
 -0.8940  -0.8738  -0.8588  -0.8136  -0.7965  -0.7859  -0.7765  -0.7656
 -0.7608  -0.7331  -0.7227  -0.7166  -0.6988  -0.6957  -0.6854  -0.6790
 -0.6750  -0.6740  -0.6558  -0.6488  -0.6358  -0.6283  -0.6219  -0.6154
 -0.6110  -0.6068  -0.5996  -0.5951  -0.5751  -0.5672  -0.5623  -0.5589
 -0.5473  -0.5326  -0.5303  -0.5210  -0.5133  -0.5082  -0.5040  -0.5005
 -0.4852  -0.4834  -0.4780  -0.4626  -0.4616  -0.4606  -0.4564  -0.4476
 -0.4292  -0.4008  -0.3800  -0.3721  -0.3515  -0.2966  -0.2842  -0.2159

          Ground-State Mulliken Net Atomic Charges

     Atom                 Charge (a.u.)
  ----------------------------------------
      1 C                    -0.071334
      2 C                    -0.242713
      3 S                    -0.131968
      4 C                    -0.050361
      5 H                     0.195805
      6 C                    -0.046851
      7 C                     0.217513
      8 C                     0.232388
      9 C                    -0.074632
     10 C                    -0.027233
     11 O                    -0.334247
     12 O                    -0.343796
     13 C                    -0.082845
     14 H                     0.119944
     15 H                     0.091793
     16 H                     0.093044
     17 C                    -0.088385
     18 H                     0.124006
     19 H                     0.092163
     20 H                     0.093546
     21 C                    -0.311493
     22 S                    -0.099547
     23 C                     0.092656
     24 H                     0.198256
     25 C                    -0.050625
     26 S                     0.087186
     27 C                    -0.218559
     28 C                    -0.080518
     29 C                    -0.023524
     30 C                     0.344584
     31 C                    -0.132667
     32 S                     0.050867
     33 C                     0.457757
     34 O                    -0.450767
     35 O                    -0.298493
     36 F                    -0.208648
     37 C                    -0.054694
     38 H                     0.116663
     39 H                     0.084662
     40 H                     0.084213
     41 H                     0.216975
     42 H                     0.119651
     43 H                     0.117424
     44 H                     0.192804
  ----------------------------------------
  Sum of atomic charges =     0.000000

                    Cartesian Multipole Moments
 -----------------------------------------------------------------
    Charge (ESU x 10^10)
                -0.0000
    Dipole Moment (Debye)
         X       3.2062      Y       1.9130      Z       2.8147
       Tot       4.6757
    Quadrupole Moments (Debye-Ang)
        XX    -192.4567     XY       5.4186     YY    -172.9069
        XZ     -13.3641     YZ      -4.4284     ZZ    -189.3113

 Total job time:  332.81s(wall), 10706.32s(cpu)
        *  Thank you very much for using Q-Chem.  Have a nice day.  *
