 Q-Chem 5.4, Q-Chem, Inc., Pleasanton, CA (2021)
 Q-Chem 5.4.0 for Intel X86 EM64T Linux

User input:
--------------------------------------------------------------
$molecule
0 1
C	0.235993	-8.519741	-0.135457
C	-0.577858	-7.635967	0.558188
S	1.414705	-7.651740	-1.148850
C	-0.283020	-6.261894	0.308648
H	-1.377597	-7.954738	1.238560
C	0.810887	-6.079985	-0.609026
C	1.231581	-4.798382	-0.996828
C	-0.982901	-5.153542	0.865740
C	-0.564713	-3.869626	0.474408
C	0.532196	-3.688927	-0.442046
O	-1.976332	-5.481075	1.738137
O	2.228709	-4.479871	-1.874052
C	3.340298	-5.356026	-2.016062
H	4.110807	-4.790496	-2.573877
H	3.085998	-6.268513	-2.598484
H	3.751679	-5.658187	-1.028695
C	-3.007565	-4.546999	2.033195
H	-3.778655	-5.107564	2.594833
H	-3.461650	-4.131473	1.108067
H	-2.645264	-3.712085	2.671451
C	0.822814	-2.314326	-0.691020
S	-1.178037	-2.295487	1.005649
C	0.000000	-1.435180	0.000000
H	1.623656	-1.993211	-1.368875
C	0.000000	0.000000	0.000000
S	0.080615	0.895811	1.510732
C	0.216842	2.465231	0.727629
C	0.079127	0.904769	-1.064665
C	0.198659	2.288406	-0.678287
C	0.074988	0.838492	-2.486150
C	0.185097	2.098524	-3.106916
S	0.290501	3.341568	-1.965735
C	0.211932	2.351623	-4.559972
O	0.133545	1.421416	-5.350277
O	0.326994	3.629649	-5.004375
F	-0.018214	-0.271734	-3.246290
C	0.368367	3.986101	-6.334976
H	0.465270	5.086806	-6.370268
H	-0.553140	3.675878	-6.875609
H	1.229874	3.519263	-6.861878
H	0.297091	3.381746	1.321510
H	-0.349939	-9.146471	-0.817932
H	0.815247	-9.150570	0.548939
H	-0.700647	-1.444158	-0.821835
$end

$rem
JOBTYPE		SP
EXCHANGE	HF
CORRELATION	pRIMP2
BASIS		cc-pvtz
METHOD		rimp2
AUX_BASIS	rimp2-cc-pvtz
SOLVENT_METHOD	PCM
PURECART	11111
SYMMETRY	false
MEM_TOTAL	110000
SCF_CONVERGENCE = 6
THRESH=10
GUI = 2
$end

$solvent
dielectric 4.90
$end
--------------------------------------------------------------

             Standard Nuclear Orientation (Angstroms)
    I     Atom           X                Y                Z
 ----------------------------------------------------------------
    1      C       0.2359930000    -8.5197410000    -0.1354570000
    2      C      -0.5778580000    -7.6359670000     0.5581880000
    3      S       1.4147050000    -7.6517400000    -1.1488500000
    4      C      -0.2830200000    -6.2618940000     0.3086480000
    5      H      -1.3775970000    -7.9547380000     1.2385600000
    6      C       0.8108870000    -6.0799850000    -0.6090260000
    7      C       1.2315810000    -4.7983820000    -0.9968280000
    8      C      -0.9829010000    -5.1535420000     0.8657400000
    9      C      -0.5647130000    -3.8696260000     0.4744080000
   10      C       0.5321960000    -3.6889270000    -0.4420460000
   11      O      -1.9763320000    -5.4810750000     1.7381370000
   12      O       2.2287090000    -4.4798710000    -1.8740520000
   13      C       3.3402980000    -5.3560260000    -2.0160620000
   14      H       4.1108070000    -4.7904960000    -2.5738770000
   15      H       3.0859980000    -6.2685130000    -2.5984840000
   16      H       3.7516790000    -5.6581870000    -1.0286950000
   17      C      -3.0075650000    -4.5469990000     2.0331950000
   18      H      -3.7786550000    -5.1075640000     2.5948330000
   19      H      -3.4616500000    -4.1314730000     1.1080670000
   20      H      -2.6452640000    -3.7120850000     2.6714510000
   21      C       0.8228140000    -2.3143260000    -0.6910200000
   22      S      -1.1780370000    -2.2954870000     1.0056490000
   23      C       0.0000000000    -1.4351800000     0.0000000000
   24      H       1.6236560000    -1.9932110000    -1.3688750000
   25      C       0.0000000000     0.0000000000     0.0000000000
   26      S       0.0806150000     0.8958110000     1.5107320000
   27      C       0.2168420000     2.4652310000     0.7276290000
   28      C       0.0791270000     0.9047690000    -1.0646650000
   29      C       0.1986590000     2.2884060000    -0.6782870000
   30      C       0.0749880000     0.8384920000    -2.4861500000
   31      C       0.1850970000     2.0985240000    -3.1069160000
   32      S       0.2905010000     3.3415680000    -1.9657350000
   33      C       0.2119320000     2.3516230000    -4.5599720000
   34      O       0.1335450000     1.4214160000    -5.3502770000
   35      O       0.3269940000     3.6296490000    -5.0043750000
   36      F      -0.0182140000    -0.2717340000    -3.2462900000
   37      C       0.3683670000     3.9861010000    -6.3349760000
   38      H       0.4652700000     5.0868060000    -6.3702680000
   39      H      -0.5531400000     3.6758780000    -6.8756090000
   40      H       1.2298740000     3.5192630000    -6.8618780000
   41      H       0.2970910000     3.3817460000     1.3215100000
   42      H      -0.3499390000    -9.1464710000    -0.8179320000
   43      H       0.8152470000    -9.1505700000     0.5489390000
   44      H      -0.7006470000    -1.4441580000    -0.8218350000
 ----------------------------------------------------------------

   11   -2755.3283556150      7.31e-07  Convergence criterion met
 Total energy in the final basis set =    -2755.3283556150
        RIMP2         total energy =     -2760.4194095739 a.u.

                    Orbital Energies (a.u.)
 --------------------------------------------------------------

 Alpha MOs
 -- Occupied --
-92.0145 -91.9951 -91.9810 -91.9587 -26.3385 -20.6124 -20.5881 -20.5871
-20.5502 -11.4106 -11.3796 -11.3195 -11.3094 -11.3093 -11.2977 -11.2971
-11.2900 -11.2888 -11.2853 -11.2843 -11.2841 -11.2826 -11.2822 -11.2737
-11.2734 -11.2595 -11.2589 -11.2502 -11.2386  -9.0130  -8.9992  -8.9831
 -8.9613  -6.6937  -6.6931  -6.6927  -6.6805  -6.6798  -6.6784  -6.6642
 -6.6633  -6.6620  -6.6425  -6.6416  -6.6406  -1.6515  -1.4721  -1.4115
 -1.4090  -1.3674  -1.2388  -1.2100  -1.1761  -1.1435  -1.1007  -1.0513
 -1.0471  -1.0289  -1.0098  -0.9991  -0.9721  -0.9602  -0.9494  -0.9410
 -0.8947  -0.8741  -0.8628  -0.8085  -0.7945  -0.7864  -0.7782  -0.7723
 -0.7624  -0.7341  -0.7200  -0.7191  -0.6985  -0.6937  -0.6867  -0.6789
 -0.6760  -0.6726  -0.6564  -0.6489  -0.6360  -0.6281  -0.6206  -0.6152
 -0.6112  -0.6066  -0.5951  -0.5933  -0.5819  -0.5681  -0.5591  -0.5526
 -0.5475  -0.5364  -0.5300  -0.5230  -0.5132  -0.5081  -0.5046  -0.5024
 -0.4863  -0.4848  -0.4772  -0.4709  -0.4625  -0.4616  -0.4611  -0.4472
 -0.4276  -0.4012  -0.3866  -0.3709  -0.3507  -0.2934  -0.2873  -0.2199

          Ground-State Mulliken Net Atomic Charges

     Atom                 Charge (a.u.)
  ----------------------------------------
      1 C                    -0.070502
      2 C                    -0.254888
      3 S                    -0.133422
      4 C                    -0.046712
      5 H                     0.193964
      6 C                    -0.051835
      7 C                     0.223151
      8 C                     0.231509
      9 C                    -0.080137
     10 C                    -0.043454
     11 O                    -0.334487
     12 O                    -0.342655
     13 C                    -0.082827
     14 H                     0.120468
     15 H                     0.092280
     16 H                     0.092436
     17 C                    -0.087004
     18 H                     0.123863
     19 H                     0.093202
     20 H                     0.090148
     21 C                    -0.276841
     22 S                    -0.077088
     23 C                     0.093287
     24 H                     0.206539
     25 C                    -0.093581
     26 S                     0.100075
     27 C                    -0.249674
     28 C                    -0.085948
     29 C                    -0.006955
     30 C                     0.396768
     31 C                    -0.145974
     32 S                     0.036312
     33 C                     0.461370
     34 O                    -0.451680
     35 O                    -0.297942
     36 F                    -0.215681
     37 C                    -0.055194
     38 H                     0.116705
     39 H                     0.084640
     40 H                     0.084488
     41 H                     0.214289
     42 H                     0.118135
     43 H                     0.115572
     44 H                     0.195280
  ----------------------------------------
  Sum of atomic charges =     0.000000

                    Cartesian Multipole Moments
 -----------------------------------------------------------------
    Charge (ESU x 10^10)
                 0.0000
    Dipole Moment (Debye)
         X      -0.2427      Y       2.8134      Z       2.9071
       Tot       4.0529
    Quadrupole Moments (Debye-Ang)
        XX    -185.0860     XY       4.5448     YY    -171.9629
        XZ      -7.4107     YZ     -13.3286     ZZ    -204.3425

 Total job time:  326.24s(wall), 10475.75s(cpu)
        *  Thank you very much for using Q-Chem.  Have a nice day.  *
