 Q-Chem 5.4, Q-Chem, Inc., Pleasanton, CA (2021)
 Q-Chem 5.4.0 for Intel X86 EM64T Linux

User input:
--------------------------------------------------------------
$molecule
0 1
C	-0.267851	-8.519741	-0.047927
C	0.801461	-7.635967	-0.056157
S	-1.822194	-7.651740	-0.029285
C	0.415201	-6.261894	-0.054516
H	1.851431	-7.954738	-0.063290
C	-1.012650	-6.079985	-0.054687
C	-1.584194	-4.798382	-0.028030
C	1.309433	-5.153542	-0.031399
C	0.737539	-3.869626	-0.000427
C	-0.691828	-3.688927	-0.003462
O	2.631211	-5.481075	-0.061128
O	-2.911907	-4.479871	0.003021
C	-3.854716	-5.356026	-0.602710
H	-4.803517	-4.790496	-0.670671
H	-4.034285	-6.268513	0.006913
H	-3.535185	-5.658187	-1.623507
C	3.610841	-4.546999	0.375708
H	4.562544	-5.107564	0.441115
H	3.364029	-4.131473	1.376277
H	3.743566	-3.712085	-0.346107
C	-1.074491	-2.314326	0.000458
S	1.548848	-2.295487	-0.013144
C	0.000000	-1.435180	0.000000
H	-2.123688	-1.993211	0.004953
C	0.000000	0.000000	0.000000
S	0.002233	0.899428	1.510732
C	0.001157	2.474749	0.727629
C	-0.000030	0.908223	-1.064665
C	-0.001545	2.297013	-0.678287
C	0.001624	0.841837	-2.486150
C	0.001494	2.106670	-3.106916
S	-0.001841	3.354171	-1.965735
C	0.006168	2.361146	-4.559972
O	0.009152	1.427646	-5.350277
O	0.009405	3.644337	-5.004375
F	0.005539	-0.272288	-3.246290
C	0.019554	4.003038	-6.334976
H	0.020155	5.108000	-6.370268
H	-0.871409	3.613681	-6.875609
H	0.918470	3.613062	-6.861878
H	0.001222	3.394771	1.321510
H	-0.257688	-9.146471	0.851509
H	-0.271664	-9.150570	-0.944542
H	0.008462	-1.444158	1.079930
$end

$rem
JOBTYPE		SP
EXCHANGE	HF
CORRELATION	pRIMP2
BASIS		cc-pvtz
METHOD		rimp2
AUX_BASIS	rimp2-cc-pvtz
SOLVENT_METHOD	PCM
PURECART	11111
SYMMETRY	false
MEM_TOTAL	110000
SCF_CONVERGENCE = 6
THRESH=10
GUI = 2
$end

$solvent
dielectric 4.90
$end
--------------------------------------------------------------

             Standard Nuclear Orientation (Angstroms)
    I     Atom           X                Y                Z
 ----------------------------------------------------------------
    1      C      -0.2678510000    -8.5197410000    -0.0479270000
    2      C       0.8014610000    -7.6359670000    -0.0561570000
    3      S      -1.8221940000    -7.6517400000    -0.0292850000
    4      C       0.4152010000    -6.2618940000    -0.0545160000
    5      H       1.8514310000    -7.9547380000    -0.0632900000
    6      C      -1.0126500000    -6.0799850000    -0.0546870000
    7      C      -1.5841940000    -4.7983820000    -0.0280300000
    8      C       1.3094330000    -5.1535420000    -0.0313990000
    9      C       0.7375390000    -3.8696260000    -0.0004270000
   10      C      -0.6918280000    -3.6889270000    -0.0034620000
   11      O       2.6312110000    -5.4810750000    -0.0611280000
   12      O      -2.9119070000    -4.4798710000     0.0030210000
   13      C      -3.8547160000    -5.3560260000    -0.6027100000
   14      H      -4.8035170000    -4.7904960000    -0.6706710000
   15      H      -4.0342850000    -6.2685130000     0.0069130000
   16      H      -3.5351850000    -5.6581870000    -1.6235070000
   17      C       3.6108410000    -4.5469990000     0.3757080000
   18      H       4.5625440000    -5.1075640000     0.4411150000
   19      H       3.3640290000    -4.1314730000     1.3762770000
   20      H       3.7435660000    -3.7120850000    -0.3461070000
   21      C      -1.0744910000    -2.3143260000     0.0004580000
   22      S       1.5488480000    -2.2954870000    -0.0131440000
   23      C       0.0000000000    -1.4351800000     0.0000000000
   24      H      -2.1236880000    -1.9932110000     0.0049530000
   25      C       0.0000000000     0.0000000000     0.0000000000
   26      S       0.0022330000     0.8994280000     1.5107320000
   27      C       0.0011570000     2.4747490000     0.7276290000
   28      C      -0.0000300000     0.9082230000    -1.0646650000
   29      C      -0.0015450000     2.2970130000    -0.6782870000
   30      C       0.0016240000     0.8418370000    -2.4861500000
   31      C       0.0014940000     2.1066700000    -3.1069160000
   32      S      -0.0018410000     3.3541710000    -1.9657350000
   33      C       0.0061680000     2.3611460000    -4.5599720000
   34      O       0.0091520000     1.4276460000    -5.3502770000
   35      O       0.0094050000     3.6443370000    -5.0043750000
   36      F       0.0055390000    -0.2722880000    -3.2462900000
   37      C       0.0195540000     4.0030380000    -6.3349760000
   38      H       0.0201550000     5.1080000000    -6.3702680000
   39      H      -0.8714090000     3.6136810000    -6.8756090000
   40      H       0.9184700000     3.6130620000    -6.8618780000
   41      H       0.0012220000     3.3947710000     1.3215100000
   42      H      -0.2576880000    -9.1464710000     0.8515090000
   43      H      -0.2716640000    -9.1505700000    -0.9445420000
   44      H       0.0084620000    -1.4441580000     1.0799300000
 ----------------------------------------------------------------

   11   -2755.3267903053      7.48e-07  Convergence criterion met
 Total energy in the final basis set =    -2755.3267903053
        RIMP2         total energy =     -2760.4166673676 a.u.

                    Orbital Energies (a.u.)
 --------------------------------------------------------------

 Alpha MOs
 -- Occupied --
-92.0199 -91.9957 -91.9771 -91.9579 -26.3352 -20.6128 -20.5869 -20.5865
-20.5511 -11.4112 -11.3777 -11.3114 -11.3088 -11.3068 -11.2992 -11.2979
-11.2966 -11.2888 -11.2842 -11.2826 -11.2825 -11.2811 -11.2808 -11.2726
-11.2724 -11.2579 -11.2575 -11.2493 -11.2364  -9.0181  -8.9997  -8.9793
 -8.9605  -6.6988  -6.6982  -6.6978  -6.6810  -6.6803  -6.6790  -6.6604
 -6.6595  -6.6582  -6.6417  -6.6408  -6.6398  -1.6481  -1.4726  -1.4100
 -1.4086  -1.3680  -1.2378  -1.2088  -1.1751  -1.1440  -1.0991  -1.0500
 -1.0455  -1.0313  -1.0083  -0.9973  -0.9727  -0.9594  -0.9484  -0.9404
 -0.8929  -0.8715  -0.8647  -0.8086  -0.7933  -0.7848  -0.7776  -0.7743
 -0.7653  -0.7331  -0.7213  -0.7163  -0.6971  -0.6923  -0.6814  -0.6791
 -0.6725  -0.6640  -0.6560  -0.6483  -0.6323  -0.6298  -0.6197  -0.6146
 -0.6107  -0.6072  -0.5957  -0.5925  -0.5829  -0.5649  -0.5592  -0.5545
 -0.5502  -0.5345  -0.5278  -0.5221  -0.5127  -0.5072  -0.5035  -0.5014
 -0.4878  -0.4862  -0.4778  -0.4694  -0.4622  -0.4618  -0.4609  -0.4461
 -0.4228  -0.4031  -0.3851  -0.3700  -0.3511  -0.2922  -0.2892  -0.2210

          Ground-State Mulliken Net Atomic Charges

     Atom                 Charge (a.u.)
  ----------------------------------------
      1 C                    -0.070095
      2 C                    -0.260003
      3 S                    -0.135889
      4 C                    -0.043991
      5 H                     0.193411
      6 C                    -0.052560
      7 C                     0.228589
      8 C                     0.226295
      9 C                    -0.081245
     10 C                    -0.062547
     11 O                    -0.334828
     12 O                    -0.343476
     13 C                    -0.082366
     14 H                     0.119867
     15 H                     0.091532
     16 H                     0.093340
     17 C                    -0.086269
     18 H                     0.122948
     19 H                     0.091501
     20 H                     0.090805
     21 C                    -0.239042
     22 S                    -0.071603
     23 C                     0.068334
     24 H                     0.204221
     25 C                    -0.095394
     26 S                     0.103535
     27 C                    -0.239547
     28 C                    -0.077717
     29 C                    -0.003885
     30 C                     0.398869
     31 C                    -0.157652
     32 S                     0.039330
     33 C                     0.460393
     34 O                    -0.448569
     35 O                    -0.297595
     36 F                    -0.212312
     37 C                    -0.055082
     38 H                     0.116685
     39 H                     0.084764
     40 H                     0.084782
     41 H                     0.216948
     42 H                     0.117005
     43 H                     0.115028
     44 H                     0.183482
  ----------------------------------------
  Sum of atomic charges =     0.000000

                    Cartesian Multipole Moments
 -----------------------------------------------------------------
    Charge (ESU x 10^10)
                -0.0000
    Dipole Moment (Debye)
         X       0.1195      Y       3.8545      Z       3.7458
       Tot       5.3761
    Quadrupole Moments (Debye-Ang)
        XX    -185.0070     XY      -3.6773     YY    -174.6067
        XZ       5.6277     YZ     -10.7399     ZZ    -203.9604

 Total job time:  331.97s(wall), 10733.48s(cpu)
        *  Thank you very much for using Q-Chem.  Have a nice day.  *
