 Q-Chem 5.4, Q-Chem, Inc., Pleasanton, CA (2021)
 Q-Chem 5.4.0 for Intel X86 EM64T Linux

User input:
--------------------------------------------------------------
$molecule
0 1
C	-0.268090	-8.519741	0.046574
C	0.733920	-7.635967	-0.326886
S	-1.722318	-7.651740	0.595708
C	0.371516	-6.261894	-0.193236
H	1.718130	-7.954738	-0.692700
C	-0.970283	-6.079985	0.294958
C	-1.498243	-4.798382	0.515487
C	1.219725	-5.153542	-0.477358
C	0.692914	-3.869626	-0.252655
C	-0.651289	-3.688927	0.233366
O	2.451623	-5.481075	-0.957369
O	-2.735264	-4.479871	0.998769
C	-3.828387	-5.356026	0.752029
H	-4.743213	-4.790496	1.012675
H	-3.788623	-6.268513	1.386303
H	-3.877260	-5.658187	-0.316492
C	3.521580	-4.546999	-0.881930
H	4.438260	-5.107564	-1.145969
H	3.631868	-4.131473	0.142712
H	3.399425	-3.712085	-1.605610
C	-1.009535	-2.314326	0.367928
S	1.450945	-2.295487	-0.542088
C	-0.000000	-1.435180	-0.000000
H	-1.993920	-1.993211	0.730999
C	0.000000	0.000000	0.000000
S	0.382139	0.814215	1.510732
C	1.046923	2.242395	0.727629
C	0.383804	0.823142	-1.064665
C	0.969360	2.082453	-0.678287
C	0.357247	0.762277	-2.486150
C	0.891671	1.908660	-3.106916
S	1.415865	3.040689	-1.965735
C	1.003453	2.137318	-4.559972
O	0.611644	1.290019	-5.350277
O	1.548687	3.298916	-5.004375
F	-0.110054	-0.249117	-3.246290
C	1.709479	3.619721	-6.334976
H	2.177001	4.620902	-6.370268
H	0.737443	3.643380	-6.875609
H	2.359363	2.886384	-6.861878
H	1.435800	3.076190	1.321510
H	0.049086	-9.146471	0.888291
H	-0.578334	-9.150570	-0.794665
H	0.377309	-1.444158	1.011908
$end

$rem
JOBTYPE		SP
EXCHANGE	HF
CORRELATION	pRIMP2
BASIS		cc-pvtz
METHOD		rimp2
AUX_BASIS	rimp2-cc-pvtz
SOLVENT_METHOD	PCM
PURECART	11111
SYMMETRY	false
MEM_TOTAL	110000
SCF_CONVERGENCE = 6
THRESH=10
GUI = 2
$end

$solvent
dielectric 4.90
$end
--------------------------------------------------------------

             Standard Nuclear Orientation (Angstroms)
    I     Atom           X                Y                Z
 ----------------------------------------------------------------
    1      C      -0.2680900000    -8.5197410000     0.0465740000
    2      C       0.7339200000    -7.6359670000    -0.3268860000
    3      S      -1.7223180000    -7.6517400000     0.5957080000
    4      C       0.3715160000    -6.2618940000    -0.1932360000
    5      H       1.7181300000    -7.9547380000    -0.6927000000
    6      C      -0.9702830000    -6.0799850000     0.2949580000
    7      C      -1.4982430000    -4.7983820000     0.5154870000
    8      C       1.2197250000    -5.1535420000    -0.4773580000
    9      C       0.6929140000    -3.8696260000    -0.2526550000
   10      C      -0.6512890000    -3.6889270000     0.2333660000
   11      O       2.4516230000    -5.4810750000    -0.9573690000
   12      O      -2.7352640000    -4.4798710000     0.9987690000
   13      C      -3.8283870000    -5.3560260000     0.7520290000
   14      H      -4.7432130000    -4.7904960000     1.0126750000
   15      H      -3.7886230000    -6.2685130000     1.3863030000
   16      H      -3.8772600000    -5.6581870000    -0.3164920000
   17      C       3.5215800000    -4.5469990000    -0.8819300000
   18      H       4.4382600000    -5.1075640000    -1.1459690000
   19      H       3.6318680000    -4.1314730000     0.1427120000
   20      H       3.3994250000    -3.7120850000    -1.6056100000
   21      C      -1.0095350000    -2.3143260000     0.3679280000
   22      S       1.4509450000    -2.2954870000    -0.5420880000
   23      C       0.0000000000    -1.4351800000     0.0000000000
   24      H      -1.9939200000    -1.9932110000     0.7309990000
   25      C       0.0000000000     0.0000000000     0.0000000000
   26      S       0.3821390000     0.8142150000     1.5107320000
   27      C       1.0469230000     2.2423950000     0.7276290000
   28      C       0.3838040000     0.8231420000    -1.0646650000
   29      C       0.9693600000     2.0824530000    -0.6782870000
   30      C       0.3572470000     0.7622770000    -2.4861500000
   31      C       0.8916710000     1.9086600000    -3.1069160000
   32      S       1.4158650000     3.0406890000    -1.9657350000
   33      C       1.0034530000     2.1373180000    -4.5599720000
   34      O       0.6116440000     1.2900190000    -5.3502770000
   35      O       1.5486870000     3.2989160000    -5.0043750000
   36      F      -0.1100540000    -0.2491170000    -3.2462900000
   37      C       1.7094790000     3.6197210000    -6.3349760000
   38      H       2.1770010000     4.6209020000    -6.3702680000
   39      H       0.7374430000     3.6433800000    -6.8756090000
   40      H       2.3593630000     2.8863840000    -6.8618780000
   41      H       1.4358000000     3.0761900000     1.3215100000
   42      H       0.0490860000    -9.1464710000     0.8882910000
   43      H      -0.5783340000    -9.1505700000    -0.7946650000
   44      H       0.3773090000    -1.4441580000     1.0119080000
 ----------------------------------------------------------------

   11   -2755.3141016206      7.76e-07  Convergence criterion met
 Total energy in the final basis set =    -2755.3141016206
        RIMP2         total energy =     -2760.4077083979 a.u.

                    Orbital Energies (a.u.)
 --------------------------------------------------------------

 Alpha MOs
 -- Occupied --
-92.0171 -91.9968 -91.9779 -91.9572 -26.3352 -20.6133 -20.5868 -20.5862
-20.5521 -11.4121 -11.3779 -11.3085 -11.3082 -11.3062 -11.3013 -11.3004
-11.2979 -11.2891 -11.2840 -11.2837 -11.2825 -11.2824 -11.2795 -11.2719
-11.2714 -11.2574 -11.2557 -11.2487 -11.2349  -9.0158  -9.0008  -8.9801
 -8.9598  -6.6965  -6.6959  -6.6954  -6.6821  -6.6814  -6.6801  -6.6612
 -6.6603  -6.6590  -6.6410  -6.6401  -6.6391  -1.6481  -1.4731  -1.4097
 -1.4085  -1.3687  -1.2401  -1.2086  -1.1748  -1.1447  -1.0984  -1.0513
 -1.0449  -1.0323  -1.0079  -0.9969  -0.9733  -0.9595  -0.9481  -0.9404
 -0.8928  -0.8722  -0.8633  -0.8095  -0.7932  -0.7846  -0.7757  -0.7749
 -0.7648  -0.7332  -0.7211  -0.7164  -0.6966  -0.6930  -0.6812  -0.6795
 -0.6732  -0.6648  -0.6558  -0.6481  -0.6345  -0.6284  -0.6191  -0.6144
 -0.6112  -0.6079  -0.5970  -0.5927  -0.5812  -0.5634  -0.5618  -0.5561
 -0.5475  -0.5348  -0.5284  -0.5214  -0.5123  -0.5070  -0.5039  -0.5010
 -0.4879  -0.4850  -0.4760  -0.4697  -0.4628  -0.4622  -0.4606  -0.4458
 -0.4233  -0.4028  -0.3850  -0.3697  -0.3510  -0.2937  -0.2884  -0.2190

          Ground-State Mulliken Net Atomic Charges

     Atom                 Charge (a.u.)
  ----------------------------------------
      1 C                    -0.069784
      2 C                    -0.265075
      3 S                    -0.137972
      4 C                    -0.043259
      5 H                     0.192725
      6 C                    -0.052207
      7 C                     0.223075
      8 C                     0.223389
      9 C                    -0.071982
     10 C                    -0.041758
     11 O                    -0.334888
     12 O                    -0.343504
     13 C                    -0.082507
     14 H                     0.119657
     15 H                     0.091884
     16 H                     0.093277
     17 C                    -0.087207
     18 H                     0.123336
     19 H                     0.091656
     20 H                     0.090756
     21 C                    -0.271085
     22 S                    -0.076259
     23 C                     0.048359
     24 H                     0.203540
     25 C                    -0.021756
     26 S                     0.100406
     27 C                    -0.224898
     28 C                    -0.144697
     29 C                     0.003235
     30 C                     0.391736
     31 C                    -0.149054
     32 S                     0.044651
     33 C                     0.459644
     34 O                    -0.446420
     35 O                    -0.297560
     36 F                    -0.210950
     37 C                    -0.054889
     38 H                     0.116805
     39 H                     0.084955
     40 H                     0.084956
     41 H                     0.216862
     42 H                     0.116426
     43 H                     0.114424
     44 H                     0.191960
  ----------------------------------------
  Sum of atomic charges =     0.000000

                    Cartesian Multipole Moments
 -----------------------------------------------------------------
    Charge (ESU x 10^10)
                -0.0000
    Dipole Moment (Debye)
         X       1.9888      Y       3.9928      Z       3.5367
       Tot       5.6926
    Quadrupole Moments (Debye-Ang)
        XX    -180.0828     XY       2.8826     YY    -179.6821
        XZ      -5.2415     YZ      -8.7004     ZZ    -205.2054

 Total job time:  331.92s(wall), 10393.40s(cpu)
        *  Thank you very much for using Q-Chem.  Have a nice day.  *
