 Q-Chem 5.4, Q-Chem, Inc., Pleasanton, CA (2021)
 Q-Chem 5.4.0 for Intel X86 EM64T Linux

User input:
--------------------------------------------------------------
$molecule
0 1
C	-0.255459	-8.519741	-0.093711
C	0.799036	-7.635967	0.083869
S	-1.789425	-7.651740	-0.345260
C	0.418360	-6.261894	0.018411
H	1.834294	-7.954738	0.259169
C	-0.987769	-6.079985	-0.229701
C	-1.555260	-4.798382	-0.302697
C	1.294992	-5.153542	0.196459
C	0.726408	-3.869626	0.127651
C	-0.680716	-3.688927	-0.123544
O	2.601852	-5.481075	0.396706
O	-2.868193	-4.479871	-0.502673
C	-3.691495	-5.356026	-1.262918
H	-4.614080	-4.790496	-1.494604
H	-3.974195	-6.268513	-0.693738
H	-3.199559	-5.658187	-2.212720
C	3.490743	-4.546999	0.997016
H	4.416630	-5.107564	1.226691
H	3.073934	-4.131473	1.939526
H	3.746794	-3.712085	0.309214
C	-1.058247	-2.314326	-0.186133
S	1.527599	-2.295487	0.256010
C	-0.000000	-1.435180	-0.000000
H	-2.092285	-1.993211	-0.363896
C	0.000000	0.000000	0.000000
S	0.690437	0.576430	1.510732
C	1.896512	1.589852	0.727629
C	0.695720	0.583817	-1.064665
C	1.758621	1.477674	-0.678287
C	0.645928	0.539878	-2.486150
C	1.614763	1.352997	-3.106916
S	2.568261	2.157430	-1.965735
C	1.812707	1.512991	-4.559972
O	1.099523	0.910662	-5.350277
O	2.797769	2.335330	-5.004375
F	-0.205024	-0.179266	-3.246290
C	3.079074	2.558124	-6.334976
H	3.925910	3.267919	-6.370268
H	2.208109	2.990367	-6.875609
H	3.358147	1.618843	-6.861878
H	2.601331	2.181180	1.321510
H	-0.401636	-9.146471	0.793825
H	-0.103519	-9.150570	-0.977367
H	-0.179195	-1.444158	1.064992
$end

$rem
JOBTYPE		SP
EXCHANGE	HF
CORRELATION	pRIMP2
BASIS		cc-pvtz
METHOD		rimp2
AUX_BASIS	rimp2-cc-pvtz
SOLVENT_METHOD	PCM
PURECART	11111
SYMMETRY	false
MEM_TOTAL	110000
SCF_CONVERGENCE = 6
THRESH=10
GUI = 2
$end

$solvent
dielectric 4.90
$end
--------------------------------------------------------------

             Standard Nuclear Orientation (Angstroms)
    I     Atom           X                Y                Z
 ----------------------------------------------------------------
    1      C      -0.2554590000    -8.5197410000    -0.0937110000
    2      C       0.7990360000    -7.6359670000     0.0838690000
    3      S      -1.7894250000    -7.6517400000    -0.3452600000
    4      C       0.4183600000    -6.2618940000     0.0184110000
    5      H       1.8342940000    -7.9547380000     0.2591690000
    6      C      -0.9877690000    -6.0799850000    -0.2297010000
    7      C      -1.5552600000    -4.7983820000    -0.3026970000
    8      C       1.2949920000    -5.1535420000     0.1964590000
    9      C       0.7264080000    -3.8696260000     0.1276510000
   10      C      -0.6807160000    -3.6889270000    -0.1235440000
   11      O       2.6018520000    -5.4810750000     0.3967060000
   12      O      -2.8681930000    -4.4798710000    -0.5026730000
   13      C      -3.6914950000    -5.3560260000    -1.2629180000
   14      H      -4.6140800000    -4.7904960000    -1.4946040000
   15      H      -3.9741950000    -6.2685130000    -0.6937380000
   16      H      -3.1995590000    -5.6581870000    -2.2127200000
   17      C       3.4907430000    -4.5469990000     0.9970160000
   18      H       4.4166300000    -5.1075640000     1.2266910000
   19      H       3.0739340000    -4.1314730000     1.9395260000
   20      H       3.7467940000    -3.7120850000     0.3092140000
   21      C      -1.0582470000    -2.3143260000    -0.1861330000
   22      S       1.5275990000    -2.2954870000     0.2560100000
   23      C       0.0000000000    -1.4351800000     0.0000000000
   24      H      -2.0922850000    -1.9932110000    -0.3638960000
   25      C       0.0000000000     0.0000000000     0.0000000000
   26      S       0.6904370000     0.5764300000     1.5107320000
   27      C       1.8965120000     1.5898520000     0.7276290000
   28      C       0.6957200000     0.5838170000    -1.0646650000
   29      C       1.7586210000     1.4776740000    -0.6782870000
   30      C       0.6459280000     0.5398780000    -2.4861500000
   31      C       1.6147630000     1.3529970000    -3.1069160000
   32      S       2.5682610000     2.1574300000    -1.9657350000
   33      C       1.8127070000     1.5129910000    -4.5599720000
   34      O       1.0995230000     0.9106620000    -5.3502770000
   35      O       2.7977690000     2.3353300000    -5.0043750000
   36      F      -0.2050240000    -0.1792660000    -3.2462900000
   37      C       3.0790740000     2.5581240000    -6.3349760000
   38      H       3.9259100000     3.2679190000    -6.3702680000
   39      H       2.2081090000     2.9903670000    -6.8756090000
   40      H       3.3581470000     1.6188430000    -6.8618780000
   41      H       2.6013310000     2.1811800000     1.3215100000
   42      H      -0.4016360000    -9.1464710000     0.7938250000
   43      H      -0.1035190000    -9.1505700000    -0.9773670000
   44      H      -0.1791950000    -1.4441580000     1.0649920000
 ----------------------------------------------------------------

   11   -2755.2791835773      7.22e-07  Convergence criterion met
 Total energy in the final basis set =    -2755.2791835773
        RIMP2         total energy =     -2760.3842431259 a.u.

                    Orbital Energies (a.u.)
 --------------------------------------------------------------

 Alpha MOs
 -- Occupied --
-92.0173 -92.0038 -91.9718 -91.9550 -26.3353 -20.6156 -20.5854 -20.5845
-20.5564 -11.4157 -11.3765 -11.3199 -11.3102 -11.3070 -11.3030 -11.3000
-11.2903 -11.2897 -11.2833 -11.2825 -11.2812 -11.2803 -11.2739 -11.2691
-11.2681 -11.2555 -11.2506 -11.2467 -11.2311  -9.0164  -9.0075  -8.9745
 -8.9577  -6.6970  -6.6962  -6.6960  -6.6887  -6.6880  -6.6867  -6.6556
 -6.6547  -6.6534  -6.6389  -6.6380  -6.6370  -1.6483  -1.4758  -1.4081
 -1.4069  -1.3719  -1.2452  -1.2066  -1.1736  -1.1462  -1.0962  -1.0539
 -1.0428  -1.0345  -1.0062  -0.9942  -0.9758  -0.9594  -0.9467  -0.9393
 -0.8910  -0.8760  -0.8589  -0.8085  -0.7961  -0.7824  -0.7799  -0.7727
 -0.7624  -0.7335  -0.7203  -0.7174  -0.6965  -0.6941  -0.6815  -0.6789
 -0.6767  -0.6641  -0.6542  -0.6468  -0.6300  -0.6295  -0.6172  -0.6134
 -0.6113  -0.6107  -0.6021  -0.5914  -0.5752  -0.5621  -0.5593  -0.5535
 -0.5414  -0.5357  -0.5292  -0.5219  -0.5111  -0.5056  -0.5056  -0.4987
 -0.4904  -0.4841  -0.4730  -0.4677  -0.4660  -0.4637  -0.4578  -0.4437
 -0.4200  -0.4005  -0.3834  -0.3672  -0.3476  -0.3004  -0.2863  -0.2170

          Ground-State Mulliken Net Atomic Charges

     Atom                 Charge (a.u.)
  ----------------------------------------
      1 C                    -0.069420
      2 C                    -0.275312
      3 S                    -0.142109
      4 C                    -0.041268
      5 H                     0.191141
      6 C                    -0.056229
      7 C                     0.225515
      8 C                     0.221573
      9 C                    -0.074582
     10 C                    -0.054777
     11 O                    -0.335676
     12 O                    -0.342991
     13 C                    -0.082275
     14 H                     0.119492
     15 H                     0.091481
     16 H                     0.092997
     17 C                    -0.086518
     18 H                     0.122745
     19 H                     0.090582
     20 H                     0.089453
     21 C                    -0.264956
     22 S                    -0.087892
     23 C                     0.013976
     24 H                     0.205258
     25 C                    -0.112422
     26 S                     0.117449
     27 C                    -0.168222
     28 C                    -0.051484
     29 C                    -0.013771
     30 C                     0.361352
     31 C                    -0.128513
     32 S                     0.066457
     33 C                     0.457346
     34 O                    -0.439532
     35 O                    -0.296665
     36 F                    -0.209939
     37 C                    -0.054670
     38 H                     0.117375
     39 H                     0.085521
     40 H                     0.085802
     41 H                     0.220825
     42 H                     0.114868
     43 H                     0.112843
     44 H                     0.185172
  ----------------------------------------
  Sum of atomic charges =     0.000000

                    Cartesian Multipole Moments
 -----------------------------------------------------------------
    Charge (ESU x 10^10)
                 0.0000
    Dipole Moment (Debye)
         X       4.0629      Y       4.8223      Z       3.2308
       Tot       7.0852
    Quadrupole Moments (Debye-Ang)
        XX    -176.2183     XY       6.6440     YY    -192.0179
        XZ      -1.7685     YZ      -8.2273     ZZ    -198.2601

 Total job time:  332.23s(wall), 10551.62s(cpu)
        *  Thank you very much for using Q-Chem.  Have a nice day.  *
