 Q-Chem 5.4, Q-Chem, Inc., Pleasanton, CA (2021)
 Q-Chem 5.4.0 for Intel X86 EM64T Linux

User input:
--------------------------------------------------------------
$molecule
0 1
C	-0.255929	-8.519741	0.092419
C	0.666007	-7.635967	-0.449364
S	-1.592708	-7.651740	0.885736
C	0.332317	-6.261894	-0.254813
H	1.571741	-7.954738	-0.980526
C	-0.904324	-6.079985	0.458965
C	-1.385968	-4.798382	0.767823
C	1.118303	-5.153542	-0.681909
C	0.638514	-3.869626	-0.369139
C	-0.600871	-3.688927	0.342916
O	2.248132	-5.481075	-1.368544
O	-2.520275	-4.479871	1.458570
C	-3.639637	-5.356026	1.405396
H	-4.495304	-4.790496	1.820940
H	-3.490336	-6.268513	2.023129
H	-3.873314	-5.658187	0.361595
C	3.314934	-4.546999	-1.480048
H	4.171837	-5.107564	-1.899255
H	3.601473	-4.131473	-0.490123
H	3.068969	-3.712085	-2.171521
C	-0.930308	-2.314326	0.537642
S	1.334769	-2.295487	-0.785807
C	0.000000	-1.435180	0.000000
H	-1.836691	-1.993211	1.066134
C	0.000000	0.000000	0.000000
S	0.234946	0.868203	1.510732
C	0.641630	2.390125	0.727629
C	0.235036	0.877284	-1.064665
C	0.593019	2.219143	-0.678287
C	0.219452	0.812732	-2.486150
C	0.546689	2.034501	-3.106916
S	0.866345	3.240357	-1.965735
C	0.617067	2.279095	-4.559972
O	0.378342	1.376631	-5.350277
O	0.952308	3.517725	-5.004375
F	-0.065123	-0.264443	-3.246290
C	1.054950	3.861577	-6.334976
H	1.341516	4.928732	-6.370268
H	0.093573	3.716085	-6.875609
H	1.822303	3.252232	-6.861878
H	0.879812	3.278780	1.321510
H	0.202590	-9.146471	0.866272
H	-0.707539	-9.150570	-0.682165
H	0.547293	-1.444158	0.931016
$end

$rem
JOBTYPE		SP
EXCHANGE	HF
CORRELATION	pRIMP2
BASIS		cc-pvtz
METHOD		rimp2
AUX_BASIS	rimp2-cc-pvtz
SOLVENT_METHOD	PCM
PURECART	11111
SYMMETRY	false
MEM_TOTAL	110000
SCF_CONVERGENCE = 6
THRESH=10
GUI = 2
$end

$solvent
dielectric 4.90
$end
--------------------------------------------------------------

             Standard Nuclear Orientation (Angstroms)
    I     Atom           X                Y                Z
 ----------------------------------------------------------------
    1      C      -0.2559290000    -8.5197410000     0.0924190000
    2      C       0.6660070000    -7.6359670000    -0.4493640000
    3      S      -1.5927080000    -7.6517400000     0.8857360000
    4      C       0.3323170000    -6.2618940000    -0.2548130000
    5      H       1.5717410000    -7.9547380000    -0.9805260000
    6      C      -0.9043240000    -6.0799850000     0.4589650000
    7      C      -1.3859680000    -4.7983820000     0.7678230000
    8      C       1.1183030000    -5.1535420000    -0.6819090000
    9      C       0.6385140000    -3.8696260000    -0.3691390000
   10      C      -0.6008710000    -3.6889270000     0.3429160000
   11      O       2.2481320000    -5.4810750000    -1.3685440000
   12      O      -2.5202750000    -4.4798710000     1.4585700000
   13      C      -3.6396370000    -5.3560260000     1.4053960000
   14      H      -4.4953040000    -4.7904960000     1.8209400000
   15      H      -3.4903360000    -6.2685130000     2.0231290000
   16      H      -3.8733140000    -5.6581870000     0.3615950000
   17      C       3.3149340000    -4.5469990000    -1.4800480000
   18      H       4.1718370000    -5.1075640000    -1.8992550000
   19      H       3.6014730000    -4.1314730000    -0.4901230000
   20      H       3.0689690000    -3.7120850000    -2.1715210000
   21      C      -0.9303080000    -2.3143260000     0.5376420000
   22      S       1.3347690000    -2.2954870000    -0.7858070000
   23      C       0.0000000000    -1.4351800000     0.0000000000
   24      H      -1.8366910000    -1.9932110000     1.0661340000
   25      C       0.0000000000     0.0000000000     0.0000000000
   26      S       0.2349460000     0.8682030000     1.5107320000
   27      C       0.6416300000     2.3901250000     0.7276290000
   28      C       0.2350360000     0.8772840000    -1.0646650000
   29      C       0.5930190000     2.2191430000    -0.6782870000
   30      C       0.2194520000     0.8127320000    -2.4861500000
   31      C       0.5466890000     2.0345010000    -3.1069160000
   32      S       0.8663450000     3.2403570000    -1.9657350000
   33      C       0.6170670000     2.2790950000    -4.5599720000
   34      O       0.3783420000     1.3766310000    -5.3502770000
   35      O       0.9523080000     3.5177250000    -5.0043750000
   36      F      -0.0651230000    -0.2644430000    -3.2462900000
   37      C       1.0549500000     3.8615770000    -6.3349760000
   38      H       1.3415160000     4.9287320000    -6.3702680000
   39      H       0.0935730000     3.7160850000    -6.8756090000
   40      H       1.8223030000     3.2522320000    -6.8618780000
   41      H       0.8798120000     3.2787800000     1.3215100000
   42      H       0.2025900000    -9.1464710000     0.8662720000
   43      H      -0.7075390000    -9.1505700000    -0.6821650000
   44      H       0.5472930000    -1.4441580000     0.9310160000
 ----------------------------------------------------------------

   11   -2755.3218931297      8.05e-07  Convergence criterion met
 Total energy in the final basis set =    -2755.3218931297
        RIMP2         total energy =     -2760.4127600069 a.u.

                    Orbital Energies (a.u.)
 --------------------------------------------------------------

 Alpha MOs
 -- Occupied --
-92.0166 -91.9949 -91.9785 -91.9581 -26.3347 -20.6125 -20.5873 -20.5866
-20.5506 -11.4108 -11.3782 -11.3148 -11.3090 -11.3072 -11.2984 -11.2975
-11.2949 -11.2887 -11.2841 -11.2831 -11.2828 -11.2817 -11.2816 -11.2728
-11.2726 -11.2581 -11.2578 -11.2495 -11.2366  -9.0153  -8.9990  -8.9806
 -8.9607  -6.6961  -6.6955  -6.6949  -6.6803  -6.6796  -6.6782  -6.6617
 -6.6608  -6.6595  -6.6419  -6.6410  -6.6400  -1.6477  -1.4722  -1.4102
 -1.4089  -1.3676  -1.2388  -1.2093  -1.1755  -1.1442  -1.0992  -1.0506
 -1.0457  -1.0314  -1.0083  -0.9978  -0.9725  -0.9597  -0.9485  -0.9406
 -0.8934  -0.8713  -0.8644  -0.8100  -0.7926  -0.7853  -0.7763  -0.7727
 -0.7655  -0.7331  -0.7210  -0.7159  -0.6969  -0.6925  -0.6821  -0.6788
 -0.6721  -0.6656  -0.6563  -0.6485  -0.6362  -0.6286  -0.6199  -0.6148
 -0.6109  -0.6068  -0.5958  -0.5929  -0.5817  -0.5643  -0.5626  -0.5569
 -0.5491  -0.5345  -0.5280  -0.5215  -0.5127  -0.5076  -0.5033  -0.5016
 -0.4868  -0.4850  -0.4773  -0.4698  -0.4618  -0.4616  -0.4611  -0.4466
 -0.4251  -0.4021  -0.3857  -0.3705  -0.3514  -0.2930  -0.2876  -0.2194

          Ground-State Mulliken Net Atomic Charges

     Atom                 Charge (a.u.)
  ----------------------------------------
      1 C                    -0.070033
      2 C                    -0.259992
      3 S                    -0.136041
      4 C                    -0.044794
      5 H                     0.193448
      6 C                    -0.049863
      7 C                     0.222442
      8 C                     0.224525
      9 C                    -0.072287
     10 C                    -0.033080
     11 O                    -0.334761
     12 O                    -0.343705
     13 C                    -0.082520
     14 H                     0.119806
     15 H                     0.091926
     16 H                     0.093300
     17 C                    -0.087313
     18 H                     0.123467
     19 H                     0.091906
     20 H                     0.091257
     21 C                    -0.288340
     22 S                    -0.076538
     23 C                     0.085896
     24 H                     0.203438
     25 C                    -0.045021
     26 S                     0.097916
     27 C                    -0.238943
     28 C                    -0.134461
     29 C                    -0.000726
     30 C                     0.398905
     31 C                    -0.152685
     32 S                     0.037620
     33 C                     0.460984
     34 O                    -0.448956
     35 O                    -0.297824
     36 F                    -0.211022
     37 C                    -0.054999
     38 H                     0.116607
     39 H                     0.084782
     40 H                     0.084621
     41 H                     0.215719
     42 H                     0.117214
     43 H                     0.115159
     44 H                     0.192967
  ----------------------------------------
  Sum of atomic charges =     0.000000

                    Cartesian Multipole Moments
 -----------------------------------------------------------------
    Charge (ESU x 10^10)
                -0.0000
    Dipole Moment (Debye)
         X       1.3593      Y       3.4291      Z       3.5722
       Tot       5.1349
    Quadrupole Moments (Debye-Ang)
        XX    -182.6060     XY       0.6394     YY    -175.6641
        XZ      -6.4858     YZ      -8.3411     ZZ    -205.3328

 Total job time:  324.37s(wall), 10489.79s(cpu)
        *  Thank you very much for using Q-Chem.  Have a nice day.  *
