 Q-Chem 5.4, Q-Chem, Inc., Pleasanton, CA (2021)
 Q-Chem 5.4.0 for Intel X86 EM64T Linux

User input:
--------------------------------------------------------------
$molecule
0 1
C	0.208002	-8.519741	0.175432
C	-0.722164	-7.635967	-0.352097
S	1.563424	-7.651740	0.936458
C	-0.386833	-6.261894	-0.160388
H	-1.635031	-7.954738	-0.870905
C	0.849637	-6.079985	0.553685
C	1.357938	-4.798382	0.816372
C	-1.149702	-5.153542	-0.627524
C	-0.638941	-3.869626	-0.368399
C	0.597409	-3.688927	0.348912
O	-2.309260	-5.481075	-1.262667
O	2.523296	-4.479871	1.453338
C	3.036927	-5.356026	2.449320
H	3.824632	-4.790496	2.982577
H	3.497250	-6.268513	2.011155
H	2.249807	-5.658187	3.173591
C	-2.939226	-4.546999	-2.130793
H	-3.730721	-5.107564	-2.663289
H	-2.225196	-4.131473	-2.873906
H	-3.415077	-3.712085	-1.572045
C	0.930765	-2.314326	0.536849
S	-1.347913	-2.295487	-0.763041
C	0.000000	-1.435180	0.000000
H	1.841645	-1.993211	1.057554
C	0.000000	0.000000	0.000000
S	0.780044	0.447780	1.510732
C	2.143774	1.236372	0.727629
C	0.786529	0.454137	-1.064665
C	1.988499	1.149844	-0.678287
C	0.729864	0.419512	-2.486150
C	1.825177	1.052041	-3.106916
S	2.903877	1.678680	-1.965735
C	2.047896	1.175232	-4.559972
O	1.240953	0.705897	-5.350277
O	3.160791	1.814024	-5.004375
F	-0.233039	-0.140940	-3.246290
C	3.476510	1.984585	-6.334976
H	4.433735	2.536545	-6.370268
H	2.693835	2.561503	-6.875609
H	3.588239	1.011113	-6.861878
H	2.940569	1.696327	1.321510
H	0.648918	-9.146471	-0.608584
H	-0.237003	-9.150570	0.953830
H	0.532637	-1.444158	-0.939477
$end

$rem
JOBTYPE		SP
EXCHANGE	HF
CORRELATION	pRIMP2
BASIS		cc-pvtz
METHOD		rimp2
AUX_BASIS	rimp2-cc-pvtz
SOLVENT_METHOD	PCM
PURECART	11111
SYMMETRY	false
MEM_TOTAL	110000
SCF_CONVERGENCE = 6
THRESH=10
GUI = 2
$end

$solvent
dielectric 4.90
$end
--------------------------------------------------------------

             Standard Nuclear Orientation (Angstroms)
    I     Atom           X                Y                Z
 ----------------------------------------------------------------
    1      C       0.2080020000    -8.5197410000     0.1754320000
    2      C      -0.7221640000    -7.6359670000    -0.3520970000
    3      S       1.5634240000    -7.6517400000     0.9364580000
    4      C      -0.3868330000    -6.2618940000    -0.1603880000
    5      H      -1.6350310000    -7.9547380000    -0.8709050000
    6      C       0.8496370000    -6.0799850000     0.5536850000
    7      C       1.3579380000    -4.7983820000     0.8163720000
    8      C      -1.1497020000    -5.1535420000    -0.6275240000
    9      C      -0.6389410000    -3.8696260000    -0.3683990000
   10      C       0.5974090000    -3.6889270000     0.3489120000
   11      O      -2.3092600000    -5.4810750000    -1.2626670000
   12      O       2.5232960000    -4.4798710000     1.4533380000
   13      C       3.0369270000    -5.3560260000     2.4493200000
   14      H       3.8246320000    -4.7904960000     2.9825770000
   15      H       3.4972500000    -6.2685130000     2.0111550000
   16      H       2.2498070000    -5.6581870000     3.1735910000
   17      C      -2.9392260000    -4.5469990000    -2.1307930000
   18      H      -3.7307210000    -5.1075640000    -2.6632890000
   19      H      -2.2251960000    -4.1314730000    -2.8739060000
   20      H      -3.4150770000    -3.7120850000    -1.5720450000
   21      C       0.9307650000    -2.3143260000     0.5368490000
   22      S      -1.3479130000    -2.2954870000    -0.7630410000
   23      C       0.0000000000    -1.4351800000     0.0000000000
   24      H       1.8416450000    -1.9932110000     1.0575540000
   25      C       0.0000000000     0.0000000000     0.0000000000
   26      S       0.7800440000     0.4477800000     1.5107320000
   27      C       2.1437740000     1.2363720000     0.7276290000
   28      C       0.7865290000     0.4541370000    -1.0646650000
   29      C       1.9884990000     1.1498440000    -0.6782870000
   30      C       0.7298640000     0.4195120000    -2.4861500000
   31      C       1.8251770000     1.0520410000    -3.1069160000
   32      S       2.9038770000     1.6786800000    -1.9657350000
   33      C       2.0478960000     1.1752320000    -4.5599720000
   34      O       1.2409530000     0.7058970000    -5.3502770000
   35      O       3.1607910000     1.8140240000    -5.0043750000
   36      F      -0.2330390000    -0.1409400000    -3.2462900000
   37      C       3.4765100000     1.9845850000    -6.3349760000
   38      H       4.4337350000     2.5365450000    -6.3702680000
   39      H       2.6938350000     2.5615030000    -6.8756090000
   40      H       3.5882390000     1.0111130000    -6.8618780000
   41      H       2.9405690000     1.6963270000     1.3215100000
   42      H       0.6489180000    -9.1464710000    -0.6085840000
   43      H      -0.2370030000    -9.1505700000     0.9538300000
   44      H       0.5326370000    -1.4441580000    -0.9394770000
 ----------------------------------------------------------------

   11   -2755.2462965465      9.00e-07  Convergence criterion met
 Total energy in the final basis set =    -2755.2462965465
        RIMP2         total energy =     -2760.3612591830 a.u.

                    Orbital Energies (a.u.)
 --------------------------------------------------------------

 Alpha MOs
 -- Occupied --
-92.0182 -92.0101 -91.9654 -91.9551 -26.3369 -20.6175 -20.5862 -20.5818
-20.5593 -11.4184 -11.3782 -11.3267 -11.3160 -11.3070 -11.3032 -11.2993
-11.2950 -11.2914 -11.2823 -11.2804 -11.2779 -11.2765 -11.2716 -11.2703
-11.2686 -11.2544 -11.2516 -11.2463 -11.2291  -9.0172  -9.0134  -8.9681
 -8.9578  -6.6977  -6.6969  -6.6968  -6.6945  -6.6939  -6.6927  -6.6492
 -6.6483  -6.6471  -6.6390  -6.6381  -6.6371  -1.6503  -1.4778  -1.4082
 -1.4049  -1.3742  -1.2532  -1.2063  -1.1740  -1.1472  -1.0982  -1.0575
 -1.0418  -1.0359  -1.0052  -0.9935  -0.9779  -0.9582  -0.9469  -0.9403
 -0.8893  -0.8809  -0.8550  -0.8130  -0.7975  -0.7860  -0.7800  -0.7662
 -0.7576  -0.7325  -0.7209  -0.7179  -0.6987  -0.6916  -0.6900  -0.6832
 -0.6795  -0.6757  -0.6527  -0.6460  -0.6302  -0.6288  -0.6168  -0.6147
 -0.6134  -0.6090  -0.6049  -0.5937  -0.5752  -0.5621  -0.5579  -0.5541
 -0.5516  -0.5336  -0.5245  -0.5213  -0.5100  -0.5064  -0.5055  -0.4971
 -0.4929  -0.4846  -0.4711  -0.4685  -0.4659  -0.4611  -0.4533  -0.4418
 -0.4258  -0.3930  -0.3794  -0.3664  -0.3476  -0.3053  -0.2844  -0.2130

          Ground-State Mulliken Net Atomic Charges

     Atom                 Charge (a.u.)
  ----------------------------------------
      1 C                    -0.068613
      2 C                    -0.281314
      3 S                    -0.143093
      4 C                    -0.037792
      5 H                     0.190876
      6 C                    -0.053951
      7 C                     0.223672
      8 C                     0.213118
      9 C                    -0.066256
     10 C                    -0.067059
     11 O                    -0.337098
     12 O                    -0.345147
     13 C                    -0.082494
     14 H                     0.118543
     15 H                     0.092224
     16 H                     0.092760
     17 C                    -0.086397
     18 H                     0.121345
     19 H                     0.091653
     20 H                     0.089876
     21 C                    -0.259701
     22 S                    -0.106658
     23 C                     0.072291
     24 H                     0.203549
     25 C                    -0.184508
     26 S                     0.121859
     27 C                    -0.161370
     28 C                    -0.021437
     29 C                    -0.020639
     30 C                     0.332933
     31 C                    -0.114474
     32 S                     0.083588
     33 C                     0.458404
     34 O                    -0.436003
     35 O                    -0.296351
     36 F                    -0.209743
     37 C                    -0.054703
     38 H                     0.117841
     39 H                     0.086120
     40 H                     0.086173
     41 H                     0.222605
     42 H                     0.114562
     43 H                     0.112039
     44 H                     0.188769
  ----------------------------------------
  Sum of atomic charges =     0.000000

                    Cartesian Multipole Moments
 -----------------------------------------------------------------
    Charge (ESU x 10^10)
                -0.0000
    Dipole Moment (Debye)
         X       5.6503      Y       4.7718      Z       2.0600
       Tot       7.6772
    Quadrupole Moments (Debye-Ang)
        XX    -178.2889     XY      11.7898     YY    -197.6280
        XZ      -2.8243     YZ      -5.2872     ZZ    -190.8484

 Total job time:  377.96s(wall), 10944.68s(cpu)
        *  Thank you very much for using Q-Chem.  Have a nice day.  *
