 Q-Chem 5.4, Q-Chem, Inc., Pleasanton, CA (2021)
 Q-Chem 5.4.0 for Intel X86 EM64T Linux

User input:
--------------------------------------------------------------
$molecule
0 1
C	-0.046574	-8.519741	-0.268090
C	0.326886	-7.635967	0.733920
S	-0.595708	-7.651740	-1.722318
C	0.193236	-6.261894	0.371516
H	0.692700	-7.954738	1.718130
C	-0.294958	-6.079985	-0.970283
C	-0.515487	-4.798382	-1.498243
C	0.477358	-5.153542	1.219725
C	0.252655	-3.869626	0.692914
C	-0.233366	-3.688927	-0.651289
O	0.957369	-5.481075	2.451623
O	-0.998769	-4.479871	-2.735264
C	-0.752029	-5.356026	-3.828387
H	-1.012675	-4.790496	-4.743213
H	-1.386303	-6.268513	-3.788623
H	0.316492	-5.658187	-3.877260
C	0.881930	-4.546999	3.521580
H	1.145969	-5.107564	4.438260
H	-0.142712	-4.131473	3.631868
H	1.605610	-3.712085	3.399425
C	-0.367928	-2.314326	-1.009535
S	0.542088	-2.295487	1.450945
C	-0.000000	-1.435180	-0.000000
H	-0.730999	-1.993211	-1.993920
C	0.000000	0.000000	0.000000
S	0.382139	0.814215	1.510732
C	1.046923	2.242395	0.727629
C	0.383804	0.823142	-1.064665
C	0.969360	2.082453	-0.678287
C	0.357247	0.762277	-2.486150
C	0.891671	1.908660	-3.106916
S	1.415865	3.040689	-1.965735
C	1.003453	2.137318	-4.559972
O	0.611644	1.290019	-5.350277
O	1.548687	3.298916	-5.004375
F	-0.110054	-0.249117	-3.246290
C	1.709479	3.619721	-6.334976
H	2.177001	4.620902	-6.370268
H	0.737443	3.643380	-6.875609
H	2.359363	2.886384	-6.861878
H	1.435800	3.076190	1.321510
H	-0.888291	-9.146471	0.049086
H	0.794665	-9.150570	-0.578334
H	-1.011908	-1.444158	0.377309
$end

$rem
JOBTYPE		SP
EXCHANGE	HF
CORRELATION	pRIMP2
BASIS		cc-pvtz
METHOD		rimp2
AUX_BASIS	rimp2-cc-pvtz
SOLVENT_METHOD	PCM
PURECART	11111
SYMMETRY	false
MEM_TOTAL	110000
SCF_CONVERGENCE = 6
THRESH=10
GUI = 2
$end

$solvent
dielectric 4.90
$end
--------------------------------------------------------------

             Standard Nuclear Orientation (Angstroms)
    I     Atom           X                Y                Z
 ----------------------------------------------------------------
    1      C      -0.0465740000    -8.5197410000    -0.2680900000
    2      C       0.3268860000    -7.6359670000     0.7339200000
    3      S      -0.5957080000    -7.6517400000    -1.7223180000
    4      C       0.1932360000    -6.2618940000     0.3715160000
    5      H       0.6927000000    -7.9547380000     1.7181300000
    6      C      -0.2949580000    -6.0799850000    -0.9702830000
    7      C      -0.5154870000    -4.7983820000    -1.4982430000
    8      C       0.4773580000    -5.1535420000     1.2197250000
    9      C       0.2526550000    -3.8696260000     0.6929140000
   10      C      -0.2333660000    -3.6889270000    -0.6512890000
   11      O       0.9573690000    -5.4810750000     2.4516230000
   12      O      -0.9987690000    -4.4798710000    -2.7352640000
   13      C      -0.7520290000    -5.3560260000    -3.8283870000
   14      H      -1.0126750000    -4.7904960000    -4.7432130000
   15      H      -1.3863030000    -6.2685130000    -3.7886230000
   16      H       0.3164920000    -5.6581870000    -3.8772600000
   17      C       0.8819300000    -4.5469990000     3.5215800000
   18      H       1.1459690000    -5.1075640000     4.4382600000
   19      H      -0.1427120000    -4.1314730000     3.6318680000
   20      H       1.6056100000    -3.7120850000     3.3994250000
   21      C      -0.3679280000    -2.3143260000    -1.0095350000
   22      S       0.5420880000    -2.2954870000     1.4509450000
   23      C       0.0000000000    -1.4351800000     0.0000000000
   24      H      -0.7309990000    -1.9932110000    -1.9939200000
   25      C       0.0000000000     0.0000000000     0.0000000000
   26      S       0.3821390000     0.8142150000     1.5107320000
   27      C       1.0469230000     2.2423950000     0.7276290000
   28      C       0.3838040000     0.8231420000    -1.0646650000
   29      C       0.9693600000     2.0824530000    -0.6782870000
   30      C       0.3572470000     0.7622770000    -2.4861500000
   31      C       0.8916710000     1.9086600000    -3.1069160000
   32      S       1.4158650000     3.0406890000    -1.9657350000
   33      C       1.0034530000     2.1373180000    -4.5599720000
   34      O       0.6116440000     1.2900190000    -5.3502770000
   35      O       1.5486870000     3.2989160000    -5.0043750000
   36      F      -0.1100540000    -0.2491170000    -3.2462900000
   37      C       1.7094790000     3.6197210000    -6.3349760000
   38      H       2.1770010000     4.6209020000    -6.3702680000
   39      H       0.7374430000     3.6433800000    -6.8756090000
   40      H       2.3593630000     2.8863840000    -6.8618780000
   41      H       1.4358000000     3.0761900000     1.3215100000
   42      H      -0.8882910000    -9.1464710000     0.0490860000
   43      H       0.7946650000    -9.1505700000    -0.5783340000
   44      H      -1.0119080000    -1.4441580000     0.3773090000
 ----------------------------------------------------------------

   11   -2755.3103653084      7.21e-07  Convergence criterion met
 Total energy in the final basis set =    -2755.3103653084
        RIMP2         total energy =     -2760.4066750060 a.u.

                    Orbital Energies (a.u.)
 --------------------------------------------------------------

 Alpha MOs
 -- Occupied --
-92.0155 -91.9943 -91.9827 -91.9586 -26.3387 -20.6119 -20.5887 -20.5867
-20.5494 -11.4098 -11.3792 -11.3172 -11.3100 -11.3093 -11.2974 -11.2958
-11.2906 -11.2885 -11.2859 -11.2843 -11.2830 -11.2819 -11.2791 -11.2734
-11.2714 -11.2591 -11.2589 -11.2502 -11.2387  -9.0142  -8.9984  -8.9849
 -8.9612  -6.6950  -6.6944  -6.6939  -6.6796  -6.6790  -6.6776  -6.6659
 -6.6650  -6.6637  -6.6424  -6.6415  -6.6404  -1.6527  -1.4715  -1.4119
 -1.4086  -1.3668  -1.2390  -1.2102  -1.1765  -1.1440  -1.0999  -1.0507
 -1.0474  -1.0298  -1.0098  -0.9992  -0.9723  -0.9598  -0.9495  -0.9405
 -0.8953  -0.8725  -0.8638  -0.8095  -0.7978  -0.7870  -0.7760  -0.7704
 -0.7640  -0.7323  -0.7235  -0.7201  -0.6980  -0.6939  -0.6844  -0.6785
 -0.6727  -0.6677  -0.6573  -0.6488  -0.6392  -0.6299  -0.6206  -0.6149
 -0.6090  -0.6062  -0.5956  -0.5930  -0.5762  -0.5704  -0.5593  -0.5529
 -0.5465  -0.5367  -0.5327  -0.5228  -0.5148  -0.5092  -0.5066  -0.5007
 -0.4852  -0.4837  -0.4783  -0.4709  -0.4620  -0.4610  -0.4579  -0.4466
 -0.4321  -0.3976  -0.3873  -0.3709  -0.3509  -0.2941  -0.2850  -0.2171

          Ground-State Mulliken Net Atomic Charges

     Atom                 Charge (a.u.)
  ----------------------------------------
      1 C                    -0.070441
      2 C                    -0.256054
      3 S                    -0.133995
      4 C                    -0.046564
      5 H                     0.193885
      6 C                    -0.052616
      7 C                     0.225668
      8 C                     0.227579
      9 C                    -0.077068
     10 C                    -0.044513
     11 O                    -0.333756
     12 O                    -0.343175
     13 C                    -0.082803
     14 H                     0.121553
     15 H                     0.091826
     16 H                     0.092722
     17 C                    -0.088646
     18 H                     0.124727
     19 H                     0.092928
     20 H                     0.089822
     21 C                    -0.286291
     22 S                    -0.085009
     23 C                     0.083906
     24 H                     0.211455
     25 C                    -0.074189
     26 S                     0.081279
     27 C                    -0.235893
     28 C                    -0.057093
     29 C                    -0.021191
     30 C                     0.379044
     31 C                    -0.143882
     32 S                     0.038094
     33 C                     0.457509
     34 O                    -0.452459
     35 O                    -0.298244
     36 F                    -0.214368
     37 C                    -0.054909
     38 H                     0.116614
     39 H                     0.084298
     40 H                     0.084397
     41 H                     0.216148
     42 H                     0.117889
     43 H                     0.115720
     44 H                     0.206097
  ----------------------------------------
  Sum of atomic charges =     0.000000

                    Cartesian Multipole Moments
 -----------------------------------------------------------------
    Charge (ESU x 10^10)
                -0.0000
    Dipole Moment (Debye)
         X       0.8418      Y       2.4396      Z       3.7596
       Tot       4.5602
    Quadrupole Moments (Debye-Ang)
        XX    -198.7695     XY       4.4006     YY    -174.8172
        XZ      -4.0320     YZ     -13.3152     ZZ    -188.0765

 Total job time:  341.99s(wall), 10499.50s(cpu)
        *  Thank you very much for using Q-Chem.  Have a nice day.  *
