 Q-Chem 5.4, Q-Chem, Inc., Pleasanton, CA (2021)
 Q-Chem 5.4.0 for Intel X86 EM64T Linux

User input:
--------------------------------------------------------------
$molecule
0 1
C	0.235306	-8.519741	0.136647
C	-0.772334	-7.635967	-0.221346
S	1.702286	-7.651740	0.650746
C	-0.408807	-6.261894	-0.090779
H	-1.761423	-7.954738	-0.573754
C	0.932876	-6.079985	0.397735
C	1.479069	-4.798382	0.568166
C	-1.241204	-5.153542	-0.418347
C	-0.693206	-3.869626	-0.251852
C	0.648921	-3.688927	0.239872
O	-2.493437	-5.481075	-0.842486
O	2.737331	-4.479871	0.993092
C	3.416110	-5.356026	1.884752
H	4.284447	-4.790496	2.273124
H	3.793352	-6.268513	1.373310
H	2.766716	-5.658187	2.734702
C	-3.264581	-4.546999	-1.588030
H	-4.136519	-5.107564	-1.974995
H	-2.690439	-4.131473	-2.443843
H	-3.636177	-3.712085	-0.955140
C	1.009848	-2.314326	0.367068
S	-1.459936	-2.295487	-0.517386
C	-0.000000	-1.435180	-0.000000
H	1.997308	-1.993211	0.721689
C	0.000000	0.000000	0.000000
S	0.690437	0.576430	1.510732
C	1.896512	1.589852	0.727629
C	0.695720	0.583817	-1.064665
C	1.758621	1.477674	-0.678287
C	0.645928	0.539878	-2.486150
C	1.614763	1.352997	-3.106916
S	2.568261	2.157430	-1.965735
C	1.812707	1.512991	-4.559972
O	1.099523	0.910662	-5.350277
O	2.797769	2.335330	-5.004375
F	-0.205024	-0.179266	-3.246290
C	3.079074	2.558124	-6.334976
H	3.925910	3.267919	-6.370268
H	2.208109	2.990367	-6.875609
H	3.358147	1.618843	-6.861878
H	2.601331	2.181180	1.321510
H	0.533380	-9.146471	-0.712022
H	-0.067771	-9.150570	0.980494
H	0.361406	-1.444158	-1.017696
$end

$rem
JOBTYPE		SP
EXCHANGE	HF
CORRELATION	pRIMP2
BASIS		cc-pvtz
METHOD		rimp2
AUX_BASIS	rimp2-cc-pvtz
SOLVENT_METHOD	PCM
PURECART	11111
SYMMETRY	false
MEM_TOTAL	110000
SCF_CONVERGENCE = 6
THRESH=10
GUI = 2
$end

$solvent
dielectric 4.90
$end
--------------------------------------------------------------

             Standard Nuclear Orientation (Angstroms)
    I     Atom           X                Y                Z
 ----------------------------------------------------------------
    1      C       0.2353060000    -8.5197410000     0.1366470000
    2      C      -0.7723340000    -7.6359670000    -0.2213460000
    3      S       1.7022860000    -7.6517400000     0.6507460000
    4      C      -0.4088070000    -6.2618940000    -0.0907790000
    5      H      -1.7614230000    -7.9547380000    -0.5737540000
    6      C       0.9328760000    -6.0799850000     0.3977350000
    7      C       1.4790690000    -4.7983820000     0.5681660000
    8      C      -1.2412040000    -5.1535420000    -0.4183470000
    9      C      -0.6932060000    -3.8696260000    -0.2518520000
   10      C       0.6489210000    -3.6889270000     0.2398720000
   11      O      -2.4934370000    -5.4810750000    -0.8424860000
   12      O       2.7373310000    -4.4798710000     0.9930920000
   13      C       3.4161100000    -5.3560260000     1.8847520000
   14      H       4.2844470000    -4.7904960000     2.2731240000
   15      H       3.7933520000    -6.2685130000     1.3733100000
   16      H       2.7667160000    -5.6581870000     2.7347020000
   17      C      -3.2645810000    -4.5469990000    -1.5880300000
   18      H      -4.1365190000    -5.1075640000    -1.9749950000
   19      H      -2.6904390000    -4.1314730000    -2.4438430000
   20      H      -3.6361770000    -3.7120850000    -0.9551400000
   21      C       1.0098480000    -2.3143260000     0.3670680000
   22      S      -1.4599360000    -2.2954870000    -0.5173860000
   23      C       0.0000000000    -1.4351800000     0.0000000000
   24      H       1.9973080000    -1.9932110000     0.7216890000
   25      C       0.0000000000     0.0000000000     0.0000000000
   26      S       0.6904370000     0.5764300000     1.5107320000
   27      C       1.8965120000     1.5898520000     0.7276290000
   28      C       0.6957200000     0.5838170000    -1.0646650000
   29      C       1.7586210000     1.4776740000    -0.6782870000
   30      C       0.6459280000     0.5398780000    -2.4861500000
   31      C       1.6147630000     1.3529970000    -3.1069160000
   32      S       2.5682610000     2.1574300000    -1.9657350000
   33      C       1.8127070000     1.5129910000    -4.5599720000
   34      O       1.0995230000     0.9106620000    -5.3502770000
   35      O       2.7977690000     2.3353300000    -5.0043750000
   36      F      -0.2050240000    -0.1792660000    -3.2462900000
   37      C       3.0790740000     2.5581240000    -6.3349760000
   38      H       3.9259100000     3.2679190000    -6.3702680000
   39      H       2.2081090000     2.9903670000    -6.8756090000
   40      H       3.3581470000     1.6188430000    -6.8618780000
   41      H       2.6013310000     2.1811800000     1.3215100000
   42      H       0.5333800000    -9.1464710000    -0.7120220000
   43      H      -0.0677710000    -9.1505700000     0.9804940000
   44      H       0.3614060000    -1.4441580000    -1.0176960000
 ----------------------------------------------------------------

   11   -2755.2766147020      7.47e-07  Convergence criterion met
 Total energy in the final basis set =    -2755.2766147020
        RIMP2         total energy =     -2760.3839562234 a.u.

                    Orbital Energies (a.u.)
 --------------------------------------------------------------

 Alpha MOs
 -- Occupied --
-92.0159 -92.0056 -91.9676 -91.9564 -26.3379 -20.6163 -20.5865 -20.5833
-20.5572 -11.4166 -11.3785 -11.3171 -11.3114 -11.3076 -11.3017 -11.3012
-11.2921 -11.2908 -11.2872 -11.2825 -11.2814 -11.2789 -11.2736 -11.2706
-11.2705 -11.2557 -11.2544 -11.2476 -11.2323  -9.0147  -9.0092  -8.9702
 -8.9590  -6.6954  -6.6946  -6.6944  -6.6903  -6.6897  -6.6884  -6.6513
 -6.6504  -6.6491  -6.6403  -6.6393  -6.6383  -1.6511  -1.4765  -1.4086
 -1.4063  -1.3726  -1.2475  -1.2060  -1.1741  -1.1463  -1.0982  -1.0558
 -1.0428  -1.0337  -1.0059  -0.9944  -0.9761  -0.9583  -0.9474  -0.9407
 -0.8902  -0.8783  -0.8576  -0.8114  -0.7962  -0.7845  -0.7812  -0.7680
 -0.7592  -0.7327  -0.7208  -0.7183  -0.6977  -0.6920  -0.6885  -0.6822
 -0.6779  -0.6752  -0.6534  -0.6468  -0.6299  -0.6277  -0.6181  -0.6145
 -0.6116  -0.6096  -0.6022  -0.5945  -0.5774  -0.5635  -0.5554  -0.5551
 -0.5521  -0.5324  -0.5252  -0.5213  -0.5109  -0.5060  -0.5051  -0.4986
 -0.4916  -0.4850  -0.4720  -0.4669  -0.4654  -0.4633  -0.4557  -0.4432
 -0.4237  -0.3969  -0.3815  -0.3676  -0.3489  -0.3013  -0.2858  -0.2163

          Ground-State Mulliken Net Atomic Charges

     Atom                 Charge (a.u.)
  ----------------------------------------
      1 C                    -0.069364
      2 C                    -0.272106
      3 S                    -0.139641
      4 C                    -0.040436
      5 H                     0.191984
      6 C                    -0.053168
      7 C                     0.223848
      8 C                     0.217383
      9 C                    -0.070179
     10 C                    -0.057908
     11 O                    -0.336658
     12 O                    -0.344433
     13 C                    -0.082494
     14 H                     0.119020
     15 H                     0.092087
     16 H                     0.092678
     17 C                    -0.086298
     18 H                     0.121735
     19 H                     0.092244
     20 H                     0.089867
     21 C                    -0.265895
     22 S                    -0.099589
     23 C                     0.058565
     24 H                     0.207046
     25 C                    -0.136992
     26 S                     0.113307
     27 C                    -0.179248
     28 C                    -0.043923
     29 C                    -0.015200
     30 C                     0.336836
     31 C                    -0.120255
     32 S                     0.071017
     33 C                     0.458153
     34 O                    -0.439613
     35 O                    -0.296713
     36 F                    -0.210313
     37 C                    -0.054602
     38 H                     0.117569
     39 H                     0.085698
     40 H                     0.085775
     41 H                     0.219509
     42 H                     0.115830
     43 H                     0.113236
     44 H                     0.191642
  ----------------------------------------
  Sum of atomic charges =     0.000000

                    Cartesian Multipole Moments
 -----------------------------------------------------------------
    Charge (ESU x 10^10)
                 0.0000
    Dipole Moment (Debye)
         X       4.3487      Y       4.5057      Z       2.1446
       Tot       6.6190
    Quadrupole Moments (Debye-Ang)
        XX    -179.4415     XY      12.5867     YY    -189.5835
        XZ      -0.9920     YZ      -7.1163     ZZ    -195.4198

 Total job time:  338.07s(wall), 10679.27s(cpu)
        *  Thank you very much for using Q-Chem.  Have a nice day.  *
