 Q-Chem 5.4, Q-Chem, Inc., Pleasanton, CA (2021)
 Q-Chem 5.4.0 for Intel X86 EM64T Linux

User input:
--------------------------------------------------------------
$molecule
0 1
C	-0.255929	-8.519741	0.092419
C	0.666007	-7.635967	-0.449364
S	-1.592708	-7.651740	0.885736
C	0.332317	-6.261894	-0.254813
H	1.571741	-7.954738	-0.980526
C	-0.904324	-6.079985	0.458965
C	-1.385968	-4.798382	0.767823
C	1.118303	-5.153542	-0.681909
C	0.638514	-3.869626	-0.369139
C	-0.600871	-3.688927	0.342916
O	2.248132	-5.481075	-1.368544
O	-2.520275	-4.479871	1.458570
C	-3.639637	-5.356026	1.405396
H	-4.495304	-4.790496	1.820940
H	-3.490336	-6.268513	2.023129
H	-3.873314	-5.658187	0.361595
C	3.314934	-4.546999	-1.480048
H	4.171837	-5.107564	-1.899255
H	3.601473	-4.131473	-0.490123
H	3.068969	-3.712085	-2.171521
C	-0.930308	-2.314326	0.537642
S	1.334769	-2.295487	-0.785807
C	0.000000	-1.435180	0.000000
H	-1.836691	-1.993211	1.066134
C	0.000000	0.000000	0.000000
S	0.309721	0.844422	1.510732
C	0.847502	2.325108	0.727629
C	0.310602	0.853460	-1.064665
C	0.784173	2.159014	-0.678287
C	0.289451	0.790512	-2.486150
C	0.721927	1.979112	-3.106916
S	1.145464	3.152519	-1.965735
C	0.813355	2.216642	-4.559972
O	0.496884	1.338418	-5.350277
O	1.255274	3.421340	-5.004375
F	-0.087923	-0.257761	-3.246290
C	1.387494	3.754937	-6.334976
H	1.765978	4.793056	-6.370268
H	0.417095	3.693789	-6.875609
H	2.098820	3.081033	-6.861878
H	1.162229	3.189623	1.321510
H	0.202590	-9.146471	0.866272
H	-0.707539	-9.150570	-0.682165
H	0.547293	-1.444158	0.931016
$end

$rem
JOBTYPE		SP
EXCHANGE	HF
CORRELATION	pRIMP2
BASIS		cc-pvtz
METHOD		rimp2
AUX_BASIS	rimp2-cc-pvtz
SOLVENT_METHOD	PCM
PURECART	11111
SYMMETRY	false
MEM_TOTAL	110000
SCF_CONVERGENCE = 6
THRESH=10
GUI = 2
$end

$solvent
dielectric 4.90
$end
--------------------------------------------------------------

             Standard Nuclear Orientation (Angstroms)
    I     Atom           X                Y                Z
 ----------------------------------------------------------------
    1      C      -0.2559290000    -8.5197410000     0.0924190000
    2      C       0.6660070000    -7.6359670000    -0.4493640000
    3      S      -1.5927080000    -7.6517400000     0.8857360000
    4      C       0.3323170000    -6.2618940000    -0.2548130000
    5      H       1.5717410000    -7.9547380000    -0.9805260000
    6      C      -0.9043240000    -6.0799850000     0.4589650000
    7      C      -1.3859680000    -4.7983820000     0.7678230000
    8      C       1.1183030000    -5.1535420000    -0.6819090000
    9      C       0.6385140000    -3.8696260000    -0.3691390000
   10      C      -0.6008710000    -3.6889270000     0.3429160000
   11      O       2.2481320000    -5.4810750000    -1.3685440000
   12      O      -2.5202750000    -4.4798710000     1.4585700000
   13      C      -3.6396370000    -5.3560260000     1.4053960000
   14      H      -4.4953040000    -4.7904960000     1.8209400000
   15      H      -3.4903360000    -6.2685130000     2.0231290000
   16      H      -3.8733140000    -5.6581870000     0.3615950000
   17      C       3.3149340000    -4.5469990000    -1.4800480000
   18      H       4.1718370000    -5.1075640000    -1.8992550000
   19      H       3.6014730000    -4.1314730000    -0.4901230000
   20      H       3.0689690000    -3.7120850000    -2.1715210000
   21      C      -0.9303080000    -2.3143260000     0.5376420000
   22      S       1.3347690000    -2.2954870000    -0.7858070000
   23      C       0.0000000000    -1.4351800000     0.0000000000
   24      H      -1.8366910000    -1.9932110000     1.0661340000
   25      C       0.0000000000     0.0000000000     0.0000000000
   26      S       0.3097210000     0.8444220000     1.5107320000
   27      C       0.8475020000     2.3251080000     0.7276290000
   28      C       0.3106020000     0.8534600000    -1.0646650000
   29      C       0.7841730000     2.1590140000    -0.6782870000
   30      C       0.2894510000     0.7905120000    -2.4861500000
   31      C       0.7219270000     1.9791120000    -3.1069160000
   32      S       1.1454640000     3.1525190000    -1.9657350000
   33      C       0.8133550000     2.2166420000    -4.5599720000
   34      O       0.4968840000     1.3384180000    -5.3502770000
   35      O       1.2552740000     3.4213400000    -5.0043750000
   36      F      -0.0879230000    -0.2577610000    -3.2462900000
   37      C       1.3874940000     3.7549370000    -6.3349760000
   38      H       1.7659780000     4.7930560000    -6.3702680000
   39      H       0.4170950000     3.6937890000    -6.8756090000
   40      H       2.0988200000     3.0810330000    -6.8618780000
   41      H       1.1622290000     3.1896230000     1.3215100000
   42      H       0.2025900000    -9.1464710000     0.8662720000
   43      H      -0.7075390000    -9.1505700000    -0.6821650000
   44      H       0.5472930000    -1.4441580000     0.9310160000
 ----------------------------------------------------------------

   11   -2755.3183515132      8.07e-07  Convergence criterion met
 Total energy in the final basis set =    -2755.3183515132
        RIMP2         total energy =     -2760.4103632985 a.u.

                    Orbital Energies (a.u.)
 --------------------------------------------------------------

 Alpha MOs
 -- Occupied --
-92.0161 -91.9954 -91.9784 -91.9579 -26.3348 -20.6128 -20.5872 -20.5865
-20.5510 -11.4112 -11.3782 -11.3133 -11.3089 -11.3069 -11.2992 -11.2977
-11.2962 -11.2888 -11.2841 -11.2830 -11.2828 -11.2823 -11.2810 -11.2725
-11.2723 -11.2579 -11.2573 -11.2493 -11.2362  -9.0149  -8.9995  -8.9805
 -8.9605  -6.6956  -6.6950  -6.6945  -6.6807  -6.6801  -6.6787  -6.6616
 -6.6607  -6.6594  -6.6417  -6.6408  -6.6398  -1.6478  -1.4725  -1.4101
 -1.4088  -1.3679  -1.2395  -1.2092  -1.1754  -1.1444  -1.0990  -1.0509
 -1.0455  -1.0317  -1.0081  -0.9976  -0.9727  -0.9597  -0.9484  -0.9406
 -0.8933  -0.8715  -0.8640  -0.8100  -0.7928  -0.7852  -0.7761  -0.7730
 -0.7653  -0.7331  -0.7210  -0.7160  -0.6968  -0.6928  -0.6820  -0.6790
 -0.6724  -0.6657  -0.6562  -0.6484  -0.6361  -0.6284  -0.6197  -0.6147
 -0.6110  -0.6071  -0.5961  -0.5929  -0.5814  -0.5641  -0.5627  -0.5569
 -0.5485  -0.5346  -0.5281  -0.5214  -0.5126  -0.5074  -0.5034  -0.5015
 -0.4870  -0.4848  -0.4770  -0.4696  -0.4619  -0.4619  -0.4610  -0.4464
 -0.4249  -0.4022  -0.3855  -0.3704  -0.3513  -0.2932  -0.2876  -0.2190

          Ground-State Mulliken Net Atomic Charges

     Atom                 Charge (a.u.)
  ----------------------------------------
      1 C                    -0.069959
      2 C                    -0.261394
      3 S                    -0.136547
      4 C                    -0.044636
      5 H                     0.193269
      6 C                    -0.049715
      7 C                     0.220898
      8 C                     0.224002
      9 C                    -0.071805
     10 C                    -0.032506
     11 O                    -0.334769
     12 O                    -0.343686
     13 C                    -0.082506
     14 H                     0.119759
     15 H                     0.091913
     16 H                     0.093292
     17 C                    -0.087515
     18 H                     0.123499
     19 H                     0.091858
     20 H                     0.091137
     21 C                    -0.286249
     22 S                    -0.078265
     23 C                     0.074599
     24 H                     0.203510
     25 C                    -0.028128
     26 S                     0.097739
     27 C                    -0.234356
     28 C                    -0.146337
     29 C                     0.000585
     30 C                     0.396376
     31 C                    -0.151108
     32 S                     0.039596
     33 C                     0.460541
     34 O                    -0.448173
     35 O                    -0.297774
     36 F                    -0.210757
     37 C                    -0.054926
     38 H                     0.116670
     39 H                     0.084858
     40 H                     0.084679
     41 H                     0.215840
     42 H                     0.117036
     43 H                     0.114975
     44 H                     0.194477
  ----------------------------------------
  Sum of atomic charges =     0.000000

                    Cartesian Multipole Moments
 -----------------------------------------------------------------
    Charge (ESU x 10^10)
                -0.0000
    Dipole Moment (Debye)
         X       1.6824      Y       3.5192      Z       3.5351
       Tot       5.2642
    Quadrupole Moments (Debye-Ang)
        XX    -181.8046     XY       1.8497     YY    -177.0048
        XZ      -7.4177     YZ      -8.1774     ZZ    -205.1002

 Total job time:  325.78s(wall), 10535.26s(cpu)
        *  Thank you very much for using Q-Chem.  Have a nice day.  *
