 Q-Chem 5.4, Q-Chem, Inc., Pleasanton, CA (2021)
 Q-Chem 5.4.0 for Intel X86 EM64T Linux

User input:
--------------------------------------------------------------
$molecule
0 1
C	0.135457	-8.519741	0.235993
C	-0.558188	-7.635967	-0.577858
S	1.148850	-7.651740	1.414705
C	-0.308648	-6.261894	-0.283020
H	-1.238560	-7.954738	-1.377597
C	0.609026	-6.079985	0.810887
C	0.996828	-4.798382	1.231581
C	-0.865740	-5.153542	-0.982901
C	-0.474408	-3.869626	-0.564713
C	0.442046	-3.688927	0.532196
O	-1.738137	-5.481075	-1.976332
O	1.874052	-4.479871	2.228709
C	2.016062	-5.356026	3.340298
H	2.573877	-4.790496	4.110807
H	2.598484	-6.268513	3.085998
H	1.028695	-5.658187	3.751679
C	-2.033195	-4.546999	-3.007565
H	-2.594833	-5.107564	-3.778655
H	-1.108067	-4.131473	-3.461650
H	-2.671451	-3.712085	-2.645264
C	0.691020	-2.314326	0.822814
S	-1.005649	-2.295487	-1.178037
C	0.000000	-1.435180	0.000000
H	1.368875	-1.993211	1.623656
C	0.000000	0.000000	0.000000
S	0.080615	0.895811	1.510732
C	0.216842	2.465231	0.727629
C	0.079127	0.904769	-1.064665
C	0.198659	2.288406	-0.678287
C	0.074988	0.838492	-2.486150
C	0.185097	2.098524	-3.106916
S	0.290501	3.341568	-1.965735
C	0.211932	2.351623	-4.559972
O	0.133545	1.421416	-5.350277
O	0.326994	3.629649	-5.004375
F	-0.018214	-0.271734	-3.246290
C	0.368367	3.986101	-6.334976
H	0.465270	5.086806	-6.370268
H	-0.553140	3.675878	-6.875609
H	1.229874	3.519263	-6.861878
H	0.297091	3.381746	1.321510
H	0.817932	-9.146471	-0.349939
H	-0.548939	-9.150570	0.815247
H	0.821835	-1.444158	-0.700647
$end

$rem
JOBTYPE		SP
EXCHANGE	HF
CORRELATION	pRIMP2
BASIS		cc-pvtz
METHOD		rimp2
AUX_BASIS	rimp2-cc-pvtz
SOLVENT_METHOD	PCM
PURECART	11111
SYMMETRY	false
MEM_TOTAL	110000
SCF_CONVERGENCE = 6
THRESH=10
GUI = 2
$end

$solvent
dielectric 4.90
$end
--------------------------------------------------------------

             Standard Nuclear Orientation (Angstroms)
    I     Atom           X                Y                Z
 ----------------------------------------------------------------
    1      C       0.1354570000    -8.5197410000     0.2359930000
    2      C      -0.5581880000    -7.6359670000    -0.5778580000
    3      S       1.1488500000    -7.6517400000     1.4147050000
    4      C      -0.3086480000    -6.2618940000    -0.2830200000
    5      H      -1.2385600000    -7.9547380000    -1.3775970000
    6      C       0.6090260000    -6.0799850000     0.8108870000
    7      C       0.9968280000    -4.7983820000     1.2315810000
    8      C      -0.8657400000    -5.1535420000    -0.9829010000
    9      C      -0.4744080000    -3.8696260000    -0.5647130000
   10      C       0.4420460000    -3.6889270000     0.5321960000
   11      O      -1.7381370000    -5.4810750000    -1.9763320000
   12      O       1.8740520000    -4.4798710000     2.2287090000
   13      C       2.0160620000    -5.3560260000     3.3402980000
   14      H       2.5738770000    -4.7904960000     4.1108070000
   15      H       2.5984840000    -6.2685130000     3.0859980000
   16      H       1.0286950000    -5.6581870000     3.7516790000
   17      C      -2.0331950000    -4.5469990000    -3.0075650000
   18      H      -2.5948330000    -5.1075640000    -3.7786550000
   19      H      -1.1080670000    -4.1314730000    -3.4616500000
   20      H      -2.6714510000    -3.7120850000    -2.6452640000
   21      C       0.6910200000    -2.3143260000     0.8228140000
   22      S      -1.0056490000    -2.2954870000    -1.1780370000
   23      C       0.0000000000    -1.4351800000     0.0000000000
   24      H       1.3688750000    -1.9932110000     1.6236560000
   25      C       0.0000000000     0.0000000000     0.0000000000
   26      S       0.0806150000     0.8958110000     1.5107320000
   27      C       0.2168420000     2.4652310000     0.7276290000
   28      C       0.0791270000     0.9047690000    -1.0646650000
   29      C       0.1986590000     2.2884060000    -0.6782870000
   30      C       0.0749880000     0.8384920000    -2.4861500000
   31      C       0.1850970000     2.0985240000    -3.1069160000
   32      S       0.2905010000     3.3415680000    -1.9657350000
   33      C       0.2119320000     2.3516230000    -4.5599720000
   34      O       0.1335450000     1.4214160000    -5.3502770000
   35      O       0.3269940000     3.6296490000    -5.0043750000
   36      F      -0.0182140000    -0.2717340000    -3.2462900000
   37      C       0.3683670000     3.9861010000    -6.3349760000
   38      H       0.4652700000     5.0868060000    -6.3702680000
   39      H      -0.5531400000     3.6758780000    -6.8756090000
   40      H       1.2298740000     3.5192630000    -6.8618780000
   41      H       0.2970910000     3.3817460000     1.3215100000
   42      H       0.8179320000    -9.1464710000    -0.3499390000
   43      H      -0.5489390000    -9.1505700000     0.8152470000
   44      H       0.8218350000    -1.4441580000    -0.7006470000
 ----------------------------------------------------------------

   11   -2755.3262060294      7.28e-07  Convergence criterion met
 Total energy in the final basis set =    -2755.3262060294
        RIMP2         total energy =     -2760.4179605797 a.u.

                    Orbital Energies (a.u.)
 --------------------------------------------------------------

 Alpha MOs
 -- Occupied --
-92.0151 -91.9939 -91.9772 -91.9596 -26.3354 -20.6116 -20.5879 -20.5873
-20.5488 -11.4094 -11.3788 -11.3222 -11.3096 -11.3086 -11.2974 -11.2946
-11.2884 -11.2867 -11.2846 -11.2839 -11.2836 -11.2835 -11.2794 -11.2751
-11.2727 -11.2610 -11.2591 -11.2509 -11.2397  -9.0135  -8.9980  -8.9796
 -8.9622  -6.6942  -6.6936  -6.6932  -6.6793  -6.6786  -6.6772  -6.6607
 -6.6598  -6.6585  -6.6434  -6.6425  -6.6414  -1.6493  -1.4713  -1.4108
 -1.4096  -1.3664  -1.2383  -1.2096  -1.1766  -1.1431  -1.1006  -1.0509
 -1.0466  -1.0289  -1.0088  -0.9992  -0.9717  -0.9599  -0.9490  -0.9407
 -0.8942  -0.8734  -0.8628  -0.8116  -0.7922  -0.7861  -0.7786  -0.7671
 -0.7625  -0.7338  -0.7189  -0.7172  -0.6979  -0.6934  -0.6860  -0.6782
 -0.6758  -0.6716  -0.6559  -0.6489  -0.6342  -0.6301  -0.6212  -0.6154
 -0.6107  -0.6056  -0.5959  -0.5923  -0.5806  -0.5659  -0.5605  -0.5585
 -0.5502  -0.5322  -0.5281  -0.5209  -0.5137  -0.5084  -0.5042  -0.5001
 -0.4871  -0.4836  -0.4801  -0.4689  -0.4615  -0.4611  -0.4601  -0.4469
 -0.4296  -0.3999  -0.3851  -0.3712  -0.3507  -0.2929  -0.2854  -0.2192

          Ground-State Mulliken Net Atomic Charges

     Atom                 Charge (a.u.)
  ----------------------------------------
      1 C                    -0.070557
      2 C                    -0.250975
      3 S                    -0.132373
      4 C                    -0.047040
      5 H                     0.194765
      6 C                    -0.050077
      7 C                     0.223295
      8 C                     0.231968
      9 C                    -0.084214
     10 C                    -0.051620
     11 O                    -0.335025
     12 O                    -0.343986
     13 C                    -0.082634
     14 H                     0.120038
     15 H                     0.092180
     16 H                     0.092810
     17 C                    -0.087651
     18 H                     0.123443
     19 H                     0.094279
     20 H                     0.089867
     21 C                    -0.271630
     22 S                    -0.066501
     23 C                     0.094506
     24 H                     0.205873
     25 C                    -0.061714
     26 S                     0.094190
     27 C                    -0.256924
     28 C                    -0.108522
     29 C                    -0.005851
     30 C                     0.385236
     31 C                    -0.145892
     32 S                     0.034009
     33 C                     0.460140
     34 O                    -0.453626
     35 O                    -0.298276
     36 F                    -0.210526
     37 C                    -0.055204
     38 H                     0.116534
     39 H                     0.084326
     40 H                     0.084205
     41 H                     0.213740
     42 H                     0.118692
     43 H                     0.116199
     44 H                     0.200523
  ----------------------------------------
  Sum of atomic charges =     0.000000

                    Cartesian Multipole Moments
 -----------------------------------------------------------------
    Charge (ESU x 10^10)
                -0.0000
    Dipole Moment (Debye)
         X       0.6084      Y       2.3023      Z       2.6754
       Tot       3.5817
    Quadrupole Moments (Debye-Ang)
        XX    -199.0164     XY       3.8955     YY    -170.7869
        XZ       5.4810     YZ      -7.0608     ZZ    -190.8641

 Total job time:  323.62s(wall), 10571.01s(cpu)
        *  Thank you very much for using Q-Chem.  Have a nice day.  *
