 Q-Chem 5.4, Q-Chem, Inc., Pleasanton, CA (2021)
 Q-Chem 5.4.0 for Intel X86 EM64T Linux

User input:
--------------------------------------------------------------
$molecule
0 1
C	0.047927	-8.519741	-0.267851
C	0.056157	-7.635967	0.801461
S	0.029285	-7.651740	-1.822194
C	0.054516	-6.261894	0.415201
H	0.063290	-7.954738	1.851431
C	0.054687	-6.079985	-1.012650
C	0.028030	-4.798382	-1.584194
C	0.031399	-5.153542	1.309433
C	0.000427	-3.869626	0.737539
C	0.003462	-3.688927	-0.691828
O	0.061128	-5.481075	2.631211
O	-0.003021	-4.479871	-2.911907
C	0.602710	-5.356026	-3.854716
H	0.670671	-4.790496	-4.803517
H	-0.006913	-6.268513	-4.034285
H	1.623507	-5.658187	-3.535185
C	-0.375708	-4.546999	3.610841
H	-0.441115	-5.107564	4.562544
H	-1.376277	-4.131473	3.364029
H	0.346107	-3.712085	3.743566
C	-0.000458	-2.314326	-1.074491
S	0.013144	-2.295487	1.548848
C	0.000000	-1.435180	0.000000
H	-0.004953	-1.993211	-2.123688
C	0.000000	0.000000	0.000000
S	0.309721	0.844422	1.510732
C	0.847502	2.325108	0.727629
C	0.310602	0.853460	-1.064665
C	0.784173	2.159014	-0.678287
C	0.289451	0.790512	-2.486150
C	0.721927	1.979112	-3.106916
S	1.145464	3.152519	-1.965735
C	0.813355	2.216642	-4.559972
O	0.496884	1.338418	-5.350277
O	1.255274	3.421340	-5.004375
F	-0.087923	-0.257761	-3.246290
C	1.387494	3.754937	-6.334976
H	1.765978	4.793056	-6.370268
H	0.417095	3.693789	-6.875609
H	2.098820	3.081033	-6.861878
H	1.162229	3.189623	1.321510
H	-0.851509	-9.146471	-0.257688
H	0.944542	-9.150570	-0.271664
H	-1.079930	-1.444158	0.008462
$end

$rem
JOBTYPE		SP
EXCHANGE	HF
CORRELATION	pRIMP2
BASIS		cc-pvtz
METHOD		rimp2
AUX_BASIS	rimp2-cc-pvtz
SOLVENT_METHOD	PCM
PURECART	11111
SYMMETRY	false
MEM_TOTAL	110000
SCF_CONVERGENCE = 6
THRESH=10
GUI = 2
$end

$solvent
dielectric 4.90
$end
--------------------------------------------------------------

             Standard Nuclear Orientation (Angstroms)
    I     Atom           X                Y                Z
 ----------------------------------------------------------------
    1      C       0.0479270000    -8.5197410000    -0.2678510000
    2      C       0.0561570000    -7.6359670000     0.8014610000
    3      S       0.0292850000    -7.6517400000    -1.8221940000
    4      C       0.0545160000    -6.2618940000     0.4152010000
    5      H       0.0632900000    -7.9547380000     1.8514310000
    6      C       0.0546870000    -6.0799850000    -1.0126500000
    7      C       0.0280300000    -4.7983820000    -1.5841940000
    8      C       0.0313990000    -5.1535420000     1.3094330000
    9      C       0.0004270000    -3.8696260000     0.7375390000
   10      C       0.0034620000    -3.6889270000    -0.6918280000
   11      O       0.0611280000    -5.4810750000     2.6312110000
   12      O      -0.0030210000    -4.4798710000    -2.9119070000
   13      C       0.6027100000    -5.3560260000    -3.8547160000
   14      H       0.6706710000    -4.7904960000    -4.8035170000
   15      H      -0.0069130000    -6.2685130000    -4.0342850000
   16      H       1.6235070000    -5.6581870000    -3.5351850000
   17      C      -0.3757080000    -4.5469990000     3.6108410000
   18      H      -0.4411150000    -5.1075640000     4.5625440000
   19      H      -1.3762770000    -4.1314730000     3.3640290000
   20      H       0.3461070000    -3.7120850000     3.7435660000
   21      C      -0.0004580000    -2.3143260000    -1.0744910000
   22      S       0.0131440000    -2.2954870000     1.5488480000
   23      C       0.0000000000    -1.4351800000     0.0000000000
   24      H      -0.0049530000    -1.9932110000    -2.1236880000
   25      C       0.0000000000     0.0000000000     0.0000000000
   26      S       0.3097210000     0.8444220000     1.5107320000
   27      C       0.8475020000     2.3251080000     0.7276290000
   28      C       0.3106020000     0.8534600000    -1.0646650000
   29      C       0.7841730000     2.1590140000    -0.6782870000
   30      C       0.2894510000     0.7905120000    -2.4861500000
   31      C       0.7219270000     1.9791120000    -3.1069160000
   32      S       1.1454640000     3.1525190000    -1.9657350000
   33      C       0.8133550000     2.2166420000    -4.5599720000
   34      O       0.4968840000     1.3384180000    -5.3502770000
   35      O       1.2552740000     3.4213400000    -5.0043750000
   36      F      -0.0879230000    -0.2577610000    -3.2462900000
   37      C       1.3874940000     3.7549370000    -6.3349760000
   38      H       1.7659780000     4.7930560000    -6.3702680000
   39      H       0.4170950000     3.6937890000    -6.8756090000
   40      H       2.0988200000     3.0810330000    -6.8618780000
   41      H       1.1622290000     3.1896230000     1.3215100000
   42      H      -0.8515090000    -9.1464710000    -0.2576880000
   43      H       0.9445420000    -9.1505700000    -0.2716640000
   44      H      -1.0799300000    -1.4441580000     0.0084620000
 ----------------------------------------------------------------

   11   -2755.3147029589      6.79e-07  Convergence criterion met
 Total energy in the final basis set =    -2755.3147029589
        RIMP2         total energy =     -2760.4095685901 a.u.

                    Orbital Energies (a.u.)
 --------------------------------------------------------------

 Alpha MOs
 -- Occupied --
-92.0148 -91.9932 -91.9835 -91.9596 -26.3402 -20.6112 -20.5899 -20.5870
-20.5481 -11.4088 -11.3798 -11.3223 -11.3122 -11.3099 -11.2971 -11.2934
-11.2881 -11.2865 -11.2856 -11.2855 -11.2854 -11.2822 -11.2773 -11.2747
-11.2701 -11.2606 -11.2601 -11.2514 -11.2414  -9.0135  -8.9973  -8.9857
 -8.9621  -6.6943  -6.6936  -6.6931  -6.6786  -6.6779  -6.6766  -6.6669
 -6.6660  -6.6647  -6.6434  -6.6424  -6.6414  -1.6549  -1.4707  -1.4131
 -1.4090  -1.3658  -1.2385  -1.2108  -1.1775  -1.1437  -1.1008  -1.0506
 -1.0483  -1.0289  -1.0106  -1.0002  -0.9718  -0.9599  -0.9503  -0.9408
 -0.8961  -0.8731  -0.8636  -0.8112  -0.7981  -0.7879  -0.7757  -0.7709
 -0.7635  -0.7342  -0.7235  -0.7213  -0.6988  -0.6950  -0.6848  -0.6780
 -0.6723  -0.6707  -0.6579  -0.6494  -0.6403  -0.6302  -0.6217  -0.6157
 -0.6083  -0.6053  -0.5956  -0.5922  -0.5771  -0.5714  -0.5599  -0.5527
 -0.5464  -0.5365  -0.5328  -0.5228  -0.5149  -0.5098  -0.5069  -0.5016
 -0.4844  -0.4837  -0.4796  -0.4693  -0.4624  -0.4607  -0.4580  -0.4479
 -0.4338  -0.3974  -0.3886  -0.3719  -0.3504  -0.2941  -0.2844  -0.2179

          Ground-State Mulliken Net Atomic Charges

     Atom                 Charge (a.u.)
  ----------------------------------------
      1 C                    -0.070788
      2 C                    -0.248369
      3 S                    -0.132007
      4 C                    -0.050860
      5 H                     0.194995
      6 C                    -0.050420
      7 C                     0.230535
      8 C                     0.235244
      9 C                    -0.077648
     10 C                    -0.036395
     11 O                    -0.333092
     12 O                    -0.343643
     13 C                    -0.083314
     14 H                     0.122016
     15 H                     0.092167
     16 H                     0.092600
     17 C                    -0.089159
     18 H                     0.125400
     19 H                     0.093505
     20 H                     0.090232
     21 C                    -0.321892
     22 S                    -0.095969
     23 C                     0.111952
     24 H                     0.221903
     25 C                    -0.041427
     26 S                     0.086675
     27 C                    -0.263987
     28 C                    -0.092590
     29 C                    -0.010327
     30 C                     0.375618
     31 C                    -0.143839
     32 S                     0.036685
     33 C                     0.458621
     34 O                    -0.454933
     35 O                    -0.298550
     36 F                    -0.216566
     37 C                    -0.054957
     38 H                     0.116492
     39 H                     0.084168
     40 H                     0.084054
     41 H                     0.215072
     42 H                     0.118976
     43 H                     0.116733
     44 H                     0.207089
  ----------------------------------------
  Sum of atomic charges =     0.000000

                    Cartesian Multipole Moments
 -----------------------------------------------------------------
    Charge (ESU x 10^10)
                 0.0000
    Dipole Moment (Debye)
         X       0.3034      Y       1.6345      Z       3.7196
       Tot       4.0742
    Quadrupole Moments (Debye-Ang)
        XX    -197.9126     XY       4.7114     YY    -170.1719
        XZ      -9.2685     YZ     -13.9887     ZZ    -190.5953

 Total job time:  359.66s(wall), 10720.62s(cpu)
        *  Thank you very much for using Q-Chem.  Have a nice day.  *
