 Q-Chem 5.4, Q-Chem, Inc., Pleasanton, CA (2021)
 Q-Chem 5.4.0 for Intel X86 EM64T Linux

User input:
--------------------------------------------------------------
$molecule
0 1
C	0.000687	-8.519741	-0.272104
C	0.194476	-7.635967	0.779533
S	-0.287581	-7.651740	-1.799596
C	0.125787	-6.261894	0.399427
H	0.383826	-7.954738	1.812314
C	-0.121989	-6.079985	-1.006762
C	-0.247488	-4.798382	-1.564994
C	0.258303	-5.153542	1.284087
C	0.128493	-3.869626	0.726260
C	-0.116725	-3.688927	-0.681918
O	0.517104	-5.481075	2.580622
O	-0.508622	-4.479871	-2.867144
C	-0.075811	-5.356026	-3.900814
H	-0.173640	-4.790496	-4.847002
H	-0.707354	-6.268513	-3.971794
H	0.984963	-5.658187	-3.763397
C	0.257016	-4.546999	3.621225
H	0.357864	-5.107564	4.569828
H	-0.771211	-4.131473	3.551910
H	0.990913	-3.712085	3.626592
C	-0.187034	-2.314326	-1.058088
S	0.281899	-2.295487	1.523035
C	0.000000	-1.435180	0.000000
H	-0.373653	-1.993211	-2.090565
C	0.000000	0.000000	0.000000
S	0.002233	0.899428	1.510732
C	0.001157	2.474749	0.727629
C	-0.000030	0.908223	-1.064665
C	-0.001545	2.297013	-0.678287
C	0.001624	0.841837	-2.486150
C	0.001494	2.106670	-3.106916
S	-0.001841	3.354171	-1.965735
C	0.006168	2.361146	-4.559972
O	0.009152	1.427646	-5.350277
O	0.009405	3.644337	-5.004375
F	0.005539	-0.272288	-3.246290
C	0.019554	4.003038	-6.334976
H	0.020155	5.108000	-6.370268
H	-0.871409	3.613681	-6.875609
H	0.918470	3.613062	-6.861878
H	0.001222	3.394771	1.321510
H	-0.883319	-9.146471	-0.105910
H	0.883019	-9.150570	-0.431555
H	-1.062054	-1.444158	0.195861
$end

$rem
JOBTYPE		SP
EXCHANGE	HF
CORRELATION	pRIMP2
BASIS		cc-pvtz
METHOD		rimp2
AUX_BASIS	rimp2-cc-pvtz
SOLVENT_METHOD	PCM
PURECART	11111
SYMMETRY	false
MEM_TOTAL	110000
SCF_CONVERGENCE = 6
THRESH=10
GUI = 2
$end

$solvent
dielectric 4.90
$end
--------------------------------------------------------------

             Standard Nuclear Orientation (Angstroms)
    I     Atom           X                Y                Z
 ----------------------------------------------------------------
    1      C       0.0006870000    -8.5197410000    -0.2721040000
    2      C       0.1944760000    -7.6359670000     0.7795330000
    3      S      -0.2875810000    -7.6517400000    -1.7995960000
    4      C       0.1257870000    -6.2618940000     0.3994270000
    5      H       0.3838260000    -7.9547380000     1.8123140000
    6      C      -0.1219890000    -6.0799850000    -1.0067620000
    7      C      -0.2474880000    -4.7983820000    -1.5649940000
    8      C       0.2583030000    -5.1535420000     1.2840870000
    9      C       0.1284930000    -3.8696260000     0.7262600000
   10      C      -0.1167250000    -3.6889270000    -0.6819180000
   11      O       0.5171040000    -5.4810750000     2.5806220000
   12      O      -0.5086220000    -4.4798710000    -2.8671440000
   13      C      -0.0758110000    -5.3560260000    -3.9008140000
   14      H      -0.1736400000    -4.7904960000    -4.8470020000
   15      H      -0.7073540000    -6.2685130000    -3.9717940000
   16      H       0.9849630000    -5.6581870000    -3.7633970000
   17      C       0.2570160000    -4.5469990000     3.6212250000
   18      H       0.3578640000    -5.1075640000     4.5698280000
   19      H      -0.7712110000    -4.1314730000     3.5519100000
   20      H       0.9909130000    -3.7120850000     3.6265920000
   21      C      -0.1870340000    -2.3143260000    -1.0580880000
   22      S       0.2818990000    -2.2954870000     1.5230350000
   23      C       0.0000000000    -1.4351800000     0.0000000000
   24      H      -0.3736530000    -1.9932110000    -2.0905650000
   25      C       0.0000000000     0.0000000000     0.0000000000
   26      S       0.0022330000     0.8994280000     1.5107320000
   27      C       0.0011570000     2.4747490000     0.7276290000
   28      C      -0.0000300000     0.9082230000    -1.0646650000
   29      C      -0.0015450000     2.2970130000    -0.6782870000
   30      C       0.0016240000     0.8418370000    -2.4861500000
   31      C       0.0014940000     2.1066700000    -3.1069160000
   32      S      -0.0018410000     3.3541710000    -1.9657350000
   33      C       0.0061680000     2.3611460000    -4.5599720000
   34      O       0.0091520000     1.4276460000    -5.3502770000
   35      O       0.0094050000     3.6443370000    -5.0043750000
   36      F       0.0055390000    -0.2722880000    -3.2462900000
   37      C       0.0195540000     4.0030380000    -6.3349760000
   38      H       0.0201550000     5.1080000000    -6.3702680000
   39      H      -0.8714090000     3.6136810000    -6.8756090000
   40      H       0.9184700000     3.6130620000    -6.8618780000
   41      H       0.0012220000     3.3947710000     1.3215100000
   42      H      -0.8833190000    -9.1464710000    -0.1059100000
   43      H       0.8830190000    -9.1505700000    -0.4315550000
   44      H      -1.0620540000    -1.4441580000     0.1958610000
 ----------------------------------------------------------------

   11   -2755.3266413773      6.98e-07  Convergence criterion met
 Total energy in the final basis set =    -2755.3266413773
        RIMP2         total energy =     -2760.4163965326 a.u.

                    Orbital Energies (a.u.)
 --------------------------------------------------------------

 Alpha MOs
 -- Occupied --
-92.0145 -91.9917 -91.9839 -91.9603 -26.3397 -20.6107 -20.5906 -20.5873
-20.5472 -11.4080 -11.3801 -11.3272 -11.3134 -11.3101 -11.2965 -11.2915
-11.2885 -11.2879 -11.2868 -11.2861 -11.2823 -11.2819 -11.2758 -11.2755
-11.2697 -11.2620 -11.2607 -11.2521 -11.2431  -9.0132  -8.9959  -8.9862
 -8.9629  -6.6940  -6.6934  -6.6928  -6.6772  -6.6765  -6.6752  -6.6673
 -6.6664  -6.6651  -6.6441  -6.6432  -6.6421  -1.6542  -1.4702  -1.4137
 -1.4092  -1.3652  -1.2380  -1.2113  -1.1784  -1.1436  -1.1014  -1.0501
 -1.0489  -1.0286  -1.0109  -1.0008  -0.9714  -0.9602  -0.9508  -0.9409
 -0.8964  -0.8727  -0.8638  -0.8113  -0.7978  -0.7882  -0.7759  -0.7704
 -0.7644  -0.7338  -0.7233  -0.7207  -0.6993  -0.6958  -0.6845  -0.6776
 -0.6718  -0.6711  -0.6582  -0.6496  -0.6400  -0.6311  -0.6224  -0.6162
 -0.6085  -0.6047  -0.5955  -0.5909  -0.5780  -0.5719  -0.5605  -0.5507
 -0.5498  -0.5368  -0.5336  -0.5226  -0.5153  -0.5099  -0.5068  -0.5016
 -0.4844  -0.4840  -0.4806  -0.4703  -0.4631  -0.4604  -0.4578  -0.4484
 -0.4341  -0.3986  -0.3890  -0.3729  -0.3510  -0.2944  -0.2837  -0.2195

          Ground-State Mulliken Net Atomic Charges

     Atom                 Charge (a.u.)
  ----------------------------------------
      1 C                    -0.071122
      2 C                    -0.243228
      3 S                    -0.130186
      4 C                    -0.050974
      5 H                     0.195551
      6 C                    -0.049549
      7 C                     0.228005
      8 C                     0.238394
      9 C                    -0.077774
     10 C                    -0.041172
     11 O                    -0.333141
     12 O                    -0.343228
     13 C                    -0.083335
     14 H                     0.122080
     15 H                     0.092154
     16 H                     0.092776
     17 C                    -0.088790
     18 H                     0.125312
     19 H                     0.093727
     20 H                     0.090513
     21 C                    -0.318269
     22 S                    -0.091514
     23 C                     0.130398
     24 H                     0.215267
     25 C                    -0.105905
     26 S                     0.070689
     27 C                    -0.270823
     28 C                    -0.052528
     29 C                    -0.018865
     30 C                     0.417159
     31 C                    -0.152032
     32 S                     0.026152
     33 C                     0.463852
     34 O                    -0.456838
     35 O                    -0.298614
     36 F                    -0.218796
     37 C                    -0.055277
     38 H                     0.116413
     39 H                     0.084025
     40 H                     0.084033
     41 H                     0.215100
     42 H                     0.119702
     43 H                     0.117521
     44 H                     0.213137
  ----------------------------------------
  Sum of atomic charges =     0.000000

                    Cartesian Multipole Moments
 -----------------------------------------------------------------
    Charge (ESU x 10^10)
                 0.0000
    Dipole Moment (Debye)
         X      -0.6261      Y       1.1726      Z       3.9173
       Tot       4.1367
    Quadrupole Moments (Debye-Ang)
        XX    -201.1450     XY      -0.7568     YY    -166.2489
        XZ      -2.8017     YZ     -14.4261     ZZ    -189.5230

 Total job time:  334.11s(wall), 10953.26s(cpu)
        *  Thank you very much for using Q-Chem.  Have a nice day.  *
