 Q-Chem 5.4, Q-Chem, Inc., Pleasanton, CA (2021)
 Q-Chem 5.4.0 for Intel X86 EM64T Linux

User input:
--------------------------------------------------------------
$molecule
0 1
C	-0.000687	-8.519741	0.272104
C	-0.194476	-7.635967	-0.779533
S	0.287581	-7.651740	1.799596
C	-0.125787	-6.261894	-0.399427
H	-0.383826	-7.954738	-1.812314
C	0.121989	-6.079985	1.006762
C	0.247488	-4.798382	1.564994
C	-0.258303	-5.153542	-1.284087
C	-0.128493	-3.869626	-0.726260
C	0.116725	-3.688927	0.681918
O	-0.517104	-5.481075	-2.580622
O	0.508622	-4.479871	2.867144
C	0.075811	-5.356026	3.900814
H	0.173640	-4.790496	4.847002
H	0.707354	-6.268513	3.971794
H	-0.984963	-5.658187	3.763397
C	-0.257016	-4.546999	-3.621225
H	-0.357864	-5.107564	-4.569828
H	0.771211	-4.131473	-3.551910
H	-0.990913	-3.712085	-3.626592
C	0.187034	-2.314326	1.058088
S	-0.281899	-2.295487	-1.523035
C	0.000000	-1.435180	0.000000
H	0.373653	-1.993211	2.090565
C	0.000000	0.000000	0.000000
S	0.080615	0.895811	1.510732
C	0.216842	2.465231	0.727629
C	0.079127	0.904769	-1.064665
C	0.198659	2.288406	-0.678287
C	0.074988	0.838492	-2.486150
C	0.185097	2.098524	-3.106916
S	0.290501	3.341568	-1.965735
C	0.211932	2.351623	-4.559972
O	0.133545	1.421416	-5.350277
O	0.326994	3.629649	-5.004375
F	-0.018214	-0.271734	-3.246290
C	0.368367	3.986101	-6.334976
H	0.465270	5.086806	-6.370268
H	-0.553140	3.675878	-6.875609
H	1.229874	3.519263	-6.861878
H	0.297091	3.381746	1.321510
H	0.883319	-9.146471	0.105910
H	-0.883019	-9.150570	0.431555
H	1.062054	-1.444158	-0.195861
$end

$rem
JOBTYPE		SP
EXCHANGE	HF
CORRELATION	pRIMP2
BASIS		cc-pvtz
METHOD		rimp2
AUX_BASIS	rimp2-cc-pvtz
SOLVENT_METHOD	PCM
PURECART	11111
SYMMETRY	false
MEM_TOTAL	110000
SCF_CONVERGENCE = 6
THRESH=10
GUI = 2
$end

$solvent
dielectric 4.90
$end
--------------------------------------------------------------

             Standard Nuclear Orientation (Angstroms)
    I     Atom           X                Y                Z
 ----------------------------------------------------------------
    1      C      -0.0006870000    -8.5197410000     0.2721040000
    2      C      -0.1944760000    -7.6359670000    -0.7795330000
    3      S       0.2875810000    -7.6517400000     1.7995960000
    4      C      -0.1257870000    -6.2618940000    -0.3994270000
    5      H      -0.3838260000    -7.9547380000    -1.8123140000
    6      C       0.1219890000    -6.0799850000     1.0067620000
    7      C       0.2474880000    -4.7983820000     1.5649940000
    8      C      -0.2583030000    -5.1535420000    -1.2840870000
    9      C      -0.1284930000    -3.8696260000    -0.7262600000
   10      C       0.1167250000    -3.6889270000     0.6819180000
   11      O      -0.5171040000    -5.4810750000    -2.5806220000
   12      O       0.5086220000    -4.4798710000     2.8671440000
   13      C       0.0758110000    -5.3560260000     3.9008140000
   14      H       0.1736400000    -4.7904960000     4.8470020000
   15      H       0.7073540000    -6.2685130000     3.9717940000
   16      H      -0.9849630000    -5.6581870000     3.7633970000
   17      C      -0.2570160000    -4.5469990000    -3.6212250000
   18      H      -0.3578640000    -5.1075640000    -4.5698280000
   19      H       0.7712110000    -4.1314730000    -3.5519100000
   20      H      -0.9909130000    -3.7120850000    -3.6265920000
   21      C       0.1870340000    -2.3143260000     1.0580880000
   22      S      -0.2818990000    -2.2954870000    -1.5230350000
   23      C       0.0000000000    -1.4351800000     0.0000000000
   24      H       0.3736530000    -1.9932110000     2.0905650000
   25      C       0.0000000000     0.0000000000     0.0000000000
   26      S       0.0806150000     0.8958110000     1.5107320000
   27      C       0.2168420000     2.4652310000     0.7276290000
   28      C       0.0791270000     0.9047690000    -1.0646650000
   29      C       0.1986590000     2.2884060000    -0.6782870000
   30      C       0.0749880000     0.8384920000    -2.4861500000
   31      C       0.1850970000     2.0985240000    -3.1069160000
   32      S       0.2905010000     3.3415680000    -1.9657350000
   33      C       0.2119320000     2.3516230000    -4.5599720000
   34      O       0.1335450000     1.4214160000    -5.3502770000
   35      O       0.3269940000     3.6296490000    -5.0043750000
   36      F      -0.0182140000    -0.2717340000    -3.2462900000
   37      C       0.3683670000     3.9861010000    -6.3349760000
   38      H       0.4652700000     5.0868060000    -6.3702680000
   39      H      -0.5531400000     3.6758780000    -6.8756090000
   40      H       1.2298740000     3.5192630000    -6.8618780000
   41      H       0.2970910000     3.3817460000     1.3215100000
   42      H       0.8833190000    -9.1464710000     0.1059100000
   43      H      -0.8830190000    -9.1505700000     0.4315550000
   44      H       1.0620540000    -1.4441580000    -0.1958610000
 ----------------------------------------------------------------

   11   -2755.3220725571      6.90e-07  Convergence criterion met
 Total energy in the final basis set =    -2755.3220725571
        RIMP2         total energy =     -2760.4135170225 a.u.

                    Orbital Energies (a.u.)
 --------------------------------------------------------------

 Alpha MOs
 -- Occupied --
-92.0137 -91.9914 -91.9764 -91.9611 -26.3354 -20.6104 -20.5885 -20.5883
-20.5467 -11.4076 -11.3792 -11.3276 -11.3111 -11.3100 -11.2964 -11.2906
-11.2877 -11.2874 -11.2841 -11.2838 -11.2823 -11.2807 -11.2771 -11.2753
-11.2716 -11.2635 -11.2603 -11.2525 -11.2436  -9.0123  -8.9956  -8.9791
 -8.9636  -6.6931  -6.6925  -6.6920  -6.6769  -6.6762  -6.6748  -6.6600
 -6.6592  -6.6577  -6.6449  -6.6439  -6.6429  -1.6512  -1.4699  -1.4118
 -1.4102  -1.3648  -1.2377  -1.2102  -1.1783  -1.1429  -1.1010  -1.0505
 -1.0473  -1.0289  -1.0087  -1.0006  -0.9711  -0.9602  -0.9497  -0.9402
 -0.8953  -0.8726  -0.8634  -0.8132  -0.7955  -0.7863  -0.7767  -0.7664
 -0.7620  -0.7342  -0.7203  -0.7184  -0.6984  -0.6952  -0.6846  -0.6773
 -0.6739  -0.6718  -0.6568  -0.6495  -0.6378  -0.6303  -0.6227  -0.6159
 -0.6109  -0.6042  -0.5971  -0.5908  -0.5777  -0.5679  -0.5641  -0.5594
 -0.5494  -0.5330  -0.5289  -0.5210  -0.5138  -0.5090  -0.5048  -0.4994
 -0.4842  -0.4817  -0.4809  -0.4675  -0.4602  -0.4602  -0.4582  -0.4482
 -0.4321  -0.3996  -0.3856  -0.3727  -0.3508  -0.2932  -0.2833  -0.2193

          Ground-State Mulliken Net Atomic Charges

     Atom                 Charge (a.u.)
  ----------------------------------------
      1 C                    -0.071197
      2 C                    -0.239523
      3 S                    -0.129308
      4 C                    -0.051326
      5 H                     0.196266
      6 C                    -0.046936
      7 C                     0.220427
      8 C                     0.235116
      9 C                    -0.079667
     10 C                    -0.026573
     11 O                    -0.334306
     12 O                    -0.344106
     13 C                    -0.082731
     14 H                     0.120217
     15 H                     0.092089
     16 H                     0.093079
     17 C                    -0.088443
     18 H                     0.124622
     19 H                     0.093648
     20 H                     0.091711
     21 C                    -0.324283
     22 S                    -0.087752
     23 C                     0.135426
     24 H                     0.195821
     25 C                    -0.024894
     26 S                     0.078769
     27 C                    -0.273250
     28 C                    -0.122632
     29 C                    -0.014853
     30 C                     0.397672
     31 C                    -0.151876
     32 S                     0.027020
     33 C                     0.462369
     34 O                    -0.457247
     35 O                    -0.298739
     36 F                    -0.210385
     37 C                    -0.055293
     38 H                     0.116307
     39 H                     0.084017
     40 H                     0.083778
     41 H                     0.213761
     42 H                     0.120192
     43 H                     0.117883
     44 H                     0.215132
  ----------------------------------------
  Sum of atomic charges =     0.000000

                    Cartesian Multipole Moments
 -----------------------------------------------------------------
    Charge (ESU x 10^10)
                -0.0000
    Dipole Moment (Debye)
         X       0.8470      Y       1.0265      Z       2.8642
       Tot       3.1582
    Quadrupole Moments (Debye-Ang)
        XX    -201.0900     XY       2.0162     YY    -166.0328
        XZ      -3.6469     YZ      -5.1025     ZZ    -189.4676

 Total job time:  328.15s(wall), 10677.92s(cpu)
        *  Thank you very much for using Q-Chem.  Have a nice day.  *
