 Q-Chem 5.4, Q-Chem, Inc., Pleasanton, CA (2021)
 Q-Chem 5.4.0 for Intel X86 EM64T Linux

User input:
--------------------------------------------------------------
$molecule
0 1
C	-0.136647	-8.519741	0.235306
C	0.221346	-7.635967	-0.772334
S	-0.650746	-7.651740	1.702286
C	0.090779	-6.261894	-0.408807
H	0.573754	-7.954738	-1.761423
C	-0.397735	-6.079985	0.932876
C	-0.568166	-4.798382	1.479069
C	0.418347	-5.153542	-1.241204
C	0.251852	-3.869626	-0.693206
C	-0.239872	-3.688927	0.648921
O	0.842486	-5.481075	-2.493437
O	-0.993092	-4.479871	2.737331
C	-1.884752	-5.356026	3.416110
H	-2.273124	-4.790496	4.284447
H	-1.373310	-6.268513	3.793352
H	-2.734702	-5.658187	2.766716
C	1.588030	-4.546999	-3.264581
H	1.974995	-5.107564	-4.136519
H	2.443843	-4.131473	-2.690439
H	0.955140	-3.712085	-3.636177
C	-0.367068	-2.314326	1.009848
S	0.517386	-2.295487	-1.459936
C	-0.000000	-1.435180	-0.000000
H	-0.721689	-1.993211	1.997308
C	0.000000	0.000000	0.000000
S	0.158383	0.885376	1.510732
C	0.430876	2.436951	0.727629
C	0.157682	0.894430	-1.064665
C	0.397351	2.262384	-0.678287
C	0.147783	0.828765	-2.486150
C	0.367291	2.074406	-3.106916
S	0.580633	3.303533	-1.965735
C	0.416083	2.324204	-4.559972
O	0.256921	1.404367	-5.350277
O	0.642094	3.587338	-5.004375
F	-0.041828	-0.269113	-3.246290
C	0.714377	3.938827	-6.334976
H	0.906844	5.026898	-6.370268
H	-0.230661	3.710099	-6.875609
H	1.531918	3.398681	-6.861878
H	0.590699	3.342984	1.321510
H	0.712022	-9.146471	0.533380
H	-0.980494	-9.150570	-0.067771
H	1.017696	-1.444158	0.361406
$end

$rem
JOBTYPE		SP
EXCHANGE	HF
CORRELATION	pRIMP2
BASIS		cc-pvtz
METHOD		rimp2
AUX_BASIS	rimp2-cc-pvtz
SOLVENT_METHOD	PCM
PURECART	11111
SYMMETRY	false
MEM_TOTAL	110000
SCF_CONVERGENCE = 6
THRESH=10
GUI = 2
$end

$solvent
dielectric 4.90
$end
--------------------------------------------------------------

             Standard Nuclear Orientation (Angstroms)
    I     Atom           X                Y                Z
 ----------------------------------------------------------------
    1      C      -0.1366470000    -8.5197410000     0.2353060000
    2      C       0.2213460000    -7.6359670000    -0.7723340000
    3      S      -0.6507460000    -7.6517400000     1.7022860000
    4      C       0.0907790000    -6.2618940000    -0.4088070000
    5      H       0.5737540000    -7.9547380000    -1.7614230000
    6      C      -0.3977350000    -6.0799850000     0.9328760000
    7      C      -0.5681660000    -4.7983820000     1.4790690000
    8      C       0.4183470000    -5.1535420000    -1.2412040000
    9      C       0.2518520000    -3.8696260000    -0.6932060000
   10      C      -0.2398720000    -3.6889270000     0.6489210000
   11      O       0.8424860000    -5.4810750000    -2.4934370000
   12      O      -0.9930920000    -4.4798710000     2.7373310000
   13      C      -1.8847520000    -5.3560260000     3.4161100000
   14      H      -2.2731240000    -4.7904960000     4.2844470000
   15      H      -1.3733100000    -6.2685130000     3.7933520000
   16      H      -2.7347020000    -5.6581870000     2.7667160000
   17      C       1.5880300000    -4.5469990000    -3.2645810000
   18      H       1.9749950000    -5.1075640000    -4.1365190000
   19      H       2.4438430000    -4.1314730000    -2.6904390000
   20      H       0.9551400000    -3.7120850000    -3.6361770000
   21      C      -0.3670680000    -2.3143260000     1.0098480000
   22      S       0.5173860000    -2.2954870000    -1.4599360000
   23      C       0.0000000000    -1.4351800000     0.0000000000
   24      H      -0.7216890000    -1.9932110000     1.9973080000
   25      C       0.0000000000     0.0000000000     0.0000000000
   26      S       0.1583830000     0.8853760000     1.5107320000
   27      C       0.4308760000     2.4369510000     0.7276290000
   28      C       0.1576820000     0.8944300000    -1.0646650000
   29      C       0.3973510000     2.2623840000    -0.6782870000
   30      C       0.1477830000     0.8287650000    -2.4861500000
   31      C       0.3672910000     2.0744060000    -3.1069160000
   32      S       0.5806330000     3.3035330000    -1.9657350000
   33      C       0.4160830000     2.3242040000    -4.5599720000
   34      O       0.2569210000     1.4043670000    -5.3502770000
   35      O       0.6420940000     3.5873380000    -5.0043750000
   36      F      -0.0418280000    -0.2691130000    -3.2462900000
   37      C       0.7143770000     3.9388270000    -6.3349760000
   38      H       0.9068440000     5.0268980000    -6.3702680000
   39      H      -0.2306610000     3.7100990000    -6.8756090000
   40      H       1.5319180000     3.3986810000    -6.8618780000
   41      H       0.5906990000     3.3429840000     1.3215100000
   42      H       0.7120220000    -9.1464710000     0.5333800000
   43      H      -0.9804940000    -9.1505700000    -0.0677710000
   44      H       1.0176960000    -1.4441580000     0.3614060000
 ----------------------------------------------------------------

   11   -2755.3220600015      7.27e-07  Convergence criterion met
 Total energy in the final basis set =    -2755.3220600015
        RIMP2         total energy =     -2760.4129354273 a.u.

                    Orbital Energies (a.u.)
 --------------------------------------------------------------

 Alpha MOs
 -- Occupied --
-92.0124 -91.9911 -91.9767 -91.9609 -26.3346 -20.6106 -20.5884 -20.5882
-20.5471 -11.4079 -11.3791 -11.3261 -11.3107 -11.3100 -11.2960 -11.2915
-11.2878 -11.2869 -11.2843 -11.2838 -11.2835 -11.2831 -11.2769 -11.2766
-11.2716 -11.2633 -11.2602 -11.2524 -11.2431  -9.0113  -8.9953  -8.9792
 -8.9635  -6.6922  -6.6916  -6.6910  -6.6766  -6.6759  -6.6746  -6.6602
 -6.6594  -6.6580  -6.6447  -6.6438  -6.6427  -1.6496  -1.4701  -1.4117
 -1.4101  -1.3650  -1.2380  -1.2102  -1.1782  -1.1432  -1.1008  -1.0505
 -1.0471  -1.0296  -1.0085  -1.0003  -0.9710  -0.9603  -0.9498  -0.9404
 -0.8952  -0.8713  -0.8641  -0.8124  -0.7947  -0.7861  -0.7764  -0.7666
 -0.7647  -0.7337  -0.7211  -0.7167  -0.6978  -0.6946  -0.6841  -0.6773
 -0.6713  -0.6708  -0.6570  -0.6495  -0.6389  -0.6297  -0.6225  -0.6159
 -0.6108  -0.6044  -0.5966  -0.5914  -0.5780  -0.5680  -0.5647  -0.5594
 -0.5492  -0.5338  -0.5284  -0.5212  -0.5137  -0.5090  -0.5044  -0.5002
 -0.4846  -0.4820  -0.4799  -0.4674  -0.4620  -0.4602  -0.4586  -0.4486
 -0.4303  -0.4007  -0.3851  -0.3729  -0.3511  -0.2934  -0.2835  -0.2193

          Ground-State Mulliken Net Atomic Charges

     Atom                 Charge (a.u.)
  ----------------------------------------
      1 C                    -0.071050
      2 C                    -0.241848
      3 S                    -0.129648
      4 C                    -0.053183
      5 H                     0.195983
      6 C                    -0.046491
      7 C                     0.218241
      8 C                     0.234788
      9 C                    -0.078532
     10 C                    -0.004746
     11 O                    -0.334201
     12 O                    -0.343810
     13 C                    -0.082764
     14 H                     0.120197
     15 H                     0.091993
     16 H                     0.093249
     17 C                    -0.090171
     18 H                     0.124673
     19 H                     0.092426
     20 H                     0.093547
     21 C                    -0.356103
     22 S                    -0.089824
     23 C                     0.168037
     24 H                     0.196628
     25 C                    -0.023455
     26 S                     0.081129
     27 C                    -0.269109
     28 C                    -0.146350
     29 C                    -0.011157
     30 C                     0.391223
     31 C                    -0.150087
     32 S                     0.027453
     33 C                     0.461403
     34 O                    -0.455720
     35 O                    -0.298702
     36 F                    -0.207707
     37 C                    -0.055141
     38 H                     0.116304
     39 H                     0.084164
     40 H                     0.083841
     41 H                     0.213549
     42 H                     0.119876
     43 H                     0.117715
     44 H                     0.213380
  ----------------------------------------
  Sum of atomic charges =     0.000000

                    Cartesian Multipole Moments
 -----------------------------------------------------------------
    Charge (ESU x 10^10)
                -0.0000
    Dipole Moment (Debye)
         X       1.1822      Y       1.2101      Z       3.1918
       Tot       3.6124
    Quadrupole Moments (Debye-Ang)
        XX    -193.8612     XY       0.9899     YY    -166.8722
        XZ     -10.9521     YZ      -5.3541     ZZ    -196.1896

 Total job time:  335.50s(wall), 10426.59s(cpu)
        *  Thank you very much for using Q-Chem.  Have a nice day.  *
