 Q-Chem 5.4, Q-Chem, Inc., Pleasanton, CA (2021)
 Q-Chem 5.4.0 for Intel X86 EM64T Linux

User input:
--------------------------------------------------------------
$molecule
0 1
C	0.235306	-8.519741	0.136647
C	-0.772334	-7.635967	-0.221346
S	1.702286	-7.651740	0.650746
C	-0.408807	-6.261894	-0.090779
H	-1.761423	-7.954738	-0.573754
C	0.932876	-6.079985	0.397735
C	1.479069	-4.798382	0.568166
C	-1.241204	-5.153542	-0.418347
C	-0.693206	-3.869626	-0.251852
C	0.648921	-3.688927	0.239872
O	-2.493437	-5.481075	-0.842486
O	2.737331	-4.479871	0.993092
C	3.416110	-5.356026	1.884752
H	4.284447	-4.790496	2.273124
H	3.793352	-6.268513	1.373310
H	2.766716	-5.658187	2.734702
C	-3.264581	-4.546999	-1.588030
H	-4.136519	-5.107564	-1.974995
H	-2.690439	-4.131473	-2.443843
H	-3.636177	-3.712085	-0.955140
C	1.009848	-2.314326	0.367068
S	-1.459936	-2.295487	-0.517386
C	0.000000	-1.435180	0.000000
H	1.997308	-1.993211	0.721689
C	0.000000	0.000000	0.000000
S	0.234946	0.868203	1.510732
C	0.641630	2.390125	0.727629
C	0.235036	0.877284	-1.064665
C	0.593019	2.219143	-0.678287
C	0.219452	0.812732	-2.486150
C	0.546689	2.034501	-3.106916
S	0.866345	3.240357	-1.965735
C	0.617067	2.279095	-4.559972
O	0.378342	1.376631	-5.350277
O	0.952308	3.517725	-5.004375
F	-0.065123	-0.264443	-3.246290
C	1.054950	3.861577	-6.334976
H	1.341516	4.928732	-6.370268
H	0.093573	3.716085	-6.875609
H	1.822303	3.252232	-6.861878
H	0.879812	3.278780	1.321510
H	0.533380	-9.146471	-0.712022
H	-0.067771	-9.150570	0.980494
H	0.361406	-1.444158	-1.017696
$end

$rem
JOBTYPE		SP
EXCHANGE	HF
CORRELATION	pRIMP2
BASIS		cc-pvtz
METHOD		rimp2
AUX_BASIS	rimp2-cc-pvtz
SOLVENT_METHOD	PCM
PURECART	11111
SYMMETRY	false
MEM_TOTAL	110000
SCF_CONVERGENCE = 6
THRESH=10
GUI = 2
$end

$solvent
dielectric 4.90
$end
--------------------------------------------------------------

             Standard Nuclear Orientation (Angstroms)
    I     Atom           X                Y                Z
 ----------------------------------------------------------------
    1      C       0.2353060000    -8.5197410000     0.1366470000
    2      C      -0.7723340000    -7.6359670000    -0.2213460000
    3      S       1.7022860000    -7.6517400000     0.6507460000
    4      C      -0.4088070000    -6.2618940000    -0.0907790000
    5      H      -1.7614230000    -7.9547380000    -0.5737540000
    6      C       0.9328760000    -6.0799850000     0.3977350000
    7      C       1.4790690000    -4.7983820000     0.5681660000
    8      C      -1.2412040000    -5.1535420000    -0.4183470000
    9      C      -0.6932060000    -3.8696260000    -0.2518520000
   10      C       0.6489210000    -3.6889270000     0.2398720000
   11      O      -2.4934370000    -5.4810750000    -0.8424860000
   12      O       2.7373310000    -4.4798710000     0.9930920000
   13      C       3.4161100000    -5.3560260000     1.8847520000
   14      H       4.2844470000    -4.7904960000     2.2731240000
   15      H       3.7933520000    -6.2685130000     1.3733100000
   16      H       2.7667160000    -5.6581870000     2.7347020000
   17      C      -3.2645810000    -4.5469990000    -1.5880300000
   18      H      -4.1365190000    -5.1075640000    -1.9749950000
   19      H      -2.6904390000    -4.1314730000    -2.4438430000
   20      H      -3.6361770000    -3.7120850000    -0.9551400000
   21      C       1.0098480000    -2.3143260000     0.3670680000
   22      S      -1.4599360000    -2.2954870000    -0.5173860000
   23      C       0.0000000000    -1.4351800000     0.0000000000
   24      H       1.9973080000    -1.9932110000     0.7216890000
   25      C       0.0000000000     0.0000000000     0.0000000000
   26      S       0.2349460000     0.8682030000     1.5107320000
   27      C       0.6416300000     2.3901250000     0.7276290000
   28      C       0.2350360000     0.8772840000    -1.0646650000
   29      C       0.5930190000     2.2191430000    -0.6782870000
   30      C       0.2194520000     0.8127320000    -2.4861500000
   31      C       0.5466890000     2.0345010000    -3.1069160000
   32      S       0.8663450000     3.2403570000    -1.9657350000
   33      C       0.6170670000     2.2790950000    -4.5599720000
   34      O       0.3783420000     1.3766310000    -5.3502770000
   35      O       0.9523080000     3.5177250000    -5.0043750000
   36      F      -0.0651230000    -0.2644430000    -3.2462900000
   37      C       1.0549500000     3.8615770000    -6.3349760000
   38      H       1.3415160000     4.9287320000    -6.3702680000
   39      H       0.0935730000     3.7160850000    -6.8756090000
   40      H       1.8223030000     3.2522320000    -6.8618780000
   41      H       0.8798120000     3.2787800000     1.3215100000
   42      H       0.5333800000    -9.1464710000    -0.7120220000
   43      H      -0.0677710000    -9.1505700000     0.9804940000
   44      H       0.3614060000    -1.4441580000    -1.0176960000
 ----------------------------------------------------------------

   11   -2755.3244736536      7.15e-07  Convergence criterion met
 Total energy in the final basis set =    -2755.3244736536
        RIMP2         total energy =     -2760.4172529650 a.u.

                    Orbital Energies (a.u.)
 --------------------------------------------------------------

 Alpha MOs
 -- Occupied --
-92.0142 -91.9971 -91.9758 -91.9583 -26.3384 -20.6134 -20.5873 -20.5863
-20.5520 -11.4122 -11.3793 -11.3127 -11.3090 -11.3068 -11.3008 -11.2981
-11.2961 -11.2893 -11.2855 -11.2836 -11.2830 -11.2824 -11.2806 -11.2733
-11.2726 -11.2584 -11.2581 -11.2497 -11.2371  -9.0127  -9.0010  -8.9781
 -8.9609  -6.6934  -6.6928  -6.6924  -6.6823  -6.6816  -6.6803  -6.6592
 -6.6583  -6.6570  -6.6421  -6.6412  -6.6402  -1.6515  -1.4732  -1.4100
 -1.4088  -1.3688  -1.2396  -1.2083  -1.1752  -1.1437  -1.0999  -1.0522
 -1.0456  -1.0299  -1.0085  -0.9975  -0.9730  -0.9594  -0.9485  -0.9410
 -0.8929  -0.8746  -0.8625  -0.8106  -0.7933  -0.7852  -0.7811  -0.7690
 -0.7626  -0.7336  -0.7197  -0.7194  -0.6977  -0.6922  -0.6876  -0.6798
 -0.6763  -0.6737  -0.6551  -0.6483  -0.6308  -0.6293  -0.6200  -0.6149
 -0.6106  -0.6077  -0.5966  -0.5939  -0.5826  -0.5650  -0.5578  -0.5551
 -0.5515  -0.5318  -0.5281  -0.5215  -0.5129  -0.5075  -0.5036  -0.5006
 -0.4882  -0.4857  -0.4775  -0.4685  -0.4630  -0.4624  -0.4601  -0.4458
 -0.4246  -0.4023  -0.3851  -0.3700  -0.3502  -0.2932  -0.2884  -0.2202

          Ground-State Mulliken Net Atomic Charges

     Atom                 Charge (a.u.)
  ----------------------------------------
      1 C                    -0.070312
      2 C                    -0.258445
      3 S                    -0.134864
      4 C                    -0.045692
      5 H                     0.193620
      6 C                    -0.051362
      7 C                     0.222315
      8 C                     0.231415
      9 C                    -0.083919
     10 C                    -0.053198
     11 O                    -0.335580
     12 O                    -0.343674
     13 C                    -0.082461
     14 H                     0.119844
     15 H                     0.092011
     16 H                     0.092667
     17 C                    -0.086550
     18 H                     0.122673
     19 H                     0.093609
     20 H                     0.089705
     21 C                    -0.244513
     22 S                    -0.069529
     23 C                     0.041720
     24 H                     0.208841
     25 C                    -0.071693
     26 S                     0.100011
     27 C                    -0.233181
     28 C                    -0.088187
     29 C                    -0.005060
     30 C                     0.367122
     31 C                    -0.130361
     32 S                     0.043986
     33 C                     0.458573
     34 O                    -0.448237
     35 O                    -0.297456
     36 F                    -0.213576
     37 C                    -0.055015
     38 H                     0.116936
     39 H                     0.084900
     40 H                     0.084778
     41 H                     0.215060
     42 H                     0.117655
     43 H                     0.115062
     44 H                     0.190359
  ----------------------------------------
  Sum of atomic charges =     0.000000

                    Cartesian Multipole Moments
 -----------------------------------------------------------------
    Charge (ESU x 10^10)
                -0.0000
    Dipole Moment (Debye)
         X       1.0562      Y       3.5765      Z       2.4947
       Tot       4.4867
    Quadrupole Moments (Debye-Ang)
        XX    -189.2747     XY       7.5872     YY    -174.5450
        XZ       6.0927     YZ      -9.6438     ZZ    -198.4542

 Total job time:  325.61s(wall), 10636.05s(cpu)
        *  Thank you very much for using Q-Chem.  Have a nice day.  *
