 Q-Chem 5.4, Q-Chem, Inc., Pleasanton, CA (2021)
 Q-Chem 5.4.0 for Intel X86 EM64T Linux

User input:
--------------------------------------------------------------
$molecule
0 1
C	-0.235993	-8.519741	0.135457
C	0.577858	-7.635967	-0.558188
S	-1.414705	-7.651740	1.148850
C	0.283020	-6.261894	-0.308648
H	1.377597	-7.954738	-1.238560
C	-0.810887	-6.079985	0.609026
C	-1.231581	-4.798382	0.996828
C	0.982901	-5.153542	-0.865740
C	0.564713	-3.869626	-0.474408
C	-0.532196	-3.688927	0.442046
O	1.976332	-5.481075	-1.738137
O	-2.228709	-4.479871	1.874052
C	-3.340298	-5.356026	2.016062
H	-4.110807	-4.790496	2.573877
H	-3.085998	-6.268513	2.598484
H	-3.751679	-5.658187	1.028695
C	3.007565	-4.546999	-2.033195
H	3.778655	-5.107564	-2.594833
H	3.461650	-4.131473	-1.108067
H	2.645264	-3.712085	-2.671451
C	-0.822814	-2.314326	0.691020
S	1.178037	-2.295487	-1.005649
C	0.000000	-1.435180	0.000000
H	-1.623656	-1.993211	1.368875
C	0.000000	0.000000	0.000000
S	0.002233	0.899428	1.510732
C	0.001157	2.474749	0.727629
C	-0.000030	0.908223	-1.064665
C	-0.001545	2.297013	-0.678287
C	0.001624	0.841837	-2.486150
C	0.001494	2.106670	-3.106916
S	-0.001841	3.354171	-1.965735
C	0.006168	2.361146	-4.559972
O	0.009152	1.427646	-5.350277
O	0.009405	3.644337	-5.004375
F	0.005539	-0.272288	-3.246290
C	0.019554	4.003038	-6.334976
H	0.020155	5.108000	-6.370268
H	-0.871409	3.613681	-6.875609
H	0.918470	3.613062	-6.861878
H	0.001222	3.394771	1.321510
H	0.349939	-9.146471	0.817932
H	-0.815247	-9.150570	-0.548939
H	0.700647	-1.444158	0.821835
$end

$rem
JOBTYPE		SP
EXCHANGE	HF
CORRELATION	pRIMP2
BASIS		cc-pvtz
METHOD		rimp2
AUX_BASIS	rimp2-cc-pvtz
SOLVENT_METHOD	PCM
PURECART	11111
SYMMETRY	false
MEM_TOTAL	110000
SCF_CONVERGENCE = 6
THRESH=10
GUI = 2
$end

$solvent
dielectric 4.90
$end
--------------------------------------------------------------

             Standard Nuclear Orientation (Angstroms)
    I     Atom           X                Y                Z
 ----------------------------------------------------------------
    1      C      -0.2359930000    -8.5197410000     0.1354570000
    2      C       0.5778580000    -7.6359670000    -0.5581880000
    3      S      -1.4147050000    -7.6517400000     1.1488500000
    4      C       0.2830200000    -6.2618940000    -0.3086480000
    5      H       1.3775970000    -7.9547380000    -1.2385600000
    6      C      -0.8108870000    -6.0799850000     0.6090260000
    7      C      -1.2315810000    -4.7983820000     0.9968280000
    8      C       0.9829010000    -5.1535420000    -0.8657400000
    9      C       0.5647130000    -3.8696260000    -0.4744080000
   10      C      -0.5321960000    -3.6889270000     0.4420460000
   11      O       1.9763320000    -5.4810750000    -1.7381370000
   12      O      -2.2287090000    -4.4798710000     1.8740520000
   13      C      -3.3402980000    -5.3560260000     2.0160620000
   14      H      -4.1108070000    -4.7904960000     2.5738770000
   15      H      -3.0859980000    -6.2685130000     2.5984840000
   16      H      -3.7516790000    -5.6581870000     1.0286950000
   17      C       3.0075650000    -4.5469990000    -2.0331950000
   18      H       3.7786550000    -5.1075640000    -2.5948330000
   19      H       3.4616500000    -4.1314730000    -1.1080670000
   20      H       2.6452640000    -3.7120850000    -2.6714510000
   21      C      -0.8228140000    -2.3143260000     0.6910200000
   22      S       1.1780370000    -2.2954870000    -1.0056490000
   23      C       0.0000000000    -1.4351800000     0.0000000000
   24      H      -1.6236560000    -1.9932110000     1.3688750000
   25      C       0.0000000000     0.0000000000     0.0000000000
   26      S       0.0022330000     0.8994280000     1.5107320000
   27      C       0.0011570000     2.4747490000     0.7276290000
   28      C      -0.0000300000     0.9082230000    -1.0646650000
   29      C      -0.0015450000     2.2970130000    -0.6782870000
   30      C       0.0016240000     0.8418370000    -2.4861500000
   31      C       0.0014940000     2.1066700000    -3.1069160000
   32      S      -0.0018410000     3.3541710000    -1.9657350000
   33      C       0.0061680000     2.3611460000    -4.5599720000
   34      O       0.0091520000     1.4276460000    -5.3502770000
   35      O       0.0094050000     3.6443370000    -5.0043750000
   36      F       0.0055390000    -0.2722880000    -3.2462900000
   37      C       0.0195540000     4.0030380000    -6.3349760000
   38      H       0.0201550000     5.1080000000    -6.3702680000
   39      H      -0.8714090000     3.6136810000    -6.8756090000
   40      H       0.9184700000     3.6130620000    -6.8618780000
   41      H       0.0012220000     3.3947710000     1.3215100000
   42      H       0.3499390000    -9.1464710000     0.8179320000
   43      H      -0.8152470000    -9.1505700000    -0.5489390000
   44      H       0.7006470000    -1.4441580000     0.8218350000
 ----------------------------------------------------------------

   11   -2755.3256731925      8.00e-07  Convergence criterion met
 Total energy in the final basis set =    -2755.3256731925
        RIMP2         total energy =     -2760.4154455169 a.u.

                    Orbital Energies (a.u.)
 --------------------------------------------------------------

 Alpha MOs
 -- Occupied --
-92.0167 -91.9935 -91.9779 -91.9588 -26.3340 -20.6119 -20.5876 -20.5868
-20.5494 -11.4098 -11.3782 -11.3191 -11.3094 -11.3077 -11.2970 -11.2959
-11.2913 -11.2884 -11.2841 -11.2835 -11.2835 -11.2831 -11.2797 -11.2739
-11.2734 -11.2596 -11.2585 -11.2501 -11.2379  -9.0152  -8.9977  -8.9801
 -8.9614  -6.6960  -6.6954  -6.6949  -6.6790  -6.6783  -6.6769  -6.6612
 -6.6603  -6.6590  -6.6426  -6.6417  -6.6407  -1.6473  -1.4715  -1.4104
 -1.4092  -1.3667  -1.2379  -1.2098  -1.1760  -1.1437  -1.0998  -1.0501
 -1.0461  -1.0307  -1.0085  -0.9985  -0.9718  -0.9598  -0.9487  -0.9406
 -0.8938  -0.8709  -0.8649  -0.8105  -0.7922  -0.7856  -0.7766  -0.7706
 -0.7657  -0.7330  -0.7209  -0.7153  -0.6972  -0.6923  -0.6828  -0.6783
 -0.6713  -0.6662  -0.6565  -0.6488  -0.6375  -0.6288  -0.6204  -0.6150
 -0.6105  -0.6060  -0.5955  -0.5927  -0.5806  -0.5654  -0.5632  -0.5574
 -0.5503  -0.5337  -0.5279  -0.5215  -0.5129  -0.5080  -0.5033  -0.5016
 -0.4861  -0.4847  -0.4777  -0.4696  -0.4618  -0.4609  -0.4606  -0.4471
 -0.4269  -0.4011  -0.3856  -0.3709  -0.3515  -0.2928  -0.2866  -0.2195

          Ground-State Mulliken Net Atomic Charges

     Atom                 Charge (a.u.)
  ----------------------------------------
      1 C                    -0.070221
      2 C                    -0.256224
      3 S                    -0.134288
      4 C                    -0.046900
      5 H                     0.194040
      6 C                    -0.049804
      7 C                     0.222968
      8 C                     0.228261
      9 C                    -0.077068
     10 C                    -0.036027
     11 O                    -0.334868
     12 O                    -0.343790
     13 C                    -0.082733
     14 H                     0.119913
     15 H                     0.092119
     16 H                     0.093204
     17 C                    -0.086978
     18 H                     0.123499
     19 H                     0.091874
     20 H                     0.091679
     21 C                    -0.293675
     22 S                    -0.074448
     23 C                     0.125009
     24 H                     0.204092
     25 C                    -0.101079
     26 S                     0.093841
     27 C                    -0.245881
     28 C                    -0.089319
     29 C                    -0.009134
     30 C                     0.396941
     31 C                    -0.151388
     32 S                     0.031759
     33 C                     0.460795
     34 O                    -0.451244
     35 O                    -0.298066
     36 F                    -0.209605
     37 C                    -0.055123
     38 H                     0.116492
     39 H                     0.084592
     40 H                     0.084352
     41 H                     0.215328
     42 H                     0.117761
     43 H                     0.115641
     44 H                     0.193705
  ----------------------------------------
  Sum of atomic charges =     0.000000

                    Cartesian Multipole Moments
 -----------------------------------------------------------------
    Charge (ESU x 10^10)
                -0.0000
    Dipole Moment (Debye)
         X       0.5437      Y       2.9503      Z       3.5522
       Tot       4.6495
    Quadrupole Moments (Debye-Ang)
        XX    -185.4223     XY      -2.9217     YY    -173.0335
        XZ      -6.4159     YZ      -7.7494     ZZ    -204.1853

 Total job time:  328.63s(wall), 10641.22s(cpu)
        *  Thank you very much for using Q-Chem.  Have a nice day.  *
