 Q-Chem 5.4, Q-Chem, Inc., Pleasanton, CA (2021)
 Q-Chem 5.4.0 for Intel X86 EM64T Linux

User input:
--------------------------------------------------------------
$molecule
0 1
C	-0.255459	-8.519741	-0.093711
C	0.799036	-7.635967	0.083869
S	-1.789425	-7.651740	-0.345260
C	0.418360	-6.261894	0.018411
H	1.834294	-7.954738	0.259169
C	-0.987769	-6.079985	-0.229701
C	-1.555260	-4.798382	-0.302697
C	1.294992	-5.153542	0.196459
C	0.726408	-3.869626	0.127651
C	-0.680716	-3.688927	-0.123544
O	2.601852	-5.481075	0.396706
O	-2.868193	-4.479871	-0.502673
C	-3.691495	-5.356026	-1.262918
H	-4.614080	-4.790496	-1.494604
H	-3.974195	-6.268513	-0.693738
H	-3.199559	-5.658187	-2.212720
C	3.490743	-4.546999	0.997016
H	4.416630	-5.107564	1.226691
H	3.073934	-4.131473	1.939526
H	3.746794	-3.712085	0.309214
C	-1.058247	-2.314326	-0.186133
S	1.527599	-2.295487	0.256010
C	-0.000000	-1.435180	-0.000000
H	-2.092285	-1.993211	-0.363896
C	0.000000	0.000000	0.000000
S	0.382139	0.814215	1.510732
C	1.046923	2.242395	0.727629
C	0.383804	0.823142	-1.064665
C	0.969360	2.082453	-0.678287
C	0.357247	0.762277	-2.486150
C	0.891671	1.908660	-3.106916
S	1.415865	3.040689	-1.965735
C	1.003453	2.137318	-4.559972
O	0.611644	1.290019	-5.350277
O	1.548687	3.298916	-5.004375
F	-0.110054	-0.249117	-3.246290
C	1.709479	3.619721	-6.334976
H	2.177001	4.620902	-6.370268
H	0.737443	3.643380	-6.875609
H	2.359363	2.886384	-6.861878
H	1.435800	3.076190	1.321510
H	-0.401636	-9.146471	0.793825
H	-0.103519	-9.150570	-0.977367
H	-0.179195	-1.444158	1.064992
$end

$rem
JOBTYPE		SP
EXCHANGE	HF
CORRELATION	pRIMP2
BASIS		cc-pvtz
METHOD		rimp2
AUX_BASIS	rimp2-cc-pvtz
SOLVENT_METHOD	PCM
PURECART	11111
SYMMETRY	false
MEM_TOTAL	110000
SCF_CONVERGENCE = 6
THRESH=10
GUI = 2
$end

$solvent
dielectric 4.90
$end
--------------------------------------------------------------

             Standard Nuclear Orientation (Angstroms)
    I     Atom           X                Y                Z
 ----------------------------------------------------------------
    1      C      -0.2554590000    -8.5197410000    -0.0937110000
    2      C       0.7990360000    -7.6359670000     0.0838690000
    3      S      -1.7894250000    -7.6517400000    -0.3452600000
    4      C       0.4183600000    -6.2618940000     0.0184110000
    5      H       1.8342940000    -7.9547380000     0.2591690000
    6      C      -0.9877690000    -6.0799850000    -0.2297010000
    7      C      -1.5552600000    -4.7983820000    -0.3026970000
    8      C       1.2949920000    -5.1535420000     0.1964590000
    9      C       0.7264080000    -3.8696260000     0.1276510000
   10      C      -0.6807160000    -3.6889270000    -0.1235440000
   11      O       2.6018520000    -5.4810750000     0.3967060000
   12      O      -2.8681930000    -4.4798710000    -0.5026730000
   13      C      -3.6914950000    -5.3560260000    -1.2629180000
   14      H      -4.6140800000    -4.7904960000    -1.4946040000
   15      H      -3.9741950000    -6.2685130000    -0.6937380000
   16      H      -3.1995590000    -5.6581870000    -2.2127200000
   17      C       3.4907430000    -4.5469990000     0.9970160000
   18      H       4.4166300000    -5.1075640000     1.2266910000
   19      H       3.0739340000    -4.1314730000     1.9395260000
   20      H       3.7467940000    -3.7120850000     0.3092140000
   21      C      -1.0582470000    -2.3143260000    -0.1861330000
   22      S       1.5275990000    -2.2954870000     0.2560100000
   23      C       0.0000000000    -1.4351800000     0.0000000000
   24      H      -2.0922850000    -1.9932110000    -0.3638960000
   25      C       0.0000000000     0.0000000000     0.0000000000
   26      S       0.3821390000     0.8142150000     1.5107320000
   27      C       1.0469230000     2.2423950000     0.7276290000
   28      C       0.3838040000     0.8231420000    -1.0646650000
   29      C       0.9693600000     2.0824530000    -0.6782870000
   30      C       0.3572470000     0.7622770000    -2.4861500000
   31      C       0.8916710000     1.9086600000    -3.1069160000
   32      S       1.4158650000     3.0406890000    -1.9657350000
   33      C       1.0034530000     2.1373180000    -4.5599720000
   34      O       0.6116440000     1.2900190000    -5.3502770000
   35      O       1.5486870000     3.2989160000    -5.0043750000
   36      F      -0.1100540000    -0.2491170000    -3.2462900000
   37      C       1.7094790000     3.6197210000    -6.3349760000
   38      H       2.1770010000     4.6209020000    -6.3702680000
   39      H       0.7374430000     3.6433800000    -6.8756090000
   40      H       2.3593630000     2.8863840000    -6.8618780000
   41      H       1.4358000000     3.0761900000     1.3215100000
   42      H      -0.4016360000    -9.1464710000     0.7938250000
   43      H      -0.1035190000    -9.1505700000    -0.9773670000
   44      H      -0.1791950000    -1.4441580000     1.0649920000
 ----------------------------------------------------------------

   11   -2755.3158539695      7.17e-07  Convergence criterion met
 Total energy in the final basis set =    -2755.3158539695
        RIMP2         total energy =     -2760.4098602513 a.u.

                    Orbital Energies (a.u.)
 --------------------------------------------------------------

 Alpha MOs
 -- Occupied --
-92.0192 -91.9975 -91.9767 -91.9570 -26.3354 -20.6135 -20.5865 -20.5861
-20.5524 -11.4123 -11.3773 -11.3083 -11.3059 -11.3043 -11.3024 -11.3018
-11.2980 -11.2892 -11.2841 -11.2830 -11.2822 -11.2820 -11.2790 -11.2714
-11.2712 -11.2573 -11.2553 -11.2485 -11.2349  -9.0176  -9.0015  -8.9789
 -8.9596  -6.6983  -6.6977  -6.6972  -6.6827  -6.6821  -6.6807  -6.6600
 -6.6591  -6.6578  -6.6409  -6.6399  -6.6389  -1.6483  -1.4733  -1.4096
 -1.4081  -1.3689  -1.2393  -1.2081  -1.1745  -1.1446  -1.0982  -1.0509
 -1.0448  -1.0319  -1.0078  -0.9965  -0.9734  -0.9594  -0.9479  -0.9400
 -0.8926  -0.8724  -0.8633  -0.8080  -0.7942  -0.7841  -0.7774  -0.7743
 -0.7646  -0.7329  -0.7213  -0.7167  -0.6966  -0.6929  -0.6808  -0.6796
 -0.6735  -0.6637  -0.6556  -0.6479  -0.6310  -0.6303  -0.6190  -0.6141
 -0.6113  -0.6081  -0.5972  -0.5924  -0.5800  -0.5641  -0.5588  -0.5544
 -0.5463  -0.5359  -0.5285  -0.5223  -0.5124  -0.5068  -0.5040  -0.5005
 -0.4882  -0.4857  -0.4754  -0.4712  -0.4633  -0.4623  -0.4602  -0.4454
 -0.4224  -0.4027  -0.3844  -0.3692  -0.3505  -0.2939  -0.2885  -0.2198

          Ground-State Mulliken Net Atomic Charges

     Atom                 Charge (a.u.)
  ----------------------------------------
      1 C                    -0.069927
      2 C                    -0.264945
      3 S                    -0.137766
      4 C                    -0.042245
      5 H                     0.192680
      6 C                    -0.053611
      7 C                     0.224605
      8 C                     0.222844
      9 C                    -0.074844
     10 C                    -0.047448
     11 O                    -0.335029
     12 O                    -0.343322
     13 C                    -0.082280
     14 H                     0.119812
     15 H                     0.091558
     16 H                     0.093283
     17 C                    -0.086698
     18 H                     0.123116
     19 H                     0.091455
     20 H                     0.090365
     21 C                    -0.257721
     22 S                    -0.070147
     23 C                     0.028863
     24 H                     0.204353
     25 C                    -0.046393
     26 S                     0.105565
     27 C                    -0.222178
     28 C                    -0.093381
     29 C                     0.002958
     30 C                     0.365980
     31 C                    -0.146562
     32 S                     0.047759
     33 C                     0.458031
     34 O                    -0.446227
     35 O                    -0.297480
     36 F                    -0.210906
     37 C                    -0.054895
     38 H                     0.116859
     39 H                     0.084892
     40 H                     0.085044
     41 H                     0.217667
     42 H                     0.116440
     43 H                     0.114417
     44 H                     0.185456
  ----------------------------------------
  Sum of atomic charges =     0.000000

                    Cartesian Multipole Moments
 -----------------------------------------------------------------
    Charge (ESU x 10^10)
                -0.0000
    Dipole Moment (Debye)
         X       1.7546      Y       4.1958      Z       3.6229
       Tot       5.8145
    Quadrupole Moments (Debye-Ang)
        XX    -184.3762     XY       2.9546     YY    -179.5090
        XZ       2.9582     YZ     -10.6075     ZZ    -200.7961

 Total job time:  333.06s(wall), 10204.86s(cpu)
        *  Thank you very much for using Q-Chem.  Have a nice day.  *
