 Q-Chem 5.4, Q-Chem, Inc., Pleasanton, CA (2021)
 Q-Chem 5.4.0 for Intel X86 EM64T Linux

User input:
--------------------------------------------------------------
$molecule
0 1
C	0.268090	-8.519741	-0.046574
C	-0.733920	-7.635967	0.326886
S	1.722318	-7.651740	-0.595708
C	-0.371516	-6.261894	0.193236
H	-1.718130	-7.954738	0.692700
C	0.970283	-6.079985	-0.294958
C	1.498243	-4.798382	-0.515487
C	-1.219725	-5.153542	0.477358
C	-0.692914	-3.869626	0.252655
C	0.651289	-3.688927	-0.233366
O	-2.451623	-5.481075	0.957369
O	2.735264	-4.479871	-0.998769
C	3.828387	-5.356026	-0.752029
H	4.743213	-4.790496	-1.012675
H	3.788623	-6.268513	-1.386303
H	3.877260	-5.658187	0.316492
C	-3.521580	-4.546999	0.881930
H	-4.438260	-5.107564	1.145969
H	-3.631868	-4.131473	-0.142712
H	-3.399425	-3.712085	1.605610
C	1.009535	-2.314326	-0.367928
S	-1.450945	-2.295487	0.542088
C	-0.000000	-1.435180	-0.000000
H	1.993920	-1.993211	-0.730999
C	0.000000	0.000000	0.000000
S	0.158383	0.885376	1.510732
C	0.430876	2.436951	0.727629
C	0.157682	0.894430	-1.064665
C	0.397351	2.262384	-0.678287
C	0.147783	0.828765	-2.486150
C	0.367291	2.074406	-3.106916
S	0.580633	3.303533	-1.965735
C	0.416083	2.324204	-4.559972
O	0.256921	1.404367	-5.350277
O	0.642094	3.587338	-5.004375
F	-0.041828	-0.269113	-3.246290
C	0.714377	3.938827	-6.334976
H	0.906844	5.026898	-6.370268
H	-0.230661	3.710099	-6.875609
H	1.531918	3.398681	-6.861878
H	0.590699	3.342984	1.321510
H	-0.049086	-9.146471	-0.888291
H	0.578334	-9.150570	0.794665
H	-0.377309	-1.444158	-1.011908
$end

$rem
JOBTYPE		SP
EXCHANGE	HF
CORRELATION	pRIMP2
BASIS		cc-pvtz
METHOD		rimp2
AUX_BASIS	rimp2-cc-pvtz
SOLVENT_METHOD	PCM
PURECART	11111
SYMMETRY	false
MEM_TOTAL	110000
SCF_CONVERGENCE = 6
THRESH=10
GUI = 2
$end

$solvent
dielectric 4.90
$end
--------------------------------------------------------------

             Standard Nuclear Orientation (Angstroms)
    I     Atom           X                Y                Z
 ----------------------------------------------------------------
    1      C       0.2680900000    -8.5197410000    -0.0465740000
    2      C      -0.7339200000    -7.6359670000     0.3268860000
    3      S       1.7223180000    -7.6517400000    -0.5957080000
    4      C      -0.3715160000    -6.2618940000     0.1932360000
    5      H      -1.7181300000    -7.9547380000     0.6927000000
    6      C       0.9702830000    -6.0799850000    -0.2949580000
    7      C       1.4982430000    -4.7983820000    -0.5154870000
    8      C      -1.2197250000    -5.1535420000     0.4773580000
    9      C      -0.6929140000    -3.8696260000     0.2526550000
   10      C       0.6512890000    -3.6889270000    -0.2333660000
   11      O      -2.4516230000    -5.4810750000     0.9573690000
   12      O       2.7352640000    -4.4798710000    -0.9987690000
   13      C       3.8283870000    -5.3560260000    -0.7520290000
   14      H       4.7432130000    -4.7904960000    -1.0126750000
   15      H       3.7886230000    -6.2685130000    -1.3863030000
   16      H       3.8772600000    -5.6581870000     0.3164920000
   17      C      -3.5215800000    -4.5469990000     0.8819300000
   18      H      -4.4382600000    -5.1075640000     1.1459690000
   19      H      -3.6318680000    -4.1314730000    -0.1427120000
   20      H      -3.3994250000    -3.7120850000     1.6056100000
   21      C       1.0095350000    -2.3143260000    -0.3679280000
   22      S      -1.4509450000    -2.2954870000     0.5420880000
   23      C       0.0000000000    -1.4351800000     0.0000000000
   24      H       1.9939200000    -1.9932110000    -0.7309990000
   25      C       0.0000000000     0.0000000000     0.0000000000
   26      S       0.1583830000     0.8853760000     1.5107320000
   27      C       0.4308760000     2.4369510000     0.7276290000
   28      C       0.1576820000     0.8944300000    -1.0646650000
   29      C       0.3973510000     2.2623840000    -0.6782870000
   30      C       0.1477830000     0.8287650000    -2.4861500000
   31      C       0.3672910000     2.0744060000    -3.1069160000
   32      S       0.5806330000     3.3035330000    -1.9657350000
   33      C       0.4160830000     2.3242040000    -4.5599720000
   34      O       0.2569210000     1.4043670000    -5.3502770000
   35      O       0.6420940000     3.5873380000    -5.0043750000
   36      F      -0.0418280000    -0.2691130000    -3.2462900000
   37      C       0.7143770000     3.9388270000    -6.3349760000
   38      H       0.9068440000     5.0268980000    -6.3702680000
   39      H      -0.2306610000     3.7100990000    -6.8756090000
   40      H       1.5319180000     3.3986810000    -6.8618780000
   41      H       0.5906990000     3.3429840000     1.3215100000
   42      H      -0.0490860000    -9.1464710000    -0.8882910000
   43      H       0.5783340000    -9.1505700000     0.7946650000
   44      H      -0.3773090000    -1.4441580000    -1.0119080000
 ----------------------------------------------------------------

   11   -2755.3276027962      7.09e-07  Convergence criterion met
 Total energy in the final basis set =    -2755.3276027962
        RIMP2         total energy =     -2760.4191772201 a.u.

                    Orbital Energies (a.u.)
 --------------------------------------------------------------

 Alpha MOs
 -- Occupied --
-92.0131 -91.9967 -91.9782 -91.9581 -26.3389 -20.6134 -20.5870 -20.5870
-20.5519 -11.4121 -11.3797 -11.3136 -11.3090 -11.3075 -11.3005 -11.2980
-11.2958 -11.2892 -11.2862 -11.2845 -11.2830 -11.2826 -11.2813 -11.2730
-11.2729 -11.2582 -11.2582 -11.2496 -11.2371  -9.0117  -9.0007  -8.9804
 -8.9608  -6.6925  -6.6919  -6.6915  -6.6820  -6.6813  -6.6800  -6.6615
 -6.6606  -6.6593  -6.6420  -6.6411  -6.6400  -1.6520  -1.4732  -1.4104
 -1.4088  -1.3687  -1.2393  -1.2088  -1.1752  -1.1436  -1.1002  -1.0521
 -1.0460  -1.0296  -1.0091  -0.9979  -0.9728  -0.9597  -0.9488  -0.9411
 -0.8935  -0.8745  -0.8628  -0.8088  -0.7944  -0.7853  -0.7803  -0.7718
 -0.7624  -0.7339  -0.7201  -0.7195  -0.6980  -0.6927  -0.6873  -0.6798
 -0.6762  -0.6737  -0.6556  -0.6485  -0.6336  -0.6277  -0.6200  -0.6148
 -0.6112  -0.6077  -0.5964  -0.5934  -0.5834  -0.5666  -0.5581  -0.5534
 -0.5478  -0.5344  -0.5294  -0.5227  -0.5128  -0.5075  -0.5032  -0.5020
 -0.4871  -0.4853  -0.4763  -0.4703  -0.4628  -0.4624  -0.4609  -0.4462
 -0.4232  -0.4040  -0.3856  -0.3702  -0.3503  -0.2931  -0.2889  -0.2206

          Ground-State Mulliken Net Atomic Charges

     Atom                 Charge (a.u.)
  ----------------------------------------
      1 C                    -0.070319
      2 C                    -0.258662
      3 S                    -0.134868
      4 C                    -0.045361
      5 H                     0.193451
      6 C                    -0.052280
      7 C                     0.223567
      8 C                     0.230614
      9 C                    -0.084274
     10 C                    -0.052781
     11 O                    -0.335122
     12 O                    -0.343084
     13 C                    -0.082584
     14 H                     0.120052
     15 H                     0.092169
     16 H                     0.092505
     17 C                    -0.086483
     18 H                     0.123136
     19 H                     0.092931
     20 H                     0.090035
     21 C                    -0.247728
     22 S                    -0.069592
     23 C                     0.061926
     24 H                     0.206659
     25 C                    -0.090919
     26 S                     0.099805
     27 C                    -0.232063
     28 C                    -0.092634
     29 C                    -0.007520
     30 C                     0.389422
     31 C                    -0.137298
     32 S                     0.041205
     33 C                     0.460089
     34 O                    -0.448577
     35 O                    -0.297451
     36 F                    -0.215158
     37 C                    -0.055069
     38 H                     0.116926
     39 H                     0.084892
     40 H                     0.084807
     41 H                     0.215168
     42 H                     0.117558
     43 H                     0.115053
     44 H                     0.187857
  ----------------------------------------
  Sum of atomic charges =     0.000000

                    Cartesian Multipole Moments
 -----------------------------------------------------------------
    Charge (ESU x 10^10)
                -0.0000
    Dipole Moment (Debye)
         X       0.3321      Y       3.5682      Z       2.5697
       Tot       4.4097
    Quadrupole Moments (Debye-Ang)
        XX    -182.4248     XY       6.4278     YY    -173.9683
        XZ      -2.4032     YZ     -12.3907     ZZ    -205.9446

 Total job time:  360.49s(wall), 10872.08s(cpu)
        *  Thank you very much for using Q-Chem.  Have a nice day.  *
