 Q-Chem 5.4, Q-Chem, Inc., Pleasanton, CA (2021)
 Q-Chem 5.4.0 for Intel X86 EM64T Linux

User input:
--------------------------------------------------------------
$molecule
0 1
C	0.694800	-8.491498	0.267851
C	0.609575	-7.611804	-0.801461
S	0.637720	-7.625175	1.822194
C	0.491451	-6.242817	-0.415201
H	0.630252	-7.929984	-1.851431
C	0.475427	-6.061615	1.012650
C	0.390283	-4.782565	1.584194
C	0.417881	-5.136668	-1.309433
C	0.336834	-3.854939	-0.737539
C	0.318062	-3.675191	0.691828
O	0.416812	-5.465546	-2.631211
O	0.393456	-4.462560	2.911907
C	-0.133608	-5.388174	3.854716
H	-0.250600	-4.830719	4.803517
H	0.553224	-6.244057	4.034285
H	-1.124185	-5.778154	3.535185
C	0.770575	-4.496951	-3.610841
H	0.884590	-5.049682	-4.562544
H	1.731122	-3.995801	-3.364029
H	-0.021261	-3.728125	-3.743566
C	0.202163	-2.305480	1.074491
S	0.186971	-2.287897	-1.548848
C	0.125084	-1.429719	0.000000
H	0.178654	-1.985194	2.123688
C	0.000000	0.000000	0.000000
S	0.002233	0.899428	1.510732
C	0.001157	2.474749	0.727629
C	-0.000030	0.908223	-1.064665
C	-0.001545	2.297013	-0.678287
C	0.001624	0.841837	-2.486150
C	0.001494	2.106670	-3.106916
S	-0.001841	3.354171	-1.965735
C	0.006168	2.361146	-4.559972
O	0.009152	1.427646	-5.350277
O	0.009405	3.644337	-5.004375
F	0.005539	-0.272288	-3.246290
C	0.019554	4.003038	-6.334976
H	0.020155	5.108000	-6.370268
H	-0.871409	3.613681	-6.875609
H	0.918470	3.613062	-6.861878
H	0.001222	3.394771	1.321510
H	1.645436	-9.037452	0.257688
H	-0.143423	-9.198072	0.271664
H	1.201687	-1.344541	-0.008462
$end

$rem
JOBTYPE		SP
EXCHANGE	HF
CORRELATION	pRIMP2
BASIS		cc-pvtz
METHOD		rimp2
AUX_BASIS	rimp2-cc-pvtz
SOLVENT_METHOD	PCM
PURECART	11111
SYMMETRY	false
MEM_TOTAL	110000
SCF_CONVERGENCE = 6
THRESH=10
GUI = 2
$end

$solvent
dielectric 4.90
$end
--------------------------------------------------------------

             Standard Nuclear Orientation (Angstroms)
    I     Atom           X                Y                Z
 ----------------------------------------------------------------
    1      C       0.6948000000    -8.4914980000     0.2678510000
    2      C       0.6095750000    -7.6118040000    -0.8014610000
    3      S       0.6377200000    -7.6251750000     1.8221940000
    4      C       0.4914510000    -6.2428170000    -0.4152010000
    5      H       0.6302520000    -7.9299840000    -1.8514310000
    6      C       0.4754270000    -6.0616150000     1.0126500000
    7      C       0.3902830000    -4.7825650000     1.5841940000
    8      C       0.4178810000    -5.1366680000    -1.3094330000
    9      C       0.3368340000    -3.8549390000    -0.7375390000
   10      C       0.3180620000    -3.6751910000     0.6918280000
   11      O       0.4168120000    -5.4655460000    -2.6312110000
   12      O       0.3934560000    -4.4625600000     2.9119070000
   13      C      -0.1336080000    -5.3881740000     3.8547160000
   14      H      -0.2506000000    -4.8307190000     4.8035170000
   15      H       0.5532240000    -6.2440570000     4.0342850000
   16      H      -1.1241850000    -5.7781540000     3.5351850000
   17      C       0.7705750000    -4.4969510000    -3.6108410000
   18      H       0.8845900000    -5.0496820000    -4.5625440000
   19      H       1.7311220000    -3.9958010000    -3.3640290000
   20      H      -0.0212610000    -3.7281250000    -3.7435660000
   21      C       0.2021630000    -2.3054800000     1.0744910000
   22      S       0.1869710000    -2.2878970000    -1.5488480000
   23      C       0.1250840000    -1.4297190000     0.0000000000
   24      H       0.1786540000    -1.9851940000     2.1236880000
   25      C       0.0000000000     0.0000000000     0.0000000000
   26      S       0.0022330000     0.8994280000     1.5107320000
   27      C       0.0011570000     2.4747490000     0.7276290000
   28      C      -0.0000300000     0.9082230000    -1.0646650000
   29      C      -0.0015450000     2.2970130000    -0.6782870000
   30      C       0.0016240000     0.8418370000    -2.4861500000
   31      C       0.0014940000     2.1066700000    -3.1069160000
   32      S      -0.0018410000     3.3541710000    -1.9657350000
   33      C       0.0061680000     2.3611460000    -4.5599720000
   34      O       0.0091520000     1.4276460000    -5.3502770000
   35      O       0.0094050000     3.6443370000    -5.0043750000
   36      F       0.0055390000    -0.2722880000    -3.2462900000
   37      C       0.0195540000     4.0030380000    -6.3349760000
   38      H       0.0201550000     5.1080000000    -6.3702680000
   39      H      -0.8714090000     3.6136810000    -6.8756090000
   40      H       0.9184700000     3.6130620000    -6.8618780000
   41      H       0.0012220000     3.3947710000     1.3215100000
   42      H       1.6454360000    -9.0374520000     0.2576880000
   43      H      -0.1434230000    -9.1980720000     0.2716640000
   44      H       1.2016870000    -1.3445410000    -0.0084620000
 ----------------------------------------------------------------

   11   -2755.3217198408      6.92e-07  Convergence criterion met
 Total energy in the final basis set =    -2755.3217198408
        RIMP2         total energy =     -2760.4128096035 a.u.

                    Orbital Energies (a.u.)
 --------------------------------------------------------------

 Alpha MOs
 -- Occupied --
-92.0131 -91.9910 -91.9763 -91.9613 -26.3355 -20.6103 -20.5887 -20.5883
-20.5465 -11.4074 -11.3793 -11.3279 -11.3115 -11.3100 -11.2961 -11.2904
-11.2877 -11.2877 -11.2842 -11.2839 -11.2820 -11.2806 -11.2774 -11.2752
-11.2714 -11.2638 -11.2605 -11.2528 -11.2442  -9.0118  -8.9952  -8.9790
 -8.9639  -6.6926  -6.6920  -6.6914  -6.6765  -6.6758  -6.6744  -6.6598
 -6.6591  -6.6575  -6.6451  -6.6442  -6.6432  -1.6516  -1.4698  -1.4120
 -1.4102  -1.3647  -1.2376  -1.2103  -1.1786  -1.1429  -1.1011  -1.0505
 -1.0473  -1.0290  -1.0086  -1.0008  -0.9711  -0.9603  -0.9499  -0.9402
 -0.8955  -0.8723  -0.8637  -0.8134  -0.7960  -0.7864  -0.7765  -0.7664
 -0.7625  -0.7341  -0.7209  -0.7185  -0.6984  -0.6954  -0.6844  -0.6772
 -0.6729  -0.6718  -0.6569  -0.6496  -0.6384  -0.6302  -0.6230  -0.6160
 -0.6109  -0.6041  -0.5972  -0.5908  -0.5773  -0.5684  -0.5647  -0.5595
 -0.5493  -0.5332  -0.5290  -0.5211  -0.5138  -0.5091  -0.5048  -0.4995
 -0.4839  -0.4813  -0.4808  -0.4671  -0.4602  -0.4600  -0.4580  -0.4485
 -0.4320  -0.3998  -0.3859  -0.3730  -0.3508  -0.2933  -0.2831  -0.2195

          Ground-State Mulliken Net Atomic Charges

     Atom                 Charge (a.u.)
  ----------------------------------------
      1 C                    -0.071216
      2 C                    -0.237746
      3 S                    -0.128973
      4 C                    -0.053627
      5 H                     0.196484
      6 C                    -0.046311
      7 C                     0.219770
      8 C                     0.237783
      9 C                    -0.077709
     10 C                    -0.017167
     11 O                    -0.334008
     12 O                    -0.344027
     13 C                    -0.082719
     14 H                     0.120273
     15 H                     0.091984
     16 H                     0.093098
     17 C                    -0.089434
     18 H                     0.125049
     19 H                     0.093143
     20 H                     0.092790
     21 C                    -0.345448
     22 S                    -0.093968
     23 C                     0.157593
     24 H                     0.194552
     25 C                    -0.026389
     26 S                     0.075691
     27 C                    -0.274658
     28 C                    -0.124472
     29 C                    -0.018534
     30 C                     0.396129
     31 C                    -0.147962
     32 S                     0.025751
     33 C                     0.462560
     34 O                    -0.457409
     35 O                    -0.298765
     36 F                    -0.210395
     37 C                    -0.055247
     38 H                     0.116312
     39 H                     0.084014
     40 H                     0.083733
     41 H                     0.213975
     42 H                     0.120380
     43 H                     0.118093
     44 H                     0.217028
  ----------------------------------------
  Sum of atomic charges =     0.000000

                    Cartesian Multipole Moments
 -----------------------------------------------------------------
    Charge (ESU x 10^10)
                -0.0000
    Dipole Moment (Debye)
         X       0.8234      Y       0.9594      Z       2.9558
       Tot       3.2149
    Quadrupole Moments (Debye-Ang)
        XX    -199.5634     XY      -1.7449     YY    -165.2873
        XZ      -6.0980     YZ      -5.4811     ZZ    -190.9952

 Total job time:  643.96s(wall), 10686.07s(cpu)
        *  Thank you very much for using Q-Chem.  Have a nice day.  *
