 Q-Chem 5.4, Q-Chem, Inc., Pleasanton, CA (2021)
 Q-Chem 5.4.0 for Intel X86 EM64T Linux

User input:
--------------------------------------------------------------
$molecule
0 1
C	-0.135457	-8.519741	-0.235993
C	0.558188	-7.635967	0.577858
S	-1.148850	-7.651740	-1.414705
C	0.308648	-6.261894	0.283020
H	1.238560	-7.954738	1.377597
C	-0.609026	-6.079985	-0.810887
C	-0.996828	-4.798382	-1.231581
C	0.865740	-5.153542	0.982901
C	0.474408	-3.869626	0.564713
C	-0.442046	-3.688927	-0.532196
O	1.738137	-5.481075	1.976332
O	-1.874052	-4.479871	-2.228709
C	-2.016062	-5.356026	-3.340298
H	-2.573877	-4.790496	-4.110807
H	-2.598484	-6.268513	-3.085998
H	-1.028695	-5.658187	-3.751679
C	2.033195	-4.546999	3.007565
H	2.594833	-5.107564	3.778655
H	1.108067	-4.131473	3.461650
H	2.671451	-3.712085	2.645264
C	-0.691020	-2.314326	-0.822814
S	1.005649	-2.295487	1.178037
C	0.000000	-1.435180	0.000000
H	-1.368875	-1.993211	-1.623656
C	0.000000	0.000000	0.000000
S	0.309721	0.844422	1.510732
C	0.847502	2.325108	0.727629
C	0.310602	0.853460	-1.064665
C	0.784173	2.159014	-0.678287
C	0.289451	0.790512	-2.486150
C	0.721927	1.979112	-3.106916
S	1.145464	3.152519	-1.965735
C	0.813355	2.216642	-4.559972
O	0.496884	1.338418	-5.350277
O	1.255274	3.421340	-5.004375
F	-0.087923	-0.257761	-3.246290
C	1.387494	3.754937	-6.334976
H	1.765978	4.793056	-6.370268
H	0.417095	3.693789	-6.875609
H	2.098820	3.081033	-6.861878
H	1.162229	3.189623	1.321510
H	-0.817932	-9.146471	0.349939
H	0.548939	-9.150570	-0.815247
H	-0.821835	-1.444158	0.700647
$end

$rem
JOBTYPE		SP
EXCHANGE	HF
CORRELATION	pRIMP2
BASIS		cc-pvtz
METHOD		rimp2
AUX_BASIS	rimp2-cc-pvtz
SOLVENT_METHOD	PCM
PURECART	11111
SYMMETRY	false
MEM_TOTAL	110000
SCF_CONVERGENCE = 6
THRESH=10
GUI = 2
$end

$solvent
dielectric 4.90
$end
--------------------------------------------------------------

             Standard Nuclear Orientation (Angstroms)
    I     Atom           X                Y                Z
 ----------------------------------------------------------------
    1      C      -0.1354570000    -8.5197410000    -0.2359930000
    2      C       0.5581880000    -7.6359670000     0.5778580000
    3      S      -1.1488500000    -7.6517400000    -1.4147050000
    4      C       0.3086480000    -6.2618940000     0.2830200000
    5      H       1.2385600000    -7.9547380000     1.3775970000
    6      C      -0.6090260000    -6.0799850000    -0.8108870000
    7      C      -0.9968280000    -4.7983820000    -1.2315810000
    8      C       0.8657400000    -5.1535420000     0.9829010000
    9      C       0.4744080000    -3.8696260000     0.5647130000
   10      C      -0.4420460000    -3.6889270000    -0.5321960000
   11      O       1.7381370000    -5.4810750000     1.9763320000
   12      O      -1.8740520000    -4.4798710000    -2.2287090000
   13      C      -2.0160620000    -5.3560260000    -3.3402980000
   14      H      -2.5738770000    -4.7904960000    -4.1108070000
   15      H      -2.5984840000    -6.2685130000    -3.0859980000
   16      H      -1.0286950000    -5.6581870000    -3.7516790000
   17      C       2.0331950000    -4.5469990000     3.0075650000
   18      H       2.5948330000    -5.1075640000     3.7786550000
   19      H       1.1080670000    -4.1314730000     3.4616500000
   20      H       2.6714510000    -3.7120850000     2.6452640000
   21      C      -0.6910200000    -2.3143260000    -0.8228140000
   22      S       1.0056490000    -2.2954870000     1.1780370000
   23      C       0.0000000000    -1.4351800000     0.0000000000
   24      H      -1.3688750000    -1.9932110000    -1.6236560000
   25      C       0.0000000000     0.0000000000     0.0000000000
   26      S       0.3097210000     0.8444220000     1.5107320000
   27      C       0.8475020000     2.3251080000     0.7276290000
   28      C       0.3106020000     0.8534600000    -1.0646650000
   29      C       0.7841730000     2.1590140000    -0.6782870000
   30      C       0.2894510000     0.7905120000    -2.4861500000
   31      C       0.7219270000     1.9791120000    -3.1069160000
   32      S       1.1454640000     3.1525190000    -1.9657350000
   33      C       0.8133550000     2.2166420000    -4.5599720000
   34      O       0.4968840000     1.3384180000    -5.3502770000
   35      O       1.2552740000     3.4213400000    -5.0043750000
   36      F      -0.0879230000    -0.2577610000    -3.2462900000
   37      C       1.3874940000     3.7549370000    -6.3349760000
   38      H       1.7659780000     4.7930560000    -6.3702680000
   39      H       0.4170950000     3.6937890000    -6.8756090000
   40      H       2.0988200000     3.0810330000    -6.8618780000
   41      H       1.1622290000     3.1896230000     1.3215100000
   42      H      -0.8179320000    -9.1464710000     0.3499390000
   43      H       0.5489390000    -9.1505700000    -0.8152470000
   44      H      -0.8218350000    -1.4441580000     0.7006470000
 ----------------------------------------------------------------

   11   -2755.3180690518      7.73e-07  Convergence criterion met
 Total energy in the final basis set =    -2755.3180690518
        RIMP2         total energy =     -2760.4113464164 a.u.

                    Orbital Energies (a.u.)
 --------------------------------------------------------------

 Alpha MOs
 -- Occupied --
-92.0167 -91.9948 -91.9810 -91.9580 -26.3368 -20.6124 -20.5875 -20.5866
-20.5503 -11.4106 -11.3786 -11.3150 -11.3090 -11.3081 -11.2975 -11.2975
-11.2938 -11.2887 -11.2852 -11.2837 -11.2821 -11.2819 -11.2802 -11.2728
-11.2727 -11.2583 -11.2580 -11.2494 -11.2367  -9.0154  -8.9989  -8.9832
 -8.9606  -6.6961  -6.6956  -6.6951  -6.6801  -6.6795  -6.6781  -6.6643
 -6.6634  -6.6620  -6.6418  -6.6409  -6.6398  -1.6499  -1.4721  -1.4109
 -1.4085  -1.3674  -1.2386  -1.2098  -1.1756  -1.1441  -1.0994  -1.0504
 -1.0465  -1.0303  -1.0092  -0.9985  -0.9725  -0.9597  -0.9488  -0.9403
 -0.8943  -0.8719  -0.8642  -0.8078  -0.7964  -0.7860  -0.7771  -0.7712
 -0.7646  -0.7324  -0.7223  -0.7179  -0.6975  -0.6928  -0.6828  -0.6788
 -0.6727  -0.6659  -0.6567  -0.6484  -0.6368  -0.6299  -0.6199  -0.6144
 -0.6105  -0.6067  -0.5955  -0.5930  -0.5779  -0.5682  -0.5588  -0.5523
 -0.5481  -0.5367  -0.5315  -0.5227  -0.5141  -0.5080  -0.5054  -0.5004
 -0.4856  -0.4850  -0.4780  -0.4728  -0.4622  -0.4614  -0.4591  -0.4459
 -0.4287  -0.3995  -0.3859  -0.3703  -0.3515  -0.2937  -0.2860  -0.2181

          Ground-State Mulliken Net Atomic Charges

     Atom                 Charge (a.u.)
  ----------------------------------------
      1 C                    -0.070102
      2 C                    -0.261020
      3 S                    -0.135161
      4 C                    -0.043901
      5 H                     0.193287
      6 C                    -0.052294
      7 C                     0.223607
      8 C                     0.223748
      9 C                    -0.077699
     10 C                    -0.048867
     11 O                    -0.334305
     12 O                    -0.343253
     13 C                    -0.082409
     14 H                     0.120764
     15 H                     0.091590
     16 H                     0.093056
     17 C                    -0.087783
     18 H                     0.123933
     19 H                     0.092213
     20 H                     0.089873
     21 C                    -0.266692
     22 S                    -0.073116
     23 C                     0.075123
     24 H                     0.204483
     25 C                    -0.101489
     26 S                     0.085266
     27 C                    -0.227802
     28 C                    -0.036330
     29 C                    -0.017013
     30 C                     0.373172
     31 C                    -0.144219
     32 S                     0.037209
     33 C                     0.458279
     34 O                    -0.450461
     35 O                    -0.297932
     36 F                    -0.212651
     37 C                    -0.054917
     38 H                     0.116667
     39 H                     0.084493
     40 H                     0.084586
     41 H                     0.216065
     42 H                     0.117188
     43 H                     0.114998
     44 H                     0.199813
  ----------------------------------------
  Sum of atomic charges =     0.000000

                    Cartesian Multipole Moments
 -----------------------------------------------------------------
    Charge (ESU x 10^10)
                -0.0000
    Dipole Moment (Debye)
         X       0.8147      Y       3.1624      Z       3.7636
       Tot       4.9829
    Quadrupole Moments (Debye-Ang)
        XX    -197.2271     XY       2.5469     YY    -176.2858
        XZ       2.6197     YZ     -12.8748     ZZ    -190.1615

 Total job time:  324.13s(wall), 10515.11s(cpu)
        *  Thank you very much for using Q-Chem.  Have a nice day.  *
