 Q-Chem 5.4, Q-Chem, Inc., Pleasanton, CA (2021)
 Q-Chem 5.4.0 for Intel X86 EM64T Linux

User input:
--------------------------------------------------------------
$molecule
0 1
C	-0.235306	-8.519741	-0.136647
C	0.772334	-7.635967	0.221346
S	-1.702286	-7.651740	-0.650746
C	0.408807	-6.261894	0.090779
H	1.761423	-7.954738	0.573754
C	-0.932876	-6.079985	-0.397735
C	-1.479069	-4.798382	-0.568166
C	1.241204	-5.153542	0.418347
C	0.693206	-3.869626	0.251852
C	-0.648921	-3.688927	-0.239872
O	2.493437	-5.481075	0.842486
O	-2.737331	-4.479871	-0.993092
C	-3.416110	-5.356026	-1.884752
H	-4.284447	-4.790496	-2.273124
H	-3.793352	-6.268513	-1.373310
H	-2.766716	-5.658187	-2.734702
C	3.264581	-4.546999	1.588030
H	4.136519	-5.107564	1.974995
H	2.690439	-4.131473	2.443843
H	3.636177	-3.712085	0.955140
C	-1.009848	-2.314326	-0.367068
S	1.459936	-2.295487	0.517386
C	0.000000	-1.435180	0.000000
H	-1.997308	-1.993211	-0.721689
C	0.000000	0.000000	0.000000
S	0.234946	0.868203	1.510732
C	0.641630	2.390125	0.727629
C	0.235036	0.877284	-1.064665
C	0.593019	2.219143	-0.678287
C	0.219452	0.812732	-2.486150
C	0.546689	2.034501	-3.106916
S	0.866345	3.240357	-1.965735
C	0.617067	2.279095	-4.559972
O	0.378342	1.376631	-5.350277
O	0.952308	3.517725	-5.004375
F	-0.065123	-0.264443	-3.246290
C	1.054950	3.861577	-6.334976
H	1.341516	4.928732	-6.370268
H	0.093573	3.716085	-6.875609
H	1.822303	3.252232	-6.861878
H	0.879812	3.278780	1.321510
H	-0.533380	-9.146471	0.712022
H	0.067771	-9.150570	-0.980494
H	-0.361406	-1.444158	1.017696
$end

$rem
JOBTYPE		SP
EXCHANGE	HF
CORRELATION	pRIMP2
BASIS		cc-pvtz
METHOD		rimp2
AUX_BASIS	rimp2-cc-pvtz
SOLVENT_METHOD	PCM
PURECART	11111
SYMMETRY	false
MEM_TOTAL	110000
SCF_CONVERGENCE = 6
THRESH=10
GUI = 2
$end

$solvent
dielectric 4.90
$end
--------------------------------------------------------------

             Standard Nuclear Orientation (Angstroms)
    I     Atom           X                Y                Z
 ----------------------------------------------------------------
    1      C      -0.2353060000    -8.5197410000    -0.1366470000
    2      C       0.7723340000    -7.6359670000     0.2213460000
    3      S      -1.7022860000    -7.6517400000    -0.6507460000
    4      C       0.4088070000    -6.2618940000     0.0907790000
    5      H       1.7614230000    -7.9547380000     0.5737540000
    6      C      -0.9328760000    -6.0799850000    -0.3977350000
    7      C      -1.4790690000    -4.7983820000    -0.5681660000
    8      C       1.2412040000    -5.1535420000     0.4183470000
    9      C       0.6932060000    -3.8696260000     0.2518520000
   10      C      -0.6489210000    -3.6889270000    -0.2398720000
   11      O       2.4934370000    -5.4810750000     0.8424860000
   12      O      -2.7373310000    -4.4798710000    -0.9930920000
   13      C      -3.4161100000    -5.3560260000    -1.8847520000
   14      H      -4.2844470000    -4.7904960000    -2.2731240000
   15      H      -3.7933520000    -6.2685130000    -1.3733100000
   16      H      -2.7667160000    -5.6581870000    -2.7347020000
   17      C       3.2645810000    -4.5469990000     1.5880300000
   18      H       4.1365190000    -5.1075640000     1.9749950000
   19      H       2.6904390000    -4.1314730000     2.4438430000
   20      H       3.6361770000    -3.7120850000     0.9551400000
   21      C      -1.0098480000    -2.3143260000    -0.3670680000
   22      S       1.4599360000    -2.2954870000     0.5173860000
   23      C       0.0000000000    -1.4351800000     0.0000000000
   24      H      -1.9973080000    -1.9932110000    -0.7216890000
   25      C       0.0000000000     0.0000000000     0.0000000000
   26      S       0.2349460000     0.8682030000     1.5107320000
   27      C       0.6416300000     2.3901250000     0.7276290000
   28      C       0.2350360000     0.8772840000    -1.0646650000
   29      C       0.5930190000     2.2191430000    -0.6782870000
   30      C       0.2194520000     0.8127320000    -2.4861500000
   31      C       0.5466890000     2.0345010000    -3.1069160000
   32      S       0.8663450000     3.2403570000    -1.9657350000
   33      C       0.6170670000     2.2790950000    -4.5599720000
   34      O       0.3783420000     1.3766310000    -5.3502770000
   35      O       0.9523080000     3.5177250000    -5.0043750000
   36      F      -0.0651230000    -0.2644430000    -3.2462900000
   37      C       1.0549500000     3.8615770000    -6.3349760000
   38      H       1.3415160000     4.9287320000    -6.3702680000
   39      H       0.0935730000     3.7160850000    -6.8756090000
   40      H       1.8223030000     3.2522320000    -6.8618780000
   41      H       0.8798120000     3.2787800000     1.3215100000
   42      H      -0.5333800000    -9.1464710000     0.7120220000
   43      H       0.0677710000    -9.1505700000    -0.9804940000
   44      H      -0.3614060000    -1.4441580000     1.0176960000
 ----------------------------------------------------------------

   11   -2755.3231087838      7.45e-07  Convergence criterion met
 Total energy in the final basis set =    -2755.3231087838
        RIMP2         total energy =     -2760.4145398016 a.u.

                    Orbital Energies (a.u.)
 --------------------------------------------------------------

 Alpha MOs
 -- Occupied --
-92.0191 -91.9960 -91.9778 -91.9576 -26.3356 -20.6129 -20.5867 -20.5866
-20.5514 -11.4115 -11.3777 -11.3100 -11.3086 -11.3067 -11.2997 -11.2985
-11.2973 -11.2889 -11.2845 -11.2829 -11.2821 -11.2815 -11.2805 -11.2722
-11.2722 -11.2578 -11.2569 -11.2491 -11.2359  -9.0175  -9.0000  -8.9801
 -8.9602  -6.6982  -6.6976  -6.6971  -6.6813  -6.6806  -6.6793  -6.6612
 -6.6603  -6.6590  -6.6414  -6.6405  -6.6395  -1.6485  -1.4727  -1.4100
 -1.4084  -1.3682  -1.2382  -1.2088  -1.1749  -1.1442  -1.0989  -1.0503
 -1.0455  -1.0312  -1.0084  -0.9973  -0.9729  -0.9596  -0.9483  -0.9402
 -0.8931  -0.8717  -0.8643  -0.8078  -0.7945  -0.7848  -0.7778  -0.7736
 -0.7650  -0.7329  -0.7215  -0.7167  -0.6970  -0.6925  -0.6814  -0.6792
 -0.6729  -0.6641  -0.6560  -0.6482  -0.6323  -0.6305  -0.6195  -0.6143
 -0.6111  -0.6074  -0.5960  -0.5925  -0.5810  -0.5654  -0.5586  -0.5535
 -0.5480  -0.5361  -0.5289  -0.5226  -0.5130  -0.5072  -0.5038  -0.5008
 -0.4876  -0.4858  -0.4772  -0.4715  -0.4626  -0.4619  -0.4605  -0.4457
 -0.4238  -0.4024  -0.3849  -0.3699  -0.3510  -0.2929  -0.2883  -0.2202

          Ground-State Mulliken Net Atomic Charges

     Atom                 Charge (a.u.)
  ----------------------------------------
      1 C                    -0.070075
      2 C                    -0.262303
      3 S                    -0.136227
      4 C                    -0.043054
      5 H                     0.193007
      6 C                    -0.052348
      7 C                     0.226046
      8 C                     0.223622
      9 C                    -0.076175
     10 C                    -0.051536
     11 O                    -0.334879
     12 O                    -0.343510
     13 C                    -0.082323
     14 H                     0.120017
     15 H                     0.091475
     16 H                     0.093411
     17 C                    -0.086803
     18 H                     0.123171
     19 H                     0.091674
     20 H                     0.090393
     21 C                    -0.251193
     22 S                    -0.069287
     23 C                     0.050540
     24 H                     0.204780
     25 C                    -0.078249
     26 S                     0.102851
     27 C                    -0.232778
     28 C                    -0.073490
     29 C                    -0.000992
     30 C                     0.375540
     31 C                    -0.150018
     32 S                     0.041545
     33 C                     0.459031
     34 O                    -0.448168
     35 O                    -0.297586
     36 F                    -0.211823
     37 C                    -0.054999
     38 H                     0.116729
     39 H                     0.084738
     40 H                     0.084839
     41 H                     0.216809
     42 H                     0.116831
     43 H                     0.114773
     44 H                     0.185992
  ----------------------------------------
  Sum of atomic charges =     0.000000

                    Cartesian Multipole Moments
 -----------------------------------------------------------------
    Charge (ESU x 10^10)
                -0.0000
    Dipole Moment (Debye)
         X       0.8995      Y       3.8839      Z       3.7313
       Tot       5.4604
    Quadrupole Moments (Debye-Ang)
        XX    -189.2177     XY       0.6454     YY    -176.4470
        XZ       6.1583     YZ     -11.6884     ZZ    -198.4465

 Total job time:  357.10s(wall), 12637.08s(cpu)
        *  Thank you very much for using Q-Chem.  Have a nice day.  *
