 Q-Chem 5.4, Q-Chem, Inc., Pleasanton, CA (2021)
 Q-Chem 5.4.0 for Intel X86 EM64T Linux

User input:
--------------------------------------------------------------
$molecule
0 1
C	0.235993	-8.519741	-0.135457
C	-0.577858	-7.635967	0.558188
S	1.414705	-7.651740	-1.148850
C	-0.283020	-6.261894	0.308648
H	-1.377597	-7.954738	1.238560
C	0.810887	-6.079985	-0.609026
C	1.231581	-4.798382	-0.996828
C	-0.982901	-5.153542	0.865740
C	-0.564713	-3.869626	0.474408
C	0.532196	-3.688927	-0.442046
O	-1.976332	-5.481075	1.738137
O	2.228709	-4.479871	-1.874052
C	3.340298	-5.356026	-2.016062
H	4.110807	-4.790496	-2.573877
H	3.085998	-6.268513	-2.598484
H	3.751679	-5.658187	-1.028695
C	-3.007565	-4.546999	2.033195
H	-3.778655	-5.107564	2.594833
H	-3.461650	-4.131473	1.108067
H	-2.645264	-3.712085	2.671451
C	0.822814	-2.314326	-0.691020
S	-1.178037	-2.295487	1.005649
C	0.000000	-1.435180	0.000000
H	1.623656	-1.993211	-1.368875
C	0.000000	0.000000	0.000000
S	0.309721	0.844422	1.510732
C	0.847502	2.325108	0.727629
C	0.310602	0.853460	-1.064665
C	0.784173	2.159014	-0.678287
C	0.289451	0.790512	-2.486150
C	0.721927	1.979112	-3.106916
S	1.145464	3.152519	-1.965735
C	0.813355	2.216642	-4.559972
O	0.496884	1.338418	-5.350277
O	1.255274	3.421340	-5.004375
F	-0.087923	-0.257761	-3.246290
C	1.387494	3.754937	-6.334976
H	1.765978	4.793056	-6.370268
H	0.417095	3.693789	-6.875609
H	2.098820	3.081033	-6.861878
H	1.162229	3.189623	1.321510
H	-0.349939	-9.146471	-0.817932
H	0.815247	-9.150570	0.548939
H	-0.700647	-1.444158	-0.821835
$end

$rem
JOBTYPE		SP
EXCHANGE	HF
CORRELATION	pRIMP2
BASIS		cc-pvtz
METHOD		rimp2
AUX_BASIS	rimp2-cc-pvtz
SOLVENT_METHOD	PCM
PURECART	11111
SYMMETRY	false
MEM_TOTAL	110000
SCF_CONVERGENCE = 6
THRESH=10
GUI = 2
$end

$solvent
dielectric 4.90
$end
--------------------------------------------------------------

             Standard Nuclear Orientation (Angstroms)
    I     Atom           X                Y                Z
 ----------------------------------------------------------------
    1      C       0.2359930000    -8.5197410000    -0.1354570000
    2      C      -0.5778580000    -7.6359670000     0.5581880000
    3      S       1.4147050000    -7.6517400000    -1.1488500000
    4      C      -0.2830200000    -6.2618940000     0.3086480000
    5      H      -1.3775970000    -7.9547380000     1.2385600000
    6      C       0.8108870000    -6.0799850000    -0.6090260000
    7      C       1.2315810000    -4.7983820000    -0.9968280000
    8      C      -0.9829010000    -5.1535420000     0.8657400000
    9      C      -0.5647130000    -3.8696260000     0.4744080000
   10      C       0.5321960000    -3.6889270000    -0.4420460000
   11      O      -1.9763320000    -5.4810750000     1.7381370000
   12      O       2.2287090000    -4.4798710000    -1.8740520000
   13      C       3.3402980000    -5.3560260000    -2.0160620000
   14      H       4.1108070000    -4.7904960000    -2.5738770000
   15      H       3.0859980000    -6.2685130000    -2.5984840000
   16      H       3.7516790000    -5.6581870000    -1.0286950000
   17      C      -3.0075650000    -4.5469990000     2.0331950000
   18      H      -3.7786550000    -5.1075640000     2.5948330000
   19      H      -3.4616500000    -4.1314730000     1.1080670000
   20      H      -2.6452640000    -3.7120850000     2.6714510000
   21      C       0.8228140000    -2.3143260000    -0.6910200000
   22      S      -1.1780370000    -2.2954870000     1.0056490000
   23      C       0.0000000000    -1.4351800000     0.0000000000
   24      H       1.6236560000    -1.9932110000    -1.3688750000
   25      C       0.0000000000     0.0000000000     0.0000000000
   26      S       0.3097210000     0.8444220000     1.5107320000
   27      C       0.8475020000     2.3251080000     0.7276290000
   28      C       0.3106020000     0.8534600000    -1.0646650000
   29      C       0.7841730000     2.1590140000    -0.6782870000
   30      C       0.2894510000     0.7905120000    -2.4861500000
   31      C       0.7219270000     1.9791120000    -3.1069160000
   32      S       1.1454640000     3.1525190000    -1.9657350000
   33      C       0.8133550000     2.2166420000    -4.5599720000
   34      O       0.4968840000     1.3384180000    -5.3502770000
   35      O       1.2552740000     3.4213400000    -5.0043750000
   36      F      -0.0879230000    -0.2577610000    -3.2462900000
   37      C       1.3874940000     3.7549370000    -6.3349760000
   38      H       1.7659780000     4.7930560000    -6.3702680000
   39      H       0.4170950000     3.6937890000    -6.8756090000
   40      H       2.0988200000     3.0810330000    -6.8618780000
   41      H       1.1622290000     3.1896230000     1.3215100000
   42      H      -0.3499390000    -9.1464710000    -0.8179320000
   43      H       0.8152470000    -9.1505700000     0.5489390000
   44      H      -0.7006470000    -1.4441580000    -0.8218350000
 ----------------------------------------------------------------

   11   -2755.3215090059      7.38e-07  Convergence criterion met
 Total energy in the final basis set =    -2755.3215090059
        RIMP2         total energy =     -2760.4155051774 a.u.

                    Orbital Energies (a.u.)
 --------------------------------------------------------------

 Alpha MOs
 -- Occupied --
-92.0135 -91.9965 -91.9797 -91.9583 -26.3385 -20.6130 -20.5876 -20.5870
-20.5512 -11.4115 -11.3796 -11.3144 -11.3093 -11.3084 -11.2992 -11.2984
-11.2944 -11.2890 -11.2849 -11.2845 -11.2838 -11.2825 -11.2825 -11.2735
-11.2732 -11.2588 -11.2585 -11.2498 -11.2377  -9.0122  -9.0005  -8.9818
 -8.9609  -6.6929  -6.6923  -6.6919  -6.6818  -6.6811  -6.6798  -6.6629
 -6.6621  -6.6608  -6.6422  -6.6412  -6.6402  -1.6515  -1.4727  -1.4110
 -1.4089  -1.3682  -1.2396  -1.2095  -1.1757  -1.1438  -1.1003  -1.0520
 -1.0466  -1.0295  -1.0093  -0.9986  -0.9726  -0.9599  -0.9491  -0.9412
 -0.8942  -0.8743  -0.8624  -0.8082  -0.7950  -0.7860  -0.7787  -0.7726
 -0.7621  -0.7339  -0.7204  -0.7188  -0.6982  -0.6932  -0.6866  -0.6794
 -0.6756  -0.6731  -0.6561  -0.6487  -0.6360  -0.6277  -0.6202  -0.6149
 -0.6112  -0.6072  -0.5961  -0.5940  -0.5820  -0.5680  -0.5587  -0.5540
 -0.5459  -0.5348  -0.5300  -0.5230  -0.5129  -0.5078  -0.5046  -0.5022
 -0.4867  -0.4848  -0.4760  -0.4704  -0.4623  -0.4619  -0.4612  -0.4466
 -0.4264  -0.4013  -0.3860  -0.3705  -0.3508  -0.2937  -0.2879  -0.2193

          Ground-State Mulliken Net Atomic Charges

     Atom                 Charge (a.u.)
  ----------------------------------------
      1 C                    -0.070414
      2 C                    -0.257647
      3 S                    -0.134300
      4 C                    -0.047452
      5 H                     0.193664
      6 C                    -0.052490
      7 C                     0.221197
      8 C                     0.233350
      9 C                    -0.079786
     10 C                    -0.035150
     11 O                    -0.334671
     12 O                    -0.342817
     13 C                    -0.082747
     14 H                     0.120291
     15 H                     0.092295
     16 H                     0.092456
     17 C                    -0.086937
     18 H                     0.123843
     19 H                     0.092963
     20 H                     0.089949
     21 C                    -0.295306
     22 S                    -0.076864
     23 C                     0.091574
     24 H                     0.207960
     25 C                    -0.072282
     26 S                     0.104533
     27 C                    -0.237212
     28 C                    -0.113448
     29 C                    -0.005874
     30 C                     0.388877
     31 C                    -0.143876
     32 S                     0.041713
     33 C                     0.461247
     34 O                    -0.449666
     35 O                    -0.297851
     36 F                    -0.215159
     37 C                    -0.054951
     38 H                     0.116814
     39 H                     0.084814
     40 H                     0.084640
     41 H                     0.214381
     42 H                     0.117800
     43 H                     0.115238
     44 H                     0.197300
  ----------------------------------------
  Sum of atomic charges =     0.000000

                    Cartesian Multipole Moments
 -----------------------------------------------------------------
    Charge (ESU x 10^10)
                 0.0000
    Dipole Moment (Debye)
         X       0.7256      Y       3.1124      Z       2.7708
       Tot       4.2298
    Quadrupole Moments (Debye-Ang)
        XX    -183.3583     XY       8.2244     YY    -174.4723
        XZ     -10.2517     YZ     -12.8761     ZZ    -203.8596

 Total job time:  323.31s(wall), 10468.60s(cpu)
        *  Thank you very much for using Q-Chem.  Have a nice day.  *
