 Q-Chem 5.4, Q-Chem, Inc., Pleasanton, CA (2021)
 Q-Chem 5.4.0 for Intel X86 EM64T Linux

User input:
--------------------------------------------------------------
$molecule
0 1
C	0.047927	-8.519741	-0.267851
C	0.056157	-7.635967	0.801461
S	0.029285	-7.651740	-1.822194
C	0.054516	-6.261894	0.415201
H	0.063290	-7.954738	1.851431
C	0.054687	-6.079985	-1.012650
C	0.028030	-4.798382	-1.584194
C	0.031399	-5.153542	1.309433
C	0.000427	-3.869626	0.737539
C	0.003462	-3.688927	-0.691828
O	0.061128	-5.481075	2.631211
O	-0.003021	-4.479871	-2.911907
C	0.602710	-5.356026	-3.854716
H	0.670671	-4.790496	-4.803517
H	-0.006913	-6.268513	-4.034285
H	1.623507	-5.658187	-3.535185
C	-0.375708	-4.546999	3.610841
H	-0.441115	-5.107564	4.562544
H	-1.376277	-4.131473	3.364029
H	0.346107	-3.712085	3.743566
C	-0.000458	-2.314326	-1.074491
S	0.013144	-2.295487	1.548848
C	0.000000	-1.435180	0.000000
H	-0.004953	-1.993211	-2.123688
C	0.000000	0.000000	0.000000
S	0.234946	0.868203	1.510732
C	0.641630	2.390125	0.727629
C	0.235036	0.877284	-1.064665
C	0.593019	2.219143	-0.678287
C	0.219452	0.812732	-2.486150
C	0.546689	2.034501	-3.106916
S	0.866345	3.240357	-1.965735
C	0.617067	2.279095	-4.559972
O	0.378342	1.376631	-5.350277
O	0.952308	3.517725	-5.004375
F	-0.065123	-0.264443	-3.246290
C	1.054950	3.861577	-6.334976
H	1.341516	4.928732	-6.370268
H	0.093573	3.716085	-6.875609
H	1.822303	3.252232	-6.861878
H	0.879812	3.278780	1.321510
H	-0.851509	-9.146471	-0.257688
H	0.944542	-9.150570	-0.271664
H	-1.079930	-1.444158	0.008462
$end

$rem
JOBTYPE		SP
EXCHANGE	HF
CORRELATION	pRIMP2
BASIS		cc-pvtz
METHOD		rimp2
AUX_BASIS	rimp2-cc-pvtz
SOLVENT_METHOD	PCM
PURECART	11111
SYMMETRY	false
MEM_TOTAL	110000
SCF_CONVERGENCE = 6
THRESH=10
GUI = 2
$end

$solvent
dielectric 4.90
$end
--------------------------------------------------------------

             Standard Nuclear Orientation (Angstroms)
    I     Atom           X                Y                Z
 ----------------------------------------------------------------
    1      C       0.0479270000    -8.5197410000    -0.2678510000
    2      C       0.0561570000    -7.6359670000     0.8014610000
    3      S       0.0292850000    -7.6517400000    -1.8221940000
    4      C       0.0545160000    -6.2618940000     0.4152010000
    5      H       0.0632900000    -7.9547380000     1.8514310000
    6      C       0.0546870000    -6.0799850000    -1.0126500000
    7      C       0.0280300000    -4.7983820000    -1.5841940000
    8      C       0.0313990000    -5.1535420000     1.3094330000
    9      C       0.0004270000    -3.8696260000     0.7375390000
   10      C       0.0034620000    -3.6889270000    -0.6918280000
   11      O       0.0611280000    -5.4810750000     2.6312110000
   12      O      -0.0030210000    -4.4798710000    -2.9119070000
   13      C       0.6027100000    -5.3560260000    -3.8547160000
   14      H       0.6706710000    -4.7904960000    -4.8035170000
   15      H      -0.0069130000    -6.2685130000    -4.0342850000
   16      H       1.6235070000    -5.6581870000    -3.5351850000
   17      C      -0.3757080000    -4.5469990000     3.6108410000
   18      H      -0.4411150000    -5.1075640000     4.5625440000
   19      H      -1.3762770000    -4.1314730000     3.3640290000
   20      H       0.3461070000    -3.7120850000     3.7435660000
   21      C      -0.0004580000    -2.3143260000    -1.0744910000
   22      S       0.0131440000    -2.2954870000     1.5488480000
   23      C       0.0000000000    -1.4351800000     0.0000000000
   24      H      -0.0049530000    -1.9932110000    -2.1236880000
   25      C       0.0000000000     0.0000000000     0.0000000000
   26      S       0.2349460000     0.8682030000     1.5107320000
   27      C       0.6416300000     2.3901250000     0.7276290000
   28      C       0.2350360000     0.8772840000    -1.0646650000
   29      C       0.5930190000     2.2191430000    -0.6782870000
   30      C       0.2194520000     0.8127320000    -2.4861500000
   31      C       0.5466890000     2.0345010000    -3.1069160000
   32      S       0.8663450000     3.2403570000    -1.9657350000
   33      C       0.6170670000     2.2790950000    -4.5599720000
   34      O       0.3783420000     1.3766310000    -5.3502770000
   35      O       0.9523080000     3.5177250000    -5.0043750000
   36      F      -0.0651230000    -0.2644430000    -3.2462900000
   37      C       1.0549500000     3.8615770000    -6.3349760000
   38      H       1.3415160000     4.9287320000    -6.3702680000
   39      H       0.0935730000     3.7160850000    -6.8756090000
   40      H       1.8223030000     3.2522320000    -6.8618780000
   41      H       0.8798120000     3.2787800000     1.3215100000
   42      H      -0.8515090000    -9.1464710000    -0.2576880000
   43      H       0.9445420000    -9.1505700000    -0.2716640000
   44      H      -1.0799300000    -1.4441580000     0.0084620000
 ----------------------------------------------------------------

   11   -2755.3191337085      6.82e-07  Convergence criterion met
 Total energy in the final basis set =    -2755.3191337085
        RIMP2         total energy =     -2760.4121354266 a.u.

                    Orbital Energies (a.u.)
 --------------------------------------------------------------

 Alpha MOs
 -- Occupied --
-92.0149 -91.9926 -91.9838 -91.9599 -26.3402 -20.6109 -20.5902 -20.5871
-20.5476 -11.4084 -11.3800 -11.3245 -11.3127 -11.3100 -11.2969 -11.2925
-11.2880 -11.2866 -11.2866 -11.2858 -11.2836 -11.2823 -11.2765 -11.2752
-11.2699 -11.2611 -11.2603 -11.2517 -11.2421  -9.0135  -8.9968  -8.9860
 -8.9624  -6.6943  -6.6937  -6.6932  -6.6780  -6.6774  -6.6760  -6.6672
 -6.6663  -6.6650  -6.6437  -6.6427  -6.6417  -1.6549  -1.4705  -1.4134
 -1.4091  -1.3655  -1.2382  -1.2110  -1.1779  -1.1436  -1.1011  -1.0504
 -1.0486  -1.0287  -1.0108  -1.0004  -0.9716  -0.9600  -0.9505  -0.9409
 -0.8963  -0.8731  -0.8636  -0.8115  -0.7979  -0.7880  -0.7756  -0.7709
 -0.7636  -0.7342  -0.7232  -0.7215  -0.6991  -0.6954  -0.6848  -0.6778
 -0.6721  -0.6711  -0.6580  -0.6495  -0.6403  -0.6305  -0.6220  -0.6159
 -0.6082  -0.6050  -0.5955  -0.5916  -0.5773  -0.5717  -0.5601  -0.5521
 -0.5474  -0.5367  -0.5330  -0.5228  -0.5150  -0.5098  -0.5069  -0.5017
 -0.4842  -0.4837  -0.4801  -0.4695  -0.4627  -0.4605  -0.4579  -0.4482
 -0.4341  -0.3978  -0.3888  -0.3723  -0.3506  -0.2942  -0.2841  -0.2185

          Ground-State Mulliken Net Atomic Charges

     Atom                 Charge (a.u.)
  ----------------------------------------
      1 C                    -0.070879
      2 C                    -0.246394
      3 S                    -0.131323
      4 C                    -0.051361
      5 H                     0.195250
      6 C                    -0.049824
      7 C                     0.230569
      8 C                     0.236316
      9 C                    -0.077804
     10 C                    -0.034218
     11 O                    -0.333015
     12 O                    -0.343573
     13 C                    -0.083364
     14 H                     0.122066
     15 H                     0.092197
     16 H                     0.092633
     17 C                    -0.089176
     18 H                     0.125478
     19 H                     0.093604
     20 H                     0.090338
     21 C                    -0.330901
     22 S                    -0.095633
     23 C                     0.123055
     24 H                     0.221692
     25 C                    -0.056391
     26 S                     0.082717
     27 C                    -0.268637
     28 C                    -0.082678
     29 C                    -0.010711
     30 C                     0.385405
     31 C                    -0.146043
     32 S                     0.033336
     33 C                     0.459903
     34 O                    -0.455742
     35 O                    -0.298604
     36 F                    -0.217320
     37 C                    -0.055064
     38 H                     0.116440
     39 H                     0.084091
     40 H                     0.084023
     41 H                     0.214951
     42 H                     0.119249
     43 H                     0.117012
     44 H                     0.208332
  ----------------------------------------
  Sum of atomic charges =     0.000000

                    Cartesian Multipole Moments
 -----------------------------------------------------------------
    Charge (ESU x 10^10)
                 0.0000
    Dipole Moment (Debye)
         X       0.0219      Y       1.4393      Z       3.7636
       Tot       4.0295
    Quadrupole Moments (Debye-Ang)
        XX    -198.6702     XY       3.6166     YY    -168.5631
        XZ      -8.3918     YZ     -14.2066     ZZ    -190.7938

 Total job time:  331.22s(wall), 10802.33s(cpu)
        *  Thank you very much for using Q-Chem.  Have a nice day.  *
