 Q-Chem 5.4, Q-Chem, Inc., Pleasanton, CA (2021)
 Q-Chem 5.4.0 for Intel X86 EM64T Linux

User input:
--------------------------------------------------------------
$molecule
0 1
C	0.136647	-8.519741	-0.235306
C	-0.221346	-7.635967	0.772334
S	0.650746	-7.651740	-1.702286
C	-0.090779	-6.261894	0.408807
H	-0.573754	-7.954738	1.761423
C	0.397735	-6.079985	-0.932876
C	0.568166	-4.798382	-1.479069
C	-0.418347	-5.153542	1.241204
C	-0.251852	-3.869626	0.693206
C	0.239872	-3.688927	-0.648921
O	-0.842486	-5.481075	2.493437
O	0.993092	-4.479871	-2.737331
C	1.884752	-5.356026	-3.416110
H	2.273124	-4.790496	-4.284447
H	1.373310	-6.268513	-3.793352
H	2.734702	-5.658187	-2.766716
C	-1.588030	-4.546999	3.264581
H	-1.974995	-5.107564	4.136519
H	-2.443843	-4.131473	2.690439
H	-0.955140	-3.712085	3.636177
C	0.367068	-2.314326	-1.009848
S	-0.517386	-2.295487	1.459936
C	-0.000000	-1.435180	-0.000000
H	0.721689	-1.993211	-1.997308
C	0.000000	0.000000	0.000000
S	0.579852	0.687566	1.510732
C	1.591625	1.895024	0.727629
C	0.583771	0.695758	-1.064665
C	1.475308	1.760606	-0.678287
C	0.542366	0.643841	-2.486150
C	1.355286	1.612843	-3.106916
S	2.154609	2.570627	-1.965735
C	1.522440	1.804778	-4.559972
O	0.924684	1.087757	-5.350277
O	2.349739	2.785679	-5.004375
F	-0.170780	-0.212144	-3.246290
C	2.588082	3.053936	-6.334976
H	3.298799	3.899999	-6.370268
H	1.655291	3.328371	-6.875609
H	3.026021	2.177385	-6.861878
H	2.183053	2.599759	1.321510
H	-0.712022	-9.146471	-0.533380
H	0.980494	-9.150570	0.067771
H	-1.017696	-1.444158	-0.361406
$end

$rem
JOBTYPE		SP
EXCHANGE	HF
CORRELATION	pRIMP2
BASIS		cc-pvtz
METHOD		rimp2
AUX_BASIS	rimp2-cc-pvtz
SOLVENT_METHOD	PCM
PURECART	11111
SYMMETRY	false
MEM_TOTAL	110000
SCF_CONVERGENCE = 6
THRESH=10
GUI = 2
$end

$solvent
dielectric 4.90
$end
--------------------------------------------------------------

             Standard Nuclear Orientation (Angstroms)
    I     Atom           X                Y                Z
 ----------------------------------------------------------------
    1      C       0.1366470000    -8.5197410000    -0.2353060000
    2      C      -0.2213460000    -7.6359670000     0.7723340000
    3      S       0.6507460000    -7.6517400000    -1.7022860000
    4      C      -0.0907790000    -6.2618940000     0.4088070000
    5      H      -0.5737540000    -7.9547380000     1.7614230000
    6      C       0.3977350000    -6.0799850000    -0.9328760000
    7      C       0.5681660000    -4.7983820000    -1.4790690000
    8      C      -0.4183470000    -5.1535420000     1.2412040000
    9      C      -0.2518520000    -3.8696260000     0.6932060000
   10      C       0.2398720000    -3.6889270000    -0.6489210000
   11      O      -0.8424860000    -5.4810750000     2.4934370000
   12      O       0.9930920000    -4.4798710000    -2.7373310000
   13      C       1.8847520000    -5.3560260000    -3.4161100000
   14      H       2.2731240000    -4.7904960000    -4.2844470000
   15      H       1.3733100000    -6.2685130000    -3.7933520000
   16      H       2.7347020000    -5.6581870000    -2.7667160000
   17      C      -1.5880300000    -4.5469990000     3.2645810000
   18      H      -1.9749950000    -5.1075640000     4.1365190000
   19      H      -2.4438430000    -4.1314730000     2.6904390000
   20      H      -0.9551400000    -3.7120850000     3.6361770000
   21      C       0.3670680000    -2.3143260000    -1.0098480000
   22      S      -0.5173860000    -2.2954870000     1.4599360000
   23      C       0.0000000000    -1.4351800000     0.0000000000
   24      H       0.7216890000    -1.9932110000    -1.9973080000
   25      C       0.0000000000     0.0000000000     0.0000000000
   26      S       0.5798520000     0.6875660000     1.5107320000
   27      C       1.5916250000     1.8950240000     0.7276290000
   28      C       0.5837710000     0.6957580000    -1.0646650000
   29      C       1.4753080000     1.7606060000    -0.6782870000
   30      C       0.5423660000     0.6438410000    -2.4861500000
   31      C       1.3552860000     1.6128430000    -3.1069160000
   32      S       2.1546090000     2.5706270000    -1.9657350000
   33      C       1.5224400000     1.8047780000    -4.5599720000
   34      O       0.9246840000     1.0877570000    -5.3502770000
   35      O       2.3497390000     2.7856790000    -5.0043750000
   36      F      -0.1707800000    -0.2121440000    -3.2462900000
   37      C       2.5880820000     3.0539360000    -6.3349760000
   38      H       3.2987990000     3.8999990000    -6.3702680000
   39      H       1.6552910000     3.3283710000    -6.8756090000
   40      H       3.0260210000     2.1773850000    -6.8618780000
   41      H       2.1830530000     2.5997590000     1.3215100000
   42      H      -0.7120220000    -9.1464710000    -0.5333800000
   43      H       0.9804940000    -9.1505700000     0.0677710000
   44      H      -1.0176960000    -1.4441580000    -0.3614060000
 ----------------------------------------------------------------

   11   -2755.2907346408      7.04e-07  Convergence criterion met
 Total energy in the final basis set =    -2755.2907346408
        RIMP2         total energy =     -2760.3960027447 a.u.

                    Orbital Energies (a.u.)
 --------------------------------------------------------------

 Alpha MOs
 -- Occupied --
-92.0133 -91.9985 -91.9804 -91.9578 -26.3392 -20.6133 -20.5879 -20.5866
-20.5517 -11.4119 -11.3788 -11.3092 -11.3088 -11.3057 -11.3006 -11.2998
-11.2987 -11.2892 -11.2852 -11.2845 -11.2843 -11.2820 -11.2797 -11.2734
-11.2721 -11.2583 -11.2574 -11.2495 -11.2370  -9.0123  -9.0023  -8.9826
 -8.9604  -6.6930  -6.6922  -6.6918  -6.6836  -6.6829  -6.6816  -6.6637
 -6.6628  -6.6616  -6.6416  -6.6407  -6.6397  -1.6529  -1.4731  -1.4112
 -1.4085  -1.3686  -1.2418  -1.2092  -1.1757  -1.1448  -1.0994  -1.0529
 -1.0467  -1.0304  -1.0087  -0.9987  -0.9732  -0.9599  -0.9491  -0.9411
 -0.8947  -0.8743  -0.8614  -0.8082  -0.7980  -0.7867  -0.7765  -0.7728
 -0.7617  -0.7345  -0.7235  -0.7186  -0.6979  -0.6935  -0.6848  -0.6797
 -0.6746  -0.6712  -0.6567  -0.6486  -0.6392  -0.6279  -0.6199  -0.6145
 -0.6105  -0.6078  -0.5978  -0.5944  -0.5787  -0.5692  -0.5586  -0.5556
 -0.5420  -0.5345  -0.5304  -0.5233  -0.5132  -0.5090  -0.5069  -0.5014
 -0.4872  -0.4831  -0.4757  -0.4680  -0.4626  -0.4612  -0.4592  -0.4463
 -0.4305  -0.3959  -0.3869  -0.3698  -0.3499  -0.2948  -0.2867  -0.2152

          Ground-State Mulliken Net Atomic Charges

     Atom                 Charge (a.u.)
  ----------------------------------------
      1 C                    -0.070173
      2 C                    -0.260677
      3 S                    -0.136124
      4 C                    -0.047712
      5 H                     0.193286
      6 C                    -0.052547
      7 C                     0.227530
      8 C                     0.233091
      9 C                    -0.073677
     10 C                    -0.044695
     11 O                    -0.334142
     12 O                    -0.343414
     13 C                    -0.083071
     14 H                     0.121003
     15 H                     0.092297
     16 H                     0.092467
     17 C                    -0.087976
     18 H                     0.124632
     19 H                     0.093033
     20 H                     0.089707
     21 C                    -0.292298
     22 S                    -0.101036
     23 C                     0.098076
     24 H                     0.204796
     25 C                    -0.065561
     26 S                     0.109265
     27 C                    -0.229048
     28 C                    -0.093820
     29 C                    -0.011968
     30 C                     0.348187
     31 C                    -0.138556
     32 S                     0.054006
     33 C                     0.460176
     34 O                    -0.449129
     35 O                    -0.298007
     36 F                    -0.214848
     37 C                    -0.054703
     38 H                     0.116926
     39 H                     0.084849
     40 H                     0.084614
     41 H                     0.215837
     42 H                     0.117376
     43 H                     0.114976
     44 H                     0.207052
  ----------------------------------------
  Sum of atomic charges =     0.000000

                    Cartesian Multipole Moments
 -----------------------------------------------------------------
    Charge (ESU x 10^10)
                 0.0000
    Dipole Moment (Debye)
         X       1.8715      Y       2.8601      Z       3.1042
       Tot       4.6172
    Quadrupole Moments (Debye-Ang)
        XX    -187.2218     XY       9.7062     YY    -180.2125
        XZ     -16.4394     YZ     -12.2972     ZZ    -194.5088

 Total job time:  336.60s(wall), 10903.23s(cpu)
        *  Thank you very much for using Q-Chem.  Have a nice day.  *
