 Q-Chem 5.4, Q-Chem, Inc., Pleasanton, CA (2021)
 Q-Chem 5.4.0 for Intel X86 EM64T Linux

User input:
--------------------------------------------------------------
$molecule
0 1
C	0.268090	-8.519741	-0.046574
C	-0.733920	-7.635967	0.326886
S	1.722318	-7.651740	-0.595708
C	-0.371516	-6.261894	0.193236
H	-1.718130	-7.954738	0.692700
C	0.970283	-6.079985	-0.294958
C	1.498243	-4.798382	-0.515487
C	-1.219725	-5.153542	0.477358
C	-0.692914	-3.869626	0.252655
C	0.651289	-3.688927	-0.233366
O	-2.451623	-5.481075	0.957369
O	2.735264	-4.479871	-0.998769
C	3.828387	-5.356026	-0.752029
H	4.743213	-4.790496	-1.012675
H	3.788623	-6.268513	-1.386303
H	3.877260	-5.658187	0.316492
C	-3.521580	-4.546999	0.881930
H	-4.438260	-5.107564	1.145969
H	-3.631868	-4.131473	-0.142712
H	-3.399425	-3.712085	1.605610
C	1.009535	-2.314326	-0.367928
S	-1.450945	-2.295487	0.542088
C	0.000000	-1.435180	0.000000
H	1.993920	-1.993211	-0.730999
C	0.000000	0.000000	0.000000
S	0.309721	0.844422	1.510732
C	0.847502	2.325108	0.727629
C	0.310602	0.853460	-1.064665
C	0.784173	2.159014	-0.678287
C	0.289451	0.790512	-2.486150
C	0.721927	1.979112	-3.106916
S	1.145464	3.152519	-1.965735
C	0.813355	2.216642	-4.559972
O	0.496884	1.338418	-5.350277
O	1.255274	3.421340	-5.004375
F	-0.087923	-0.257761	-3.246290
C	1.387494	3.754937	-6.334976
H	1.765978	4.793056	-6.370268
H	0.417095	3.693789	-6.875609
H	2.098820	3.081033	-6.861878
H	1.162229	3.189623	1.321510
H	-0.049086	-9.146471	-0.888291
H	0.578334	-9.150570	0.794665
H	-0.377309	-1.444158	-1.011908
$end

$rem
JOBTYPE		SP
EXCHANGE	HF
CORRELATION	pRIMP2
BASIS		cc-pvtz
METHOD		rimp2
AUX_BASIS	rimp2-cc-pvtz
SOLVENT_METHOD	PCM
PURECART	11111
SYMMETRY	false
MEM_TOTAL	110000
SCF_CONVERGENCE = 6
THRESH=10
GUI = 2
$end

$solvent
dielectric 4.90
$end
--------------------------------------------------------------

             Standard Nuclear Orientation (Angstroms)
    I     Atom           X                Y                Z
 ----------------------------------------------------------------
    1      C       0.2680900000    -8.5197410000    -0.0465740000
    2      C      -0.7339200000    -7.6359670000     0.3268860000
    3      S       1.7223180000    -7.6517400000    -0.5957080000
    4      C      -0.3715160000    -6.2618940000     0.1932360000
    5      H      -1.7181300000    -7.9547380000     0.6927000000
    6      C       0.9702830000    -6.0799850000    -0.2949580000
    7      C       1.4982430000    -4.7983820000    -0.5154870000
    8      C      -1.2197250000    -5.1535420000     0.4773580000
    9      C      -0.6929140000    -3.8696260000     0.2526550000
   10      C       0.6512890000    -3.6889270000    -0.2333660000
   11      O      -2.4516230000    -5.4810750000     0.9573690000
   12      O       2.7352640000    -4.4798710000    -0.9987690000
   13      C       3.8283870000    -5.3560260000    -0.7520290000
   14      H       4.7432130000    -4.7904960000    -1.0126750000
   15      H       3.7886230000    -6.2685130000    -1.3863030000
   16      H       3.8772600000    -5.6581870000     0.3164920000
   17      C      -3.5215800000    -4.5469990000     0.8819300000
   18      H      -4.4382600000    -5.1075640000     1.1459690000
   19      H      -3.6318680000    -4.1314730000    -0.1427120000
   20      H      -3.3994250000    -3.7120850000     1.6056100000
   21      C       1.0095350000    -2.3143260000    -0.3679280000
   22      S      -1.4509450000    -2.2954870000     0.5420880000
   23      C       0.0000000000    -1.4351800000     0.0000000000
   24      H       1.9939200000    -1.9932110000    -0.7309990000
   25      C       0.0000000000     0.0000000000     0.0000000000
   26      S       0.3097210000     0.8444220000     1.5107320000
   27      C       0.8475020000     2.3251080000     0.7276290000
   28      C       0.3106020000     0.8534600000    -1.0646650000
   29      C       0.7841730000     2.1590140000    -0.6782870000
   30      C       0.2894510000     0.7905120000    -2.4861500000
   31      C       0.7219270000     1.9791120000    -3.1069160000
   32      S       1.1454640000     3.1525190000    -1.9657350000
   33      C       0.8133550000     2.2166420000    -4.5599720000
   34      O       0.4968840000     1.3384180000    -5.3502770000
   35      O       1.2552740000     3.4213400000    -5.0043750000
   36      F      -0.0879230000    -0.2577610000    -3.2462900000
   37      C       1.3874940000     3.7549370000    -6.3349760000
   38      H       1.7659780000     4.7930560000    -6.3702680000
   39      H       0.4170950000     3.6937890000    -6.8756090000
   40      H       2.0988200000     3.0810330000    -6.8618780000
   41      H       1.1622290000     3.1896230000     1.3215100000
   42      H      -0.0490860000    -9.1464710000    -0.8882910000
   43      H       0.5783340000    -9.1505700000     0.7946650000
   44      H      -0.3773090000    -1.4441580000    -1.0119080000
 ----------------------------------------------------------------

   11   -2755.3224970957      6.98e-07  Convergence criterion met
 Total energy in the final basis set =    -2755.3224970957
        RIMP2         total energy =     -2760.4160717360 a.u.

                    Orbital Energies (a.u.)
 --------------------------------------------------------------

 Alpha MOs
 -- Occupied --
-92.0127 -91.9978 -91.9769 -91.9580 -26.3388 -20.6138 -20.5869 -20.5866
-20.5526 -11.4127 -11.3796 -11.3100 -11.3089 -11.3068 -11.3019 -11.2993
-11.2980 -11.2894 -11.2875 -11.2841 -11.2826 -11.2825 -11.2802 -11.2727
-11.2727 -11.2579 -11.2578 -11.2494 -11.2366  -9.0114  -9.0017  -8.9791
 -8.9606  -6.6921  -6.6915  -6.6911  -6.6830  -6.6823  -6.6810  -6.6603
 -6.6594  -6.6581  -6.6418  -6.6409  -6.6398  -1.6519  -1.4736  -1.4101
 -1.4087  -1.3692  -1.2400  -1.2083  -1.1749  -1.1439  -1.0998  -1.0526
 -1.0457  -1.0300  -1.0087  -0.9975  -0.9731  -0.9595  -0.9486  -0.9412
 -0.8931  -0.8748  -0.8623  -0.8087  -0.7947  -0.7850  -0.7805  -0.7719
 -0.7620  -0.7337  -0.7203  -0.7192  -0.6978  -0.6926  -0.6872  -0.6801
 -0.6761  -0.6740  -0.6553  -0.6483  -0.6335  -0.6273  -0.6198  -0.6147
 -0.6110  -0.6081  -0.5973  -0.5937  -0.5830  -0.5665  -0.5577  -0.5540
 -0.5474  -0.5333  -0.5292  -0.5226  -0.5126  -0.5073  -0.5034  -0.5017
 -0.4876  -0.4851  -0.4753  -0.4697  -0.4632  -0.4627  -0.4603  -0.4459
 -0.4223  -0.4040  -0.3850  -0.3699  -0.3504  -0.2940  -0.2888  -0.2202

          Ground-State Mulliken Net Atomic Charges

     Atom                 Charge (a.u.)
  ----------------------------------------
      1 C                    -0.070264
      2 C                    -0.260287
      3 S                    -0.135323
      4 C                    -0.045648
      5 H                     0.193286
      6 C                    -0.052608
      7 C                     0.222137
      8 C                     0.231229
      9 C                    -0.084745
     10 C                    -0.041600
     11 O                    -0.335322
     12 O                    -0.343174
     13 C                    -0.082537
     14 H                     0.119928
     15 H                     0.092169
     16 H                     0.092512
     17 C                    -0.086393
     18 H                     0.123033
     19 H                     0.092716
     20 H                     0.089947
     21 C                    -0.265977
     22 S                    -0.070878
     23 C                     0.061988
     24 H                     0.207531
     25 C                    -0.071207
     26 S                     0.100301
     27 C                    -0.224522
     28 C                    -0.114509
     29 C                    -0.004087
     30 C                     0.384433
     31 C                    -0.135998
     32 S                     0.045332
     33 C                     0.459716
     34 O                    -0.447280
     35 O                    -0.297406
     36 F                    -0.214593
     37 C                    -0.054961
     38 H                     0.117003
     39 H                     0.085045
     40 H                     0.084905
     41 H                     0.215467
     42 H                     0.117372
     43 H                     0.114859
     44 H                     0.188411
  ----------------------------------------
  Sum of atomic charges =     0.000000

                    Cartesian Multipole Moments
 -----------------------------------------------------------------
    Charge (ESU x 10^10)
                -0.0000
    Dipole Moment (Debye)
         X       1.0537      Y       3.7315      Z       2.4857
       Tot       4.6058
    Quadrupole Moments (Debye-Ang)
        XX    -181.0336     XY       8.8911     YY    -175.8275
        XZ      -4.3528     YZ     -12.0023     ZZ    -205.5703

 Total job time:  325.27s(wall), 10544.93s(cpu)
        *  Thank you very much for using Q-Chem.  Have a nice day.  *
