 Q-Chem 5.4, Q-Chem, Inc., Pleasanton, CA (2021)
 Q-Chem 5.4.0 for Intel X86 EM64T Linux

User input:
--------------------------------------------------------------
$molecule
0 1
C	0.235306	-8.519741	0.136647
C	-0.772334	-7.635967	-0.221346
S	1.702286	-7.651740	0.650746
C	-0.408807	-6.261894	-0.090779
H	-1.761423	-7.954738	-0.573754
C	0.932876	-6.079985	0.397735
C	1.479069	-4.798382	0.568166
C	-1.241204	-5.153542	-0.418347
C	-0.693206	-3.869626	-0.251852
C	0.648921	-3.688927	0.239872
O	-2.493437	-5.481075	-0.842486
O	2.737331	-4.479871	0.993092
C	3.416110	-5.356026	1.884752
H	4.284447	-4.790496	2.273124
H	3.793352	-6.268513	1.373310
H	2.766716	-5.658187	2.734702
C	-3.264581	-4.546999	-1.588030
H	-4.136519	-5.107564	-1.974995
H	-2.690439	-4.131473	-2.443843
H	-3.636177	-3.712085	-0.955140
C	1.009848	-2.314326	0.367068
S	-1.459936	-2.295487	-0.517386
C	0.000000	-1.435180	0.000000
H	1.997308	-1.993211	0.721689
C	0.000000	0.000000	0.000000
S	0.002233	0.899428	1.510732
C	0.001157	2.474749	0.727629
C	-0.000030	0.908223	-1.064665
C	-0.001545	2.297013	-0.678287
C	0.001624	0.841837	-2.486150
C	0.001494	2.106670	-3.106916
S	-0.001841	3.354171	-1.965735
C	0.006168	2.361146	-4.559972
O	0.009152	1.427646	-5.350277
O	0.009405	3.644337	-5.004375
F	0.005539	-0.272288	-3.246290
C	0.019554	4.003038	-6.334976
H	0.020155	5.108000	-6.370268
H	-0.871409	3.613681	-6.875609
H	0.918470	3.613062	-6.861878
H	0.001222	3.394771	1.321510
H	0.533380	-9.146471	-0.712022
H	-0.067771	-9.150570	0.980494
H	0.361406	-1.444158	-1.017696
$end

$rem
JOBTYPE		SP
EXCHANGE	HF
CORRELATION	pRIMP2
BASIS		cc-pvtz
METHOD		rimp2
AUX_BASIS	rimp2-cc-pvtz
SOLVENT_METHOD	PCM
PURECART	11111
SYMMETRY	false
MEM_TOTAL	110000
SCF_CONVERGENCE = 6
THRESH=10
GUI = 2
$end

$solvent
dielectric 4.90
$end
--------------------------------------------------------------

             Standard Nuclear Orientation (Angstroms)
    I     Atom           X                Y                Z
 ----------------------------------------------------------------
    1      C       0.2353060000    -8.5197410000     0.1366470000
    2      C      -0.7723340000    -7.6359670000    -0.2213460000
    3      S       1.7022860000    -7.6517400000     0.6507460000
    4      C      -0.4088070000    -6.2618940000    -0.0907790000
    5      H      -1.7614230000    -7.9547380000    -0.5737540000
    6      C       0.9328760000    -6.0799850000     0.3977350000
    7      C       1.4790690000    -4.7983820000     0.5681660000
    8      C      -1.2412040000    -5.1535420000    -0.4183470000
    9      C      -0.6932060000    -3.8696260000    -0.2518520000
   10      C       0.6489210000    -3.6889270000     0.2398720000
   11      O      -2.4934370000    -5.4810750000    -0.8424860000
   12      O       2.7373310000    -4.4798710000     0.9930920000
   13      C       3.4161100000    -5.3560260000     1.8847520000
   14      H       4.2844470000    -4.7904960000     2.2731240000
   15      H       3.7933520000    -6.2685130000     1.3733100000
   16      H       2.7667160000    -5.6581870000     2.7347020000
   17      C      -3.2645810000    -4.5469990000    -1.5880300000
   18      H      -4.1365190000    -5.1075640000    -1.9749950000
   19      H      -2.6904390000    -4.1314730000    -2.4438430000
   20      H      -3.6361770000    -3.7120850000    -0.9551400000
   21      C       1.0098480000    -2.3143260000     0.3670680000
   22      S      -1.4599360000    -2.2954870000    -0.5173860000
   23      C       0.0000000000    -1.4351800000     0.0000000000
   24      H       1.9973080000    -1.9932110000     0.7216890000
   25      C       0.0000000000     0.0000000000     0.0000000000
   26      S       0.0022330000     0.8994280000     1.5107320000
   27      C       0.0011570000     2.4747490000     0.7276290000
   28      C      -0.0000300000     0.9082230000    -1.0646650000
   29      C      -0.0015450000     2.2970130000    -0.6782870000
   30      C       0.0016240000     0.8418370000    -2.4861500000
   31      C       0.0014940000     2.1066700000    -3.1069160000
   32      S      -0.0018410000     3.3541710000    -1.9657350000
   33      C       0.0061680000     2.3611460000    -4.5599720000
   34      O       0.0091520000     1.4276460000    -5.3502770000
   35      O       0.0094050000     3.6443370000    -5.0043750000
   36      F       0.0055390000    -0.2722880000    -3.2462900000
   37      C       0.0195540000     4.0030380000    -6.3349760000
   38      H       0.0201550000     5.1080000000    -6.3702680000
   39      H      -0.8714090000     3.6136810000    -6.8756090000
   40      H       0.9184700000     3.6130620000    -6.8618780000
   41      H       0.0012220000     3.3947710000     1.3215100000
   42      H       0.5333800000    -9.1464710000    -0.7120220000
   43      H      -0.0677710000    -9.1505700000     0.9804940000
   44      H       0.3614060000    -1.4441580000    -1.0176960000
 ----------------------------------------------------------------

   11   -2755.3294843940      7.15e-07  Convergence criterion met
 Total energy in the final basis set =    -2755.3294843940
        RIMP2         total energy =     -2760.4205915480 a.u.

                    Orbital Energies (a.u.)
 --------------------------------------------------------------

 Alpha MOs
 -- Occupied --
-92.0135 -91.9964 -91.9775 -91.9584 -26.3385 -20.6133 -20.5873 -20.5867
-20.5517 -11.4119 -11.3795 -11.3147 -11.3091 -11.3074 -11.2999 -11.2977
-11.2947 -11.2892 -11.2853 -11.2839 -11.2830 -11.2829 -11.2812 -11.2734
-11.2725 -11.2585 -11.2583 -11.2498 -11.2375  -9.0120  -9.0004  -8.9797
 -8.9610  -6.6928  -6.6922  -6.6918  -6.6817  -6.6810  -6.6796  -6.6608
 -6.6599  -6.6586  -6.6423  -6.6413  -6.6403  -1.6516  -1.4730  -1.4103
 -1.4090  -1.3685  -1.2390  -1.2087  -1.1753  -1.1434  -1.1002  -1.0519
 -1.0459  -1.0296  -1.0090  -0.9979  -0.9727  -0.9597  -0.9487  -0.9410
 -0.8933  -0.8744  -0.8630  -0.8105  -0.7931  -0.7854  -0.7811  -0.7689
 -0.7630  -0.7338  -0.7196  -0.7193  -0.6977  -0.6924  -0.6874  -0.6796
 -0.6762  -0.6734  -0.6554  -0.6485  -0.6311  -0.6298  -0.6202  -0.6150
 -0.6109  -0.6074  -0.5961  -0.5932  -0.5835  -0.5650  -0.5582  -0.5562
 -0.5498  -0.5327  -0.5284  -0.5216  -0.5132  -0.5076  -0.5035  -0.5008
 -0.4881  -0.4852  -0.4785  -0.4692  -0.4628  -0.4623  -0.4605  -0.4461
 -0.4244  -0.4030  -0.3857  -0.3702  -0.3502  -0.2925  -0.2887  -0.2207

          Ground-State Mulliken Net Atomic Charges

     Atom                 Charge (a.u.)
  ----------------------------------------
      1 C                    -0.070347
      2 C                    -0.257142
      3 S                    -0.134674
      4 C                    -0.044932
      5 H                     0.193750
      6 C                    -0.051235
      7 C                     0.226066
      8 C                     0.228894
      9 C                    -0.080900
     10 C                    -0.059141
     11 O                    -0.335168
     12 O                    -0.343658
     13 C                    -0.082575
     14 H                     0.119937
     15 H                     0.092071
     16 H                     0.092673
     17 C                    -0.086961
     18 H                     0.122892
     19 H                     0.093856
     20 H                     0.089796
     21 C                    -0.241997
     22 S                    -0.069177
     23 C                     0.063141
     24 H                     0.206606
     25 C                    -0.091482
     26 S                     0.098644
     27 C                    -0.235317
     28 C                    -0.089422
     29 C                    -0.006989
     30 C                     0.380451
     31 C                    -0.134197
     32 S                     0.040024
     33 C                     0.459654
     34 O                    -0.449118
     35 O                    -0.297488
     36 F                    -0.214550
     37 C                    -0.055106
     38 H                     0.116932
     39 H                     0.084825
     40 H                     0.084729
     41 H                     0.214924
     42 H                     0.117773
     43 H                     0.115207
     44 H                     0.188731
  ----------------------------------------
  Sum of atomic charges =     0.000000

                    Cartesian Multipole Moments
 -----------------------------------------------------------------
    Charge (ESU x 10^10)
                -0.0000
    Dipole Moment (Debye)
         X       0.0600      Y       3.4791      Z       2.5066
       Tot       4.2884
    Quadrupole Moments (Debye-Ang)
        XX    -190.2849     XY       3.6547     YY    -173.0074
        XZ       9.1100     YZ      -9.8894     ZZ    -198.7222

 Total job time:  335.99s(wall), 10698.81s(cpu)
        *  Thank you very much for using Q-Chem.  Have a nice day.  *
