 Q-Chem 5.4, Q-Chem, Inc., Pleasanton, CA (2021)
 Q-Chem 5.4.0 for Intel X86 EM64T Linux

User input:
--------------------------------------------------------------
$molecule
0 1
C	-0.046574	-8.519741	-0.268090
C	0.326886	-7.635967	0.733920
S	-0.595708	-7.651740	-1.722318
C	0.193236	-6.261894	0.371516
H	0.692700	-7.954738	1.718130
C	-0.294958	-6.079985	-0.970283
C	-0.515487	-4.798382	-1.498243
C	0.477358	-5.153542	1.219725
C	0.252655	-3.869626	0.692914
C	-0.233366	-3.688927	-0.651289
O	0.957369	-5.481075	2.451623
O	-0.998769	-4.479871	-2.735264
C	-0.752029	-5.356026	-3.828387
H	-1.012675	-4.790496	-4.743213
H	-1.386303	-6.268513	-3.788623
H	0.316492	-5.658187	-3.877260
C	0.881930	-4.546999	3.521580
H	1.145969	-5.107564	4.438260
H	-0.142712	-4.131473	3.631868
H	1.605610	-3.712085	3.399425
C	-0.367928	-2.314326	-1.009535
S	0.542088	-2.295487	1.450945
C	0.000000	-1.435180	0.000000
H	-0.730999	-1.993211	-1.993920
C	0.000000	0.000000	0.000000
S	0.080615	0.895811	1.510732
C	0.216842	2.465231	0.727629
C	0.079127	0.904769	-1.064665
C	0.198659	2.288406	-0.678287
C	0.074988	0.838492	-2.486150
C	0.185097	2.098524	-3.106916
S	0.290501	3.341568	-1.965735
C	0.211932	2.351623	-4.559972
O	0.133545	1.421416	-5.350277
O	0.326994	3.629649	-5.004375
F	-0.018214	-0.271734	-3.246290
C	0.368367	3.986101	-6.334976
H	0.465270	5.086806	-6.370268
H	-0.553140	3.675878	-6.875609
H	1.229874	3.519263	-6.861878
H	0.297091	3.381746	1.321510
H	-0.888291	-9.146471	0.049086
H	0.794665	-9.150570	-0.578334
H	-1.011908	-1.444158	0.377309
$end

$rem
JOBTYPE		SP
EXCHANGE	HF
CORRELATION	pRIMP2
BASIS		cc-pvtz
METHOD		rimp2
AUX_BASIS	rimp2-cc-pvtz
SOLVENT_METHOD	PCM
PURECART	11111
SYMMETRY	false
MEM_TOTAL	110000
SCF_CONVERGENCE = 6
THRESH=10
GUI = 2
$end

$solvent
dielectric 4.90
$end
--------------------------------------------------------------

             Standard Nuclear Orientation (Angstroms)
    I     Atom           X                Y                Z
 ----------------------------------------------------------------
    1      C      -0.0465740000    -8.5197410000    -0.2680900000
    2      C       0.3268860000    -7.6359670000     0.7339200000
    3      S      -0.5957080000    -7.6517400000    -1.7223180000
    4      C       0.1932360000    -6.2618940000     0.3715160000
    5      H       0.6927000000    -7.9547380000     1.7181300000
    6      C      -0.2949580000    -6.0799850000    -0.9702830000
    7      C      -0.5154870000    -4.7983820000    -1.4982430000
    8      C       0.4773580000    -5.1535420000     1.2197250000
    9      C       0.2526550000    -3.8696260000     0.6929140000
   10      C      -0.2333660000    -3.6889270000    -0.6512890000
   11      O       0.9573690000    -5.4810750000     2.4516230000
   12      O      -0.9987690000    -4.4798710000    -2.7352640000
   13      C      -0.7520290000    -5.3560260000    -3.8283870000
   14      H      -1.0126750000    -4.7904960000    -4.7432130000
   15      H      -1.3863030000    -6.2685130000    -3.7886230000
   16      H       0.3164920000    -5.6581870000    -3.8772600000
   17      C       0.8819300000    -4.5469990000     3.5215800000
   18      H       1.1459690000    -5.1075640000     4.4382600000
   19      H      -0.1427120000    -4.1314730000     3.6318680000
   20      H       1.6056100000    -3.7120850000     3.3994250000
   21      C      -0.3679280000    -2.3143260000    -1.0095350000
   22      S       0.5420880000    -2.2954870000     1.4509450000
   23      C       0.0000000000    -1.4351800000     0.0000000000
   24      H      -0.7309990000    -1.9932110000    -1.9939200000
   25      C       0.0000000000     0.0000000000     0.0000000000
   26      S       0.0806150000     0.8958110000     1.5107320000
   27      C       0.2168420000     2.4652310000     0.7276290000
   28      C       0.0791270000     0.9047690000    -1.0646650000
   29      C       0.1986590000     2.2884060000    -0.6782870000
   30      C       0.0749880000     0.8384920000    -2.4861500000
   31      C       0.1850970000     2.0985240000    -3.1069160000
   32      S       0.2905010000     3.3415680000    -1.9657350000
   33      C       0.2119320000     2.3516230000    -4.5599720000
   34      O       0.1335450000     1.4214160000    -5.3502770000
   35      O       0.3269940000     3.6296490000    -5.0043750000
   36      F      -0.0182140000    -0.2717340000    -3.2462900000
   37      C       0.3683670000     3.9861010000    -6.3349760000
   38      H       0.4652700000     5.0868060000    -6.3702680000
   39      H      -0.5531400000     3.6758780000    -6.8756090000
   40      H       1.2298740000     3.5192630000    -6.8618780000
   41      H       0.2970910000     3.3817460000     1.3215100000
   42      H      -0.8882910000    -9.1464710000     0.0490860000
   43      H       0.7946650000    -9.1505700000    -0.5783340000
   44      H      -1.0119080000    -1.4441580000     0.3773090000
 ----------------------------------------------------------------

   11   -2755.3260724136      7.30e-07  Convergence criterion met
 Total energy in the final basis set =    -2755.3260724136
        RIMP2         total energy =     -2760.4160145502 a.u.

                    Orbital Energies (a.u.)
 --------------------------------------------------------------

 Alpha MOs
 -- Occupied --
-92.0148 -91.9922 -91.9837 -91.9598 -26.3387 -20.6111 -20.5899 -20.5872
-20.5478 -11.4086 -11.3797 -11.3251 -11.3122 -11.3100 -11.2966 -11.2927
-11.2880 -11.2871 -11.2865 -11.2857 -11.2843 -11.2822 -11.2767 -11.2751
-11.2712 -11.2613 -11.2602 -11.2515 -11.2416  -9.0135  -8.9963  -8.9859
 -8.9623  -6.6943  -6.6937  -6.6931  -6.6776  -6.6769  -6.6756  -6.6670
 -6.6661  -6.6648  -6.6436  -6.6426  -6.6416  -1.6526  -1.4706  -1.4131
 -1.4091  -1.3657  -1.2380  -1.2112  -1.1777  -1.1437  -1.1011  -1.0500
 -1.0485  -1.0290  -1.0105  -1.0004  -0.9716  -0.9601  -0.9504  -0.9408
 -0.8960  -0.8723  -0.8641  -0.8100  -0.7974  -0.7878  -0.7763  -0.7702
 -0.7648  -0.7334  -0.7231  -0.7195  -0.6989  -0.6945  -0.6843  -0.6778
 -0.6718  -0.6695  -0.6580  -0.6494  -0.6396  -0.6309  -0.6218  -0.6158
 -0.6091  -0.6051  -0.5953  -0.5915  -0.5782  -0.5711  -0.5602  -0.5508
 -0.5501  -0.5366  -0.5335  -0.5226  -0.5152  -0.5094  -0.5064  -0.5012
 -0.4847  -0.4840  -0.4807  -0.4713  -0.4626  -0.4606  -0.4584  -0.4477
 -0.4329  -0.3989  -0.3884  -0.3724  -0.3512  -0.2943  -0.2842  -0.2192

          Ground-State Mulliken Net Atomic Charges

     Atom                 Charge (a.u.)
  ----------------------------------------
      1 C                    -0.070855
      2 C                    -0.247675
      3 S                    -0.131278
      4 C                    -0.048746
      5 H                     0.194960
      6 C                    -0.051163
      7 C                     0.226879
      8 C                     0.233093
      9 C                    -0.075270
     10 C                    -0.050079
     11 O                    -0.333310
     12 O                    -0.342913
     13 C                    -0.082997
     14 H                     0.121775
     15 H                     0.091881
     16 H                     0.092887
     17 C                    -0.088346
     18 H                     0.124914
     19 H                     0.093388
     20 H                     0.090272
     21 C                    -0.285116
     22 S                    -0.087363
     23 C                     0.123927
     24 H                     0.208053
     25 C                    -0.111988
     26 S                     0.072132
     27 C                    -0.259415
     28 C                    -0.046295
     29 C                    -0.021538
     30 C                     0.404637
     31 C                    -0.151337
     32 S                     0.028018
     33 C                     0.461596
     34 O                    -0.455449
     35 O                    -0.298432
     36 F                    -0.216621
     37 C                    -0.055261
     38 H                     0.116440
     39 H                     0.084110
     40 H                     0.084181
     41 H                     0.215191
     42 H                     0.119010
     43 H                     0.116906
     44 H                     0.207198
  ----------------------------------------
  Sum of atomic charges =     0.000000

                    Cartesian Multipole Moments
 -----------------------------------------------------------------
    Charge (ESU x 10^10)
                -0.0000
    Dipole Moment (Debye)
         X      -0.3011      Y       1.6425      Z       3.9252
       Tot       4.2657
    Quadrupole Moments (Debye-Ang)
        XX    -201.4249     XY      -0.2592     YY    -168.4428
        XZ      -0.4186     YZ     -14.1637     ZZ    -188.8455

 Total job time:  332.77s(wall), 10677.67s(cpu)
        *  Thank you very much for using Q-Chem.  Have a nice day.  *
