 Q-Chem 5.4, Q-Chem, Inc., Pleasanton, CA (2021)
 Q-Chem 5.4.0 for Intel X86 EM64T Linux

User input:
--------------------------------------------------------------
$molecule
0 1
C	0.174379	-8.519741	0.208886
C	-0.650052	-7.635967	-0.472151
S	1.377058	-7.651740	1.193717
C	-0.353105	-6.261894	-0.225125
H	-1.458961	-7.954738	-1.141594
C	0.740583	-6.079985	0.692811
C	1.195546	-4.798382	1.039773
C	-1.023267	-5.153542	-0.817634
C	-0.565262	-3.869626	-0.473754
C	0.527745	-3.688927	0.447350
O	-2.054917	-5.481075	-1.644483
O	2.232592	-4.479871	1.869424
C	2.565470	-5.356026	2.939466
H	3.248608	-4.790496	3.601405
H	3.094885	-6.268513	2.587892
H	1.664539	-5.658187	3.516052
C	-2.524564	-4.546999	-2.608813
H	-3.211568	-5.107564	-3.270661
H	-1.692342	-4.131473	-3.216646
H	-3.090211	-3.712085	-2.141184
C	0.823402	-2.314326	0.690319
S	-1.194935	-2.295487	-0.985511
C	-0.000000	-1.435180	-0.000000
H	1.630024	-1.993211	1.361286
C	0.000000	0.000000	0.000000
S	0.158383	0.885376	1.510732
C	0.430876	2.436951	0.727629
C	0.157682	0.894430	-1.064665
C	0.397351	2.262384	-0.678287
C	0.147783	0.828765	-2.486150
C	0.367291	2.074406	-3.106916
S	0.580633	3.303533	-1.965735
C	0.416083	2.324204	-4.559972
O	0.256921	1.404367	-5.350277
O	0.642094	3.587338	-5.004375
F	-0.041828	-0.269113	-3.246290
C	0.714377	3.938827	-6.334976
H	0.906844	5.026898	-6.370268
H	-0.230661	3.710099	-6.875609
H	1.531918	3.398681	-6.861878
H	0.590699	3.342984	1.321510
H	0.744739	-9.146471	-0.486655
H	-0.399033	-9.150570	0.898184
H	0.687683	-1.444158	-0.832713
$end

$rem
JOBTYPE		SP
EXCHANGE	HF
CORRELATION	pRIMP2
BASIS		cc-pvtz
METHOD		rimp2
AUX_BASIS	rimp2-cc-pvtz
SOLVENT_METHOD	PCM
PURECART	11111
SYMMETRY	false
MEM_TOTAL	110000
SCF_CONVERGENCE = 6
THRESH=10
GUI = 2
$end

$solvent
dielectric 4.90
$end
--------------------------------------------------------------

             Standard Nuclear Orientation (Angstroms)
    I     Atom           X                Y                Z
 ----------------------------------------------------------------
    1      C       0.1743790000    -8.5197410000     0.2088860000
    2      C      -0.6500520000    -7.6359670000    -0.4721510000
    3      S       1.3770580000    -7.6517400000     1.1937170000
    4      C      -0.3531050000    -6.2618940000    -0.2251250000
    5      H      -1.4589610000    -7.9547380000    -1.1415940000
    6      C       0.7405830000    -6.0799850000     0.6928110000
    7      C       1.1955460000    -4.7983820000     1.0397730000
    8      C      -1.0232670000    -5.1535420000    -0.8176340000
    9      C      -0.5652620000    -3.8696260000    -0.4737540000
   10      C       0.5277450000    -3.6889270000     0.4473500000
   11      O      -2.0549170000    -5.4810750000    -1.6444830000
   12      O       2.2325920000    -4.4798710000     1.8694240000
   13      C       2.5654700000    -5.3560260000     2.9394660000
   14      H       3.2486080000    -4.7904960000     3.6014050000
   15      H       3.0948850000    -6.2685130000     2.5878920000
   16      H       1.6645390000    -5.6581870000     3.5160520000
   17      C      -2.5245640000    -4.5469990000    -2.6088130000
   18      H      -3.2115680000    -5.1075640000    -3.2706610000
   19      H      -1.6923420000    -4.1314730000    -3.2166460000
   20      H      -3.0902110000    -3.7120850000    -2.1411840000
   21      C       0.8234020000    -2.3143260000     0.6903190000
   22      S      -1.1949350000    -2.2954870000    -0.9855110000
   23      C       0.0000000000    -1.4351800000     0.0000000000
   24      H       1.6300240000    -1.9932110000     1.3612860000
   25      C       0.0000000000     0.0000000000     0.0000000000
   26      S       0.1583830000     0.8853760000     1.5107320000
   27      C       0.4308760000     2.4369510000     0.7276290000
   28      C       0.1576820000     0.8944300000    -1.0646650000
   29      C       0.3973510000     2.2623840000    -0.6782870000
   30      C       0.1477830000     0.8287650000    -2.4861500000
   31      C       0.3672910000     2.0744060000    -3.1069160000
   32      S       0.5806330000     3.3035330000    -1.9657350000
   33      C       0.4160830000     2.3242040000    -4.5599720000
   34      O       0.2569210000     1.4043670000    -5.3502770000
   35      O       0.6420940000     3.5873380000    -5.0043750000
   36      F      -0.0418280000    -0.2691130000    -3.2462900000
   37      C       0.7143770000     3.9388270000    -6.3349760000
   38      H       0.9068440000     5.0268980000    -6.3702680000
   39      H      -0.2306610000     3.7100990000    -6.8756090000
   40      H       1.5319180000     3.3986810000    -6.8618780000
   41      H       0.5906990000     3.3429840000     1.3215100000
   42      H       0.7447390000    -9.1464710000    -0.4866550000
   43      H      -0.3990330000    -9.1505700000     0.8981840000
   44      H       0.6876830000    -1.4441580000    -0.8327130000
 ----------------------------------------------------------------

   11   -2755.3257535060      7.36e-07  Convergence criterion met
 Total energy in the final basis set =    -2755.3257535060
        RIMP2         total energy =     -2760.4179511898 a.u.

                    Orbital Energies (a.u.)
 --------------------------------------------------------------

 Alpha MOs
 -- Occupied --
-92.0153 -91.9951 -91.9768 -91.9591 -26.3364 -20.6123 -20.5877 -20.5869
-20.5500 -11.4104 -11.3789 -11.3190 -11.3094 -11.3078 -11.2977 -11.2968
-11.2901 -11.2887 -11.2838 -11.2833 -11.2833 -11.2832 -11.2814 -11.2743
-11.2728 -11.2599 -11.2587 -11.2504 -11.2385  -9.0136  -8.9992  -8.9792
 -8.9617  -6.6944  -6.6938  -6.6934  -6.6804  -6.6798  -6.6784  -6.6603
 -6.6594  -6.6581  -6.6429  -6.6420  -6.6409  -1.6498  -1.4720  -1.4105
 -1.4093  -1.3673  -1.2388  -1.2092  -1.1761  -1.1434  -1.1003  -1.0514
 -1.0463  -1.0293  -1.0087  -0.9985  -0.9722  -0.9597  -0.9488  -0.9408
 -0.8936  -0.8738  -0.8626  -0.8113  -0.7921  -0.7859  -0.7795  -0.7675
 -0.7627  -0.7337  -0.7190  -0.7179  -0.6979  -0.6930  -0.6867  -0.6788
 -0.6761  -0.6722  -0.6556  -0.6487  -0.6326  -0.6300  -0.6207  -0.6152
 -0.6106  -0.6064  -0.5959  -0.5931  -0.5813  -0.5654  -0.5591  -0.5578
 -0.5509  -0.5319  -0.5281  -0.5210  -0.5135  -0.5081  -0.5040  -0.5003
 -0.4877  -0.4846  -0.4792  -0.4688  -0.4617  -0.4615  -0.4606  -0.4465
 -0.4283  -0.4003  -0.3852  -0.3707  -0.3506  -0.2928  -0.2866  -0.2195

          Ground-State Mulliken Net Atomic Charges

     Atom                 Charge (a.u.)
  ----------------------------------------
      1 C                    -0.070394
      2 C                    -0.254352
      3 S                    -0.133606
      4 C                    -0.046440
      5 H                     0.194291
      6 C                    -0.050711
      7 C                     0.222156
      8 C                     0.232928
      9 C                    -0.084322
     10 C                    -0.055269
     11 O                    -0.335312
     12 O                    -0.343873
     13 C                    -0.082523
     14 H                     0.119983
     15 H                     0.092031
     16 H                     0.092799
     17 C                    -0.087318
     18 H                     0.123125
     19 H                     0.094157
     20 H                     0.089767
     21 C                    -0.255880
     22 S                    -0.065040
     23 C                     0.064271
     24 H                     0.208822
     25 C                    -0.064804
     26 S                     0.097154
     27 C                    -0.248460
     28 C                    -0.097660
     29 C                    -0.004803
     30 C                     0.376881
     31 C                    -0.139901
     32 S                     0.038272
     33 C                     0.459299
     34 O                    -0.451560
     35 O                    -0.297988
     36 F                    -0.211758
     37 C                    -0.055059
     38 H                     0.116656
     39 H                     0.084499
     40 H                     0.084415
     41 H                     0.214273
     42 H                     0.118206
     43 H                     0.115772
     44 H                     0.197279
  ----------------------------------------
  Sum of atomic charges =     0.000000

                    Cartesian Multipole Moments
 -----------------------------------------------------------------
    Charge (ESU x 10^10)
                -0.0000
    Dipole Moment (Debye)
         X       0.8186      Y       2.8126      Z       2.6233
       Tot       3.9322
    Quadrupole Moments (Debye-Ang)
        XX    -196.1147     XY       5.6482     YY    -172.4682
        XZ       6.4192     YZ      -7.9349     ZZ    -192.9856

 Total job time:  329.71s(wall), 10473.12s(cpu)
        *  Thank you very much for using Q-Chem.  Have a nice day.  *
