 Q-Chem 5.4, Q-Chem, Inc., Pleasanton, CA (2021)
 Q-Chem 5.4.0 for Intel X86 EM64T Linux

User input:
--------------------------------------------------------------
$molecule
0 1
C	0.046574	-8.519741	0.268090
C	-0.326886	-7.635967	-0.733920
S	0.595708	-7.651740	1.722318
C	-0.193236	-6.261894	-0.371516
H	-0.692700	-7.954738	-1.718130
C	0.294958	-6.079985	0.970283
C	0.515487	-4.798382	1.498243
C	-0.477358	-5.153542	-1.219725
C	-0.252655	-3.869626	-0.692914
C	0.233366	-3.688927	0.651289
O	-0.957369	-5.481075	-2.451623
O	0.998769	-4.479871	2.735264
C	0.752029	-5.356026	3.828387
H	1.012675	-4.790496	4.743213
H	1.386303	-6.268513	3.788623
H	-0.316492	-5.658187	3.877260
C	-0.881930	-4.546999	-3.521580
H	-1.145969	-5.107564	-4.438260
H	0.142712	-4.131473	-3.631868
H	-1.605610	-3.712085	-3.399425
C	0.367928	-2.314326	1.009535
S	-0.542088	-2.295487	-1.450945
C	0.000000	-1.435180	0.000000
H	0.730999	-1.993211	1.993920
C	0.000000	0.000000	0.000000
S	0.234946	0.868203	1.510732
C	0.641630	2.390125	0.727629
C	0.235036	0.877284	-1.064665
C	0.593019	2.219143	-0.678287
C	0.219452	0.812732	-2.486150
C	0.546689	2.034501	-3.106916
S	0.866345	3.240357	-1.965735
C	0.617067	2.279095	-4.559972
O	0.378342	1.376631	-5.350277
O	0.952308	3.517725	-5.004375
F	-0.065123	-0.264443	-3.246290
C	1.054950	3.861577	-6.334976
H	1.341516	4.928732	-6.370268
H	0.093573	3.716085	-6.875609
H	1.822303	3.252232	-6.861878
H	0.879812	3.278780	1.321510
H	0.888291	-9.146471	-0.049086
H	-0.794665	-9.150570	0.578334
H	1.011908	-1.444158	-0.377309
$end

$rem
JOBTYPE		SP
EXCHANGE	HF
CORRELATION	pRIMP2
BASIS		cc-pvtz
METHOD		rimp2
AUX_BASIS	rimp2-cc-pvtz
SOLVENT_METHOD	PCM
PURECART	11111
SYMMETRY	false
MEM_TOTAL	110000
SCF_CONVERGENCE = 6
THRESH=10
GUI = 2
$end

$solvent
dielectric 4.90
$end
--------------------------------------------------------------

             Standard Nuclear Orientation (Angstroms)
    I     Atom           X                Y                Z
 ----------------------------------------------------------------
    1      C       0.0465740000    -8.5197410000     0.2680900000
    2      C      -0.3268860000    -7.6359670000    -0.7339200000
    3      S       0.5957080000    -7.6517400000     1.7223180000
    4      C      -0.1932360000    -6.2618940000    -0.3715160000
    5      H      -0.6927000000    -7.9547380000    -1.7181300000
    6      C       0.2949580000    -6.0799850000     0.9702830000
    7      C       0.5154870000    -4.7983820000     1.4982430000
    8      C      -0.4773580000    -5.1535420000    -1.2197250000
    9      C      -0.2526550000    -3.8696260000    -0.6929140000
   10      C       0.2333660000    -3.6889270000     0.6512890000
   11      O      -0.9573690000    -5.4810750000    -2.4516230000
   12      O       0.9987690000    -4.4798710000     2.7352640000
   13      C       0.7520290000    -5.3560260000     3.8283870000
   14      H       1.0126750000    -4.7904960000     4.7432130000
   15      H       1.3863030000    -6.2685130000     3.7886230000
   16      H      -0.3164920000    -5.6581870000     3.8772600000
   17      C      -0.8819300000    -4.5469990000    -3.5215800000
   18      H      -1.1459690000    -5.1075640000    -4.4382600000
   19      H       0.1427120000    -4.1314730000    -3.6318680000
   20      H      -1.6056100000    -3.7120850000    -3.3994250000
   21      C       0.3679280000    -2.3143260000     1.0095350000
   22      S      -0.5420880000    -2.2954870000    -1.4509450000
   23      C       0.0000000000    -1.4351800000     0.0000000000
   24      H       0.7309990000    -1.9932110000     1.9939200000
   25      C       0.0000000000     0.0000000000     0.0000000000
   26      S       0.2349460000     0.8682030000     1.5107320000
   27      C       0.6416300000     2.3901250000     0.7276290000
   28      C       0.2350360000     0.8772840000    -1.0646650000
   29      C       0.5930190000     2.2191430000    -0.6782870000
   30      C       0.2194520000     0.8127320000    -2.4861500000
   31      C       0.5466890000     2.0345010000    -3.1069160000
   32      S       0.8663450000     3.2403570000    -1.9657350000
   33      C       0.6170670000     2.2790950000    -4.5599720000
   34      O       0.3783420000     1.3766310000    -5.3502770000
   35      O       0.9523080000     3.5177250000    -5.0043750000
   36      F      -0.0651230000    -0.2644430000    -3.2462900000
   37      C       1.0549500000     3.8615770000    -6.3349760000
   38      H       1.3415160000     4.9287320000    -6.3702680000
   39      H       0.0935730000     3.7160850000    -6.8756090000
   40      H       1.8223030000     3.2522320000    -6.8618780000
   41      H       0.8798120000     3.2787800000     1.3215100000
   42      H       0.8882910000    -9.1464710000    -0.0490860000
   43      H      -0.7946650000    -9.1505700000     0.5783340000
   44      H       1.0119080000    -1.4441580000    -0.3773090000
 ----------------------------------------------------------------

   11   -2755.3197670087      6.80e-07  Convergence criterion met
 Total energy in the final basis set =    -2755.3197670087
        RIMP2         total energy =     -2760.4128280288 a.u.

                    Orbital Energies (a.u.)
 --------------------------------------------------------------

 Alpha MOs
 -- Occupied --
-92.0148 -91.9925 -91.9760 -91.9606 -26.3350 -20.6107 -20.5881 -20.5879
-20.5473 -11.4081 -11.3789 -11.3255 -11.3100 -11.3098 -11.2970 -11.2918
-11.2879 -11.2867 -11.2840 -11.2837 -11.2829 -11.2827 -11.2763 -11.2759
-11.2717 -11.2625 -11.2599 -11.2520 -11.2421  -9.0132  -8.9966  -8.9787
 -8.9631  -6.6940  -6.6934  -6.6929  -6.6779  -6.6772  -6.6758  -6.6597
 -6.6588  -6.6574  -6.6443  -6.6434  -6.6424  -1.6502  -1.4703  -1.4114
 -1.4099  -1.3652  -1.2385  -1.2098  -1.1778  -1.1432  -1.1006  -1.0507
 -1.0471  -1.0289  -1.0084  -1.0001  -0.9714  -0.9600  -0.9494  -0.9404
 -0.8948  -0.8727  -0.8628  -0.8128  -0.7944  -0.7862  -0.7769  -0.7662
 -0.7617  -0.7340  -0.7197  -0.7177  -0.6985  -0.6948  -0.6850  -0.6775
 -0.6750  -0.6717  -0.6564  -0.6493  -0.6364  -0.6302  -0.6222  -0.6157
 -0.6108  -0.6046  -0.5970  -0.5914  -0.5778  -0.5673  -0.5629  -0.5591
 -0.5499  -0.5325  -0.5288  -0.5209  -0.5137  -0.5088  -0.5047  -0.4996
 -0.4851  -0.4827  -0.4801  -0.4672  -0.4606  -0.4604  -0.4588  -0.4478
 -0.4319  -0.3991  -0.3850  -0.3720  -0.3510  -0.2929  -0.2840  -0.2188

          Ground-State Mulliken Net Atomic Charges

     Atom                 Charge (a.u.)
  ----------------------------------------
      1 C                    -0.070999
      2 C                    -0.244074
      3 S                    -0.130465
      4 C                    -0.049116
      5 H                     0.195670
      6 C                    -0.047921
      7 C                     0.219110
      8 C                     0.234046
      9 C                    -0.082885
     10 C                    -0.035507
     11 O                    -0.334798
     12 O                    -0.344077
     13 C                    -0.082631
     14 H                     0.120130
     15 H                     0.092063
     16 H                     0.092976
     17 C                    -0.087609
     18 H                     0.124025
     19 H                     0.093769
     20 H                     0.090840
     21 C                    -0.305765
     22 S                    -0.075280
     23 C                     0.086920
     24 H                     0.199584
     25 C                     0.002759
     26 S                     0.083679
     27 C                    -0.265006
     28 C                    -0.126162
     29 C                    -0.012382
     30 C                     0.388707
     31 C                    -0.150862
     32 S                     0.033031
     33 C                     0.459268
     34 O                    -0.455830
     35 O                    -0.298738
     36 F                    -0.209014
     37 C                    -0.055074
     38 H                     0.116315
     39 H                     0.084080
     40 H                     0.083848
     41 H                     0.213928
     42 H                     0.119588
     43 H                     0.117271
     44 H                     0.212587
  ----------------------------------------
  Sum of atomic charges =     0.000000

                    Cartesian Multipole Moments
 -----------------------------------------------------------------
    Charge (ESU x 10^10)
                -0.0000
    Dipole Moment (Debye)
         X       1.2320      Y       1.4145      Z       2.8035
       Tot       3.3732
    Quadrupole Moments (Debye-Ang)
        XX    -200.6301     XY       5.0010     YY    -168.8014
        XZ      -2.1870     YZ      -5.3101     ZZ    -188.8319

 Total job time:  328.76s(wall), 10747.30s(cpu)
        *  Thank you very much for using Q-Chem.  Have a nice day.  *
