 Q-Chem 5.4, Q-Chem, Inc., Pleasanton, CA (2021)
 Q-Chem 5.4.0 for Intel X86 EM64T Linux

User input:
--------------------------------------------------------------
$molecule
0 1
C	0.267851	-8.519741	0.047927
C	-0.801461	-7.635967	0.056157
S	1.822194	-7.651740	0.029285
C	-0.415201	-6.261894	0.054516
H	-1.851431	-7.954738	0.063290
C	1.012650	-6.079985	0.054687
C	1.584194	-4.798382	0.028030
C	-1.309433	-5.153542	0.031399
C	-0.737539	-3.869626	0.000427
C	0.691828	-3.688927	0.003462
O	-2.631211	-5.481075	0.061128
O	2.911907	-4.479871	-0.003021
C	3.854716	-5.356026	0.602710
H	4.803517	-4.790496	0.670671
H	4.034285	-6.268513	-0.006913
H	3.535185	-5.658187	1.623507
C	-3.610841	-4.546999	-0.375708
H	-4.562544	-5.107564	-0.441115
H	-3.364029	-4.131473	-1.376277
H	-3.743566	-3.712085	0.346107
C	1.074491	-2.314326	-0.000458
S	-1.548848	-2.295487	0.013144
C	-0.000000	-1.435180	-0.000000
H	2.123688	-1.993211	-0.004953
C	0.000000	0.000000	0.000000
S	0.382139	0.814215	1.510732
C	1.046923	2.242395	0.727629
C	0.383804	0.823142	-1.064665
C	0.969360	2.082453	-0.678287
C	0.357247	0.762277	-2.486150
C	0.891671	1.908660	-3.106916
S	1.415865	3.040689	-1.965735
C	1.003453	2.137318	-4.559972
O	0.611644	1.290019	-5.350277
O	1.548687	3.298916	-5.004375
F	-0.110054	-0.249117	-3.246290
C	1.709479	3.619721	-6.334976
H	2.177001	4.620902	-6.370268
H	0.737443	3.643380	-6.875609
H	2.359363	2.886384	-6.861878
H	1.435800	3.076190	1.321510
H	0.257688	-9.146471	-0.851509
H	0.271664	-9.150570	0.944542
H	-0.008462	-1.444158	-1.079930
$end

$rem
JOBTYPE		SP
EXCHANGE	HF
CORRELATION	pRIMP2
BASIS		cc-pvtz
METHOD		rimp2
AUX_BASIS	rimp2-cc-pvtz
SOLVENT_METHOD	PCM
PURECART	11111
SYMMETRY	false
MEM_TOTAL	110000
SCF_CONVERGENCE = 6
THRESH=10
GUI = 2
$end

$solvent
dielectric 4.90
$end
--------------------------------------------------------------

             Standard Nuclear Orientation (Angstroms)
    I     Atom           X                Y                Z
 ----------------------------------------------------------------
    1      C       0.2678510000    -8.5197410000     0.0479270000
    2      C      -0.8014610000    -7.6359670000     0.0561570000
    3      S       1.8221940000    -7.6517400000     0.0292850000
    4      C      -0.4152010000    -6.2618940000     0.0545160000
    5      H      -1.8514310000    -7.9547380000     0.0632900000
    6      C       1.0126500000    -6.0799850000     0.0546870000
    7      C       1.5841940000    -4.7983820000     0.0280300000
    8      C      -1.3094330000    -5.1535420000     0.0313990000
    9      C      -0.7375390000    -3.8696260000     0.0004270000
   10      C       0.6918280000    -3.6889270000     0.0034620000
   11      O      -2.6312110000    -5.4810750000     0.0611280000
   12      O       2.9119070000    -4.4798710000    -0.0030210000
   13      C       3.8547160000    -5.3560260000     0.6027100000
   14      H       4.8035170000    -4.7904960000     0.6706710000
   15      H       4.0342850000    -6.2685130000    -0.0069130000
   16      H       3.5351850000    -5.6581870000     1.6235070000
   17      C      -3.6108410000    -4.5469990000    -0.3757080000
   18      H      -4.5625440000    -5.1075640000    -0.4411150000
   19      H      -3.3640290000    -4.1314730000    -1.3762770000
   20      H      -3.7435660000    -3.7120850000     0.3461070000
   21      C       1.0744910000    -2.3143260000    -0.0004580000
   22      S      -1.5488480000    -2.2954870000     0.0131440000
   23      C       0.0000000000    -1.4351800000     0.0000000000
   24      H       2.1236880000    -1.9932110000    -0.0049530000
   25      C       0.0000000000     0.0000000000     0.0000000000
   26      S       0.3821390000     0.8142150000     1.5107320000
   27      C       1.0469230000     2.2423950000     0.7276290000
   28      C       0.3838040000     0.8231420000    -1.0646650000
   29      C       0.9693600000     2.0824530000    -0.6782870000
   30      C       0.3572470000     0.7622770000    -2.4861500000
   31      C       0.8916710000     1.9086600000    -3.1069160000
   32      S       1.4158650000     3.0406890000    -1.9657350000
   33      C       1.0034530000     2.1373180000    -4.5599720000
   34      O       0.6116440000     1.2900190000    -5.3502770000
   35      O       1.5486870000     3.2989160000    -5.0043750000
   36      F      -0.1100540000    -0.2491170000    -3.2462900000
   37      C       1.7094790000     3.6197210000    -6.3349760000
   38      H       2.1770010000     4.6209020000    -6.3702680000
   39      H       0.7374430000     3.6433800000    -6.8756090000
   40      H       2.3593630000     2.8863840000    -6.8618780000
   41      H       1.4358000000     3.0761900000     1.3215100000
   42      H       0.2576880000    -9.1464710000    -0.8515090000
   43      H       0.2716640000    -9.1505700000     0.9445420000
   44      H      -0.0084620000    -1.4441580000    -1.0799300000
 ----------------------------------------------------------------

   11   -2755.3180589239      6.69e-07  Convergence criterion met
 Total energy in the final basis set =    -2755.3180589239
        RIMP2         total energy =     -2760.4130438442 a.u.

                    Orbital Energies (a.u.)
 --------------------------------------------------------------

 Alpha MOs
 -- Occupied --
-92.0129 -91.9989 -91.9741 -91.9577 -26.3390 -20.6143 -20.5868 -20.5857
-20.5536 -11.4135 -11.3795 -11.3085 -11.3060 -11.3055 -11.3038 -11.3023
-11.2983 -11.2897 -11.2887 -11.2833 -11.2826 -11.2814 -11.2784 -11.2724
-11.2719 -11.2574 -11.2572 -11.2491 -11.2358  -9.0116  -9.0028  -8.9764
 -8.9603  -6.6923  -6.6917  -6.6913  -6.6840  -6.6834  -6.6820  -6.6575
 -6.6566  -6.6554  -6.6416  -6.6406  -6.6396  -1.6521  -1.4742  -1.4094
 -1.4083  -1.3699  -1.2408  -1.2073  -1.1745  -1.1441  -1.0993  -1.0530
 -1.0449  -1.0305  -1.0080  -0.9966  -0.9736  -0.9591  -0.9482  -0.9410
 -0.8922  -0.8752  -0.8617  -0.8096  -0.7947  -0.7843  -0.7816  -0.7705
 -0.7618  -0.7334  -0.7205  -0.7193  -0.6975  -0.6921  -0.6874  -0.6805
 -0.6762  -0.6744  -0.6547  -0.6479  -0.6314  -0.6274  -0.6195  -0.6145
 -0.6105  -0.6087  -0.5981  -0.5940  -0.5824  -0.5653  -0.5570  -0.5542
 -0.5497  -0.5319  -0.5279  -0.5221  -0.5123  -0.5070  -0.5034  -0.5006
 -0.4883  -0.4855  -0.4752  -0.4682  -0.4640  -0.4630  -0.4593  -0.4452
 -0.4208  -0.4041  -0.3842  -0.3693  -0.3500  -0.2949  -0.2884  -0.2201

          Ground-State Mulliken Net Atomic Charges

     Atom                 Charge (a.u.)
  ----------------------------------------
      1 C                    -0.070043
      2 C                    -0.261957
      3 S                    -0.136117
      4 C                    -0.044519
      5 H                     0.193252
      6 C                    -0.052572
      7 C                     0.223889
      8 C                     0.228458
      9 C                    -0.084571
     10 C                    -0.042445
     11 O                    -0.335626
     12 O                    -0.343454
     13 C                    -0.082352
     14 H                     0.119708
     15 H                     0.091976
     16 H                     0.092519
     17 C                    -0.086219
     18 H                     0.122479
     19 H                     0.092722
     20 H                     0.089812
     21 C                    -0.261125
     22 S                    -0.074167
     23 C                     0.049861
     24 H                     0.207010
     25 C                    -0.066331
     26 S                     0.099535
     27 C                    -0.217862
     28 C                    -0.101616
     29 C                    -0.003004
     30 C                     0.360302
     31 C                    -0.126097
     32 S                     0.049877
     33 C                     0.458079
     34 O                    -0.445723
     35 O                    -0.297204
     36 F                    -0.212936
     37 C                    -0.054917
     38 H                     0.117149
     39 H                     0.085138
     40 H                     0.085098
     41 H                     0.216075
     42 H                     0.117127
     43 H                     0.114553
     44 H                     0.186239
  ----------------------------------------
  Sum of atomic charges =     0.000000

                    Cartesian Multipole Moments
 -----------------------------------------------------------------
    Charge (ESU x 10^10)
                -0.0000
    Dipole Moment (Debye)
         X       1.7042      Y       4.0162      Z       2.3517
       Tot       4.9563
    Quadrupole Moments (Debye-Ang)
        XX    -182.0953     XY      10.1387     YY    -177.6544
        XZ       0.6681     YZ     -10.5867     ZZ    -203.0645

 Total job time:  343.06s(wall), 10373.22s(cpu)
        *  Thank you very much for using Q-Chem.  Have a nice day.  *
