 Q-Chem 5.4, Q-Chem, Inc., Pleasanton, CA (2021)
 Q-Chem 5.4.0 for Intel X86 EM64T Linux

User input:
--------------------------------------------------------------
$molecule
0 1
C	-0.175432	-8.519741	0.208002
C	0.352097	-7.635967	-0.722164
S	-0.936458	-7.651740	1.563424
C	0.160388	-6.261894	-0.386833
H	0.870905	-7.954738	-1.635031
C	-0.553685	-6.079985	0.849637
C	-0.816372	-4.798382	1.357938
C	0.627524	-5.153542	-1.149702
C	0.368399	-3.869626	-0.638941
C	-0.348912	-3.688927	0.597409
O	1.262667	-5.481075	-2.309260
O	-1.453338	-4.479871	2.523296
C	-2.449320	-5.356026	3.036927
H	-2.982577	-4.790496	3.824632
H	-2.011155	-6.268513	3.497250
H	-3.173591	-5.658187	2.249807
C	2.130793	-4.546999	-2.939226
H	2.663289	-5.107564	-3.730721
H	2.873906	-4.131473	-2.225196
H	1.572045	-3.712085	-3.415077
C	-0.536849	-2.314326	0.930765
S	0.763041	-2.295487	-1.347913
C	0.000000	-1.435180	0.000000
H	-1.057554	-1.993211	1.841645
C	0.000000	0.000000	0.000000
S	0.080615	0.895811	1.510732
C	0.216842	2.465231	0.727629
C	0.079127	0.904769	-1.064665
C	0.198659	2.288406	-0.678287
C	0.074988	0.838492	-2.486150
C	0.185097	2.098524	-3.106916
S	0.290501	3.341568	-1.965735
C	0.211932	2.351623	-4.559972
O	0.133545	1.421416	-5.350277
O	0.326994	3.629649	-5.004375
F	-0.018214	-0.271734	-3.246290
C	0.368367	3.986101	-6.334976
H	0.465270	5.086806	-6.370268
H	-0.553140	3.675878	-6.875609
H	1.229874	3.519263	-6.861878
H	0.297091	3.381746	1.321510
H	0.608584	-9.146471	0.648918
H	-0.953830	-9.150570	-0.237003
H	0.939477	-1.444158	0.532637
$end

$rem
JOBTYPE		SP
EXCHANGE	HF
CORRELATION	pRIMP2
BASIS		cc-pvtz
METHOD		rimp2
AUX_BASIS	rimp2-cc-pvtz
SOLVENT_METHOD	PCM
PURECART	11111
SYMMETRY	false
MEM_TOTAL	110000
SCF_CONVERGENCE = 6
THRESH=10
GUI = 2
$end

$solvent
dielectric 4.90
$end
--------------------------------------------------------------

             Standard Nuclear Orientation (Angstroms)
    I     Atom           X                Y                Z
 ----------------------------------------------------------------
    1      C      -0.1754320000    -8.5197410000     0.2080020000
    2      C       0.3520970000    -7.6359670000    -0.7221640000
    3      S      -0.9364580000    -7.6517400000     1.5634240000
    4      C       0.1603880000    -6.2618940000    -0.3868330000
    5      H       0.8709050000    -7.9547380000    -1.6350310000
    6      C      -0.5536850000    -6.0799850000     0.8496370000
    7      C      -0.8163720000    -4.7983820000     1.3579380000
    8      C       0.6275240000    -5.1535420000    -1.1497020000
    9      C       0.3683990000    -3.8696260000    -0.6389410000
   10      C      -0.3489120000    -3.6889270000     0.5974090000
   11      O       1.2626670000    -5.4810750000    -2.3092600000
   12      O      -1.4533380000    -4.4798710000     2.5232960000
   13      C      -2.4493200000    -5.3560260000     3.0369270000
   14      H      -2.9825770000    -4.7904960000     3.8246320000
   15      H      -2.0111550000    -6.2685130000     3.4972500000
   16      H      -3.1735910000    -5.6581870000     2.2498070000
   17      C       2.1307930000    -4.5469990000    -2.9392260000
   18      H       2.6632890000    -5.1075640000    -3.7307210000
   19      H       2.8739060000    -4.1314730000    -2.2251960000
   20      H       1.5720450000    -3.7120850000    -3.4150770000
   21      C      -0.5368490000    -2.3143260000     0.9307650000
   22      S       0.7630410000    -2.2954870000    -1.3479130000
   23      C       0.0000000000    -1.4351800000     0.0000000000
   24      H      -1.0575540000    -1.9932110000     1.8416450000
   25      C       0.0000000000     0.0000000000     0.0000000000
   26      S       0.0806150000     0.8958110000     1.5107320000
   27      C       0.2168420000     2.4652310000     0.7276290000
   28      C       0.0791270000     0.9047690000    -1.0646650000
   29      C       0.1986590000     2.2884060000    -0.6782870000
   30      C       0.0749880000     0.8384920000    -2.4861500000
   31      C       0.1850970000     2.0985240000    -3.1069160000
   32      S       0.2905010000     3.3415680000    -1.9657350000
   33      C       0.2119320000     2.3516230000    -4.5599720000
   34      O       0.1335450000     1.4214160000    -5.3502770000
   35      O       0.3269940000     3.6296490000    -5.0043750000
   36      F      -0.0182140000    -0.2717340000    -3.2462900000
   37      C       0.3683670000     3.9861010000    -6.3349760000
   38      H       0.4652700000     5.0868060000    -6.3702680000
   39      H      -0.5531400000     3.6758780000    -6.8756090000
   40      H       1.2298740000     3.5192630000    -6.8618780000
   41      H       0.2970910000     3.3817460000     1.3215100000
   42      H       0.6085840000    -9.1464710000     0.6489180000
   43      H      -0.9538300000    -9.1505700000    -0.2370030000
   44      H       0.9394770000    -1.4441580000     0.5326370000
 ----------------------------------------------------------------

   11   -2755.3237719118      7.66e-07  Convergence criterion met
 Total energy in the final basis set =    -2755.3237719118
        RIMP2         total energy =     -2760.4140164506 a.u.

                    Orbital Energies (a.u.)
 --------------------------------------------------------------

 Alpha MOs
 -- Occupied --
-92.0136 -91.9917 -91.9772 -91.9602 -26.3340 -20.6109 -20.5881 -20.5878
-20.5477 -11.4084 -11.3787 -11.3245 -11.3098 -11.3095 -11.2962 -11.2927
-11.2879 -11.2859 -11.2857 -11.2842 -11.2836 -11.2835 -11.2776 -11.2759
-11.2725 -11.2622 -11.2596 -11.2515 -11.2412  -9.0124  -8.9959  -8.9796
 -8.9628  -6.6932  -6.6926  -6.6920  -6.6772  -6.6765  -6.6751  -6.6606
 -6.6598  -6.6584  -6.6440  -6.6431  -6.6420  -1.6483  -1.4705  -1.4112
 -1.4098  -1.3654  -1.2378  -1.2102  -1.1775  -1.1433  -1.1005  -1.0502
 -1.0468  -1.0299  -1.0085  -0.9997  -0.9711  -0.9602  -0.9494  -0.9404
 -0.8948  -0.8710  -0.8645  -0.8117  -0.7935  -0.7860  -0.7764  -0.7672
 -0.7658  -0.7334  -0.7209  -0.7158  -0.6976  -0.6934  -0.6838  -0.6776
 -0.6710  -0.6691  -0.6568  -0.6493  -0.6389  -0.6293  -0.6218  -0.6156
 -0.6107  -0.6048  -0.5960  -0.5918  -0.5788  -0.5674  -0.5644  -0.5588
 -0.5495  -0.5338  -0.5281  -0.5213  -0.5134  -0.5087  -0.5040  -0.5006
 -0.4851  -0.4828  -0.4790  -0.4685  -0.4622  -0.4604  -0.4592  -0.4481
 -0.4293  -0.4007  -0.3851  -0.3723  -0.3513  -0.2931  -0.2843  -0.2191

          Ground-State Mulliken Net Atomic Charges

     Atom                 Charge (a.u.)
  ----------------------------------------
      1 C                    -0.070741
      2 C                    -0.247086
      3 S                    -0.131168
      4 C                    -0.051047
      5 H                     0.195282
      6 C                    -0.047448
      7 C                     0.219698
      8 C                     0.231939
      9 C                    -0.077644
     10 C                    -0.009355
     11 O                    -0.334512
     12 O                    -0.343803
     13 C                    -0.082714
     14 H                     0.120090
     15 H                     0.092085
     16 H                     0.093242
     17 C                    -0.089031
     18 H                     0.124172
     19 H                     0.092193
     20 H                     0.092898
     21 C                    -0.345776
     22 S                    -0.083368
     23 C                     0.172292
     24 H                     0.198385
     25 C                    -0.069634
     26 S                     0.084238
     27 C                    -0.260731
     28 C                    -0.121351
     29 C                    -0.010894
     30 C                     0.397582
     31 C                    -0.151808
     32 S                     0.027112
     33 C                     0.461608
     34 O                    -0.454458
     35 O                    -0.298499
     36 F                    -0.207830
     37 C                    -0.055248
     38 H                     0.116356
     39 H                     0.084337
     40 H                     0.083989
     41 H                     0.213933
     42 H                     0.119126
     43 H                     0.117000
     44 H                     0.206590
  ----------------------------------------
  Sum of atomic charges =     0.000000

                    Cartesian Multipole Moments
 -----------------------------------------------------------------
    Charge (ESU x 10^10)
                -0.0000
    Dipole Moment (Debye)
         X       0.9390      Y       1.7706      Z       3.3321
       Tot       3.8884
    Quadrupole Moments (Debye-Ang)
        XX    -190.9438     XY      -0.7447     YY    -168.9952
        XZ     -10.2652     YZ      -6.1026     ZZ    -199.1886

 Total job time:  347.59s(wall), 11899.69s(cpu)
        *  Thank you very much for using Q-Chem.  Have a nice day.  *
