 Q-Chem 5.4, Q-Chem, Inc., Pleasanton, CA (2021)
 Q-Chem 5.4.0 for Intel X86 EM64T Linux

User input:
--------------------------------------------------------------
$molecule
0 1
C	-0.208886	-8.519741	0.174379
C	0.472151	-7.635967	-0.650052
S	-1.193717	-7.651740	1.377058
C	0.225125	-6.261894	-0.353105
H	1.141594	-7.954738	-1.458961
C	-0.692811	-6.079985	0.740583
C	-1.039773	-4.798382	1.195546
C	0.817634	-5.153542	-1.023267
C	0.473754	-3.869626	-0.565262
C	-0.447350	-3.688927	0.527745
O	1.644483	-5.481075	-2.054917
O	-1.869424	-4.479871	2.232592
C	-2.939466	-5.356026	2.565470
H	-3.601405	-4.790496	3.248608
H	-2.587892	-6.268513	3.094885
H	-3.516052	-5.658187	1.664539
C	2.608813	-4.546999	-2.524564
H	3.270661	-5.107564	-3.211568
H	3.216646	-4.131473	-1.692342
H	2.141184	-3.712085	-3.090211
C	-0.690319	-2.314326	0.823402
S	0.985511	-2.295487	-1.194935
C	0.000000	-1.435180	0.000000
H	-1.361286	-1.993211	1.630024
C	0.000000	0.000000	0.000000
S	0.002233	0.899428	1.510732
C	0.001157	2.474749	0.727629
C	-0.000030	0.908223	-1.064665
C	-0.001545	2.297013	-0.678287
C	0.001624	0.841837	-2.486150
C	0.001494	2.106670	-3.106916
S	-0.001841	3.354171	-1.965735
C	0.006168	2.361146	-4.559972
O	0.009152	1.427646	-5.350277
O	0.009405	3.644337	-5.004375
F	0.005539	-0.272288	-3.246290
C	0.019554	4.003038	-6.334976
H	0.020155	5.108000	-6.370268
H	-0.871409	3.613681	-6.875609
H	0.918470	3.613062	-6.861878
H	0.001222	3.394771	1.321510
H	0.486655	-9.146471	0.744739
H	-0.898184	-9.150570	-0.399033
H	0.832713	-1.444158	0.687683
$end

$rem
JOBTYPE		SP
EXCHANGE	HF
CORRELATION	pRIMP2
BASIS		cc-pvtz
METHOD		rimp2
AUX_BASIS	rimp2-cc-pvtz
SOLVENT_METHOD	PCM
PURECART	11111
SYMMETRY	false
MEM_TOTAL	110000
SCF_CONVERGENCE = 6
THRESH=10
GUI = 2
$end

$solvent
dielectric 4.90
$end
--------------------------------------------------------------

             Standard Nuclear Orientation (Angstroms)
    I     Atom           X                Y                Z
 ----------------------------------------------------------------
    1      C      -0.2088860000    -8.5197410000     0.1743790000
    2      C       0.4721510000    -7.6359670000    -0.6500520000
    3      S      -1.1937170000    -7.6517400000     1.3770580000
    4      C       0.2251250000    -6.2618940000    -0.3531050000
    5      H       1.1415940000    -7.9547380000    -1.4589610000
    6      C      -0.6928110000    -6.0799850000     0.7405830000
    7      C      -1.0397730000    -4.7983820000     1.1955460000
    8      C       0.8176340000    -5.1535420000    -1.0232670000
    9      C       0.4737540000    -3.8696260000    -0.5652620000
   10      C      -0.4473500000    -3.6889270000     0.5277450000
   11      O       1.6444830000    -5.4810750000    -2.0549170000
   12      O      -1.8694240000    -4.4798710000     2.2325920000
   13      C      -2.9394660000    -5.3560260000     2.5654700000
   14      H      -3.6014050000    -4.7904960000     3.2486080000
   15      H      -2.5878920000    -6.2685130000     3.0948850000
   16      H      -3.5160520000    -5.6581870000     1.6645390000
   17      C       2.6088130000    -4.5469990000    -2.5245640000
   18      H       3.2706610000    -5.1075640000    -3.2115680000
   19      H       3.2166460000    -4.1314730000    -1.6923420000
   20      H       2.1411840000    -3.7120850000    -3.0902110000
   21      C      -0.6903190000    -2.3143260000     0.8234020000
   22      S       0.9855110000    -2.2954870000    -1.1949350000
   23      C       0.0000000000    -1.4351800000     0.0000000000
   24      H      -1.3612860000    -1.9932110000     1.6300240000
   25      C       0.0000000000     0.0000000000     0.0000000000
   26      S       0.0022330000     0.8994280000     1.5107320000
   27      C       0.0011570000     2.4747490000     0.7276290000
   28      C      -0.0000300000     0.9082230000    -1.0646650000
   29      C      -0.0015450000     2.2970130000    -0.6782870000
   30      C       0.0016240000     0.8418370000    -2.4861500000
   31      C       0.0014940000     2.1066700000    -3.1069160000
   32      S      -0.0018410000     3.3541710000    -1.9657350000
   33      C       0.0061680000     2.3611460000    -4.5599720000
   34      O       0.0091520000     1.4276460000    -5.3502770000
   35      O       0.0094050000     3.6443370000    -5.0043750000
   36      F       0.0055390000    -0.2722880000    -3.2462900000
   37      C       0.0195540000     4.0030380000    -6.3349760000
   38      H       0.0201550000     5.1080000000    -6.3702680000
   39      H      -0.8714090000     3.6136810000    -6.8756090000
   40      H       0.9184700000     3.6130620000    -6.8618780000
   41      H       0.0012220000     3.3947710000     1.3215100000
   42      H       0.4866550000    -9.1464710000     0.7447390000
   43      H      -0.8981840000    -9.1505700000    -0.3990330000
   44      H       0.8327130000    -1.4441580000     0.6876830000
 ----------------------------------------------------------------

   11   -2755.3248012766      7.89e-07  Convergence criterion met
 Total energy in the final basis set =    -2755.3248012766
        RIMP2         total energy =     -2760.4147986654 a.u.

                    Orbital Energies (a.u.)
 --------------------------------------------------------------

 Alpha MOs
 -- Occupied --
-92.0152 -91.9926 -91.9776 -91.9594 -26.3338 -20.6114 -20.5879 -20.5872
-20.5485 -11.4091 -11.3784 -11.3219 -11.3096 -11.3084 -11.2966 -11.2943
-11.2886 -11.2881 -11.2846 -11.2841 -11.2836 -11.2834 -11.2787 -11.2748
-11.2733 -11.2608 -11.2590 -11.2507 -11.2392  -9.0139  -8.9968  -8.9799
 -8.9620  -6.6947  -6.6941  -6.6936  -6.6780  -6.6774  -6.6760  -6.6609
 -6.6601  -6.6587  -6.6432  -6.6423  -6.6413  -1.6475  -1.4710  -1.4108
 -1.4095  -1.3660  -1.2378  -1.2101  -1.1767  -1.1435  -1.1002  -1.0500
 -1.0465  -1.0303  -1.0085  -0.9991  -0.9714  -0.9600  -0.9490  -0.9405
 -0.8942  -0.8709  -0.8648  -0.8110  -0.7926  -0.7858  -0.7765  -0.7688
 -0.7659  -0.7331  -0.7208  -0.7153  -0.6973  -0.6926  -0.6834  -0.6779
 -0.6710  -0.6674  -0.6567  -0.6490  -0.6384  -0.6290  -0.6210  -0.6153
 -0.6105  -0.6054  -0.5956  -0.5923  -0.5796  -0.5664  -0.5638  -0.5581
 -0.5500  -0.5337  -0.5280  -0.5214  -0.5131  -0.5083  -0.5036  -0.5011
 -0.4856  -0.4838  -0.4781  -0.4693  -0.4620  -0.4607  -0.4599  -0.4475
 -0.4282  -0.4007  -0.3853  -0.3715  -0.3514  -0.2929  -0.2854  -0.2192

          Ground-State Mulliken Net Atomic Charges

     Atom                 Charge (a.u.)
  ----------------------------------------
      1 C                    -0.070396
      2 C                    -0.252637
      3 S                    -0.133084
      4 C                    -0.048901
      5 H                     0.194569
      6 C                    -0.049042
      7 C                     0.221580
      8 C                     0.229923
      9 C                    -0.077548
     10 C                    -0.024910
     11 O                    -0.334835
     12 O                    -0.343788
     13 C                    -0.082715
     14 H                     0.120040
     15 H                     0.092035
     16 H                     0.093260
     17 C                    -0.087655
     18 H                     0.123742
     19 H                     0.092007
     20 H                     0.092137
     21 C                    -0.317186
     22 S                    -0.077441
     23 C                     0.152434
     24 H                     0.201674
     25 C                    -0.098394
     26 S                     0.087926
     27 C                    -0.250913
     28 C                    -0.094192
     29 C                    -0.011960
     30 C                     0.396456
     31 C                    -0.150942
     32 S                     0.028864
     33 C                     0.460864
     34 O                    -0.452787
     35 O                    -0.298283
     36 F                    -0.208410
     37 C                    -0.055151
     38 H                     0.116415
     39 H                     0.084459
     40 H                     0.084155
     41 H                     0.214710
     42 H                     0.118290
     43 H                     0.116255
     44 H                     0.199377
  ----------------------------------------
  Sum of atomic charges =     0.000000

                    Cartesian Multipole Moments
 -----------------------------------------------------------------
    Charge (ESU x 10^10)
                -0.0000
    Dipole Moment (Debye)
         X       0.6307      Y       2.4264      Z       3.4545
       Tot       4.2683
    Quadrupole Moments (Debye-Ang)
        XX    -187.9771     XY      -2.4898     YY    -171.4431
        XZ      -8.4023     YZ      -6.9097     ZZ    -201.9545

 Total job time:  328.55s(wall), 10670.96s(cpu)
        *  Thank you very much for using Q-Chem.  Have a nice day.  *
