 Q-Chem 5.4, Q-Chem, Inc., Pleasanton, CA (2021)
 Q-Chem 5.4.0 for Intel X86 EM64T Linux

User input:
--------------------------------------------------------------
$molecule
0 1
C	-0.136647	-8.519741	0.235306
C	0.221346	-7.635967	-0.772334
S	-0.650746	-7.651740	1.702286
C	0.090779	-6.261894	-0.408807
H	0.573754	-7.954738	-1.761423
C	-0.397735	-6.079985	0.932876
C	-0.568166	-4.798382	1.479069
C	0.418347	-5.153542	-1.241204
C	0.251852	-3.869626	-0.693206
C	-0.239872	-3.688927	0.648921
O	0.842486	-5.481075	-2.493437
O	-0.993092	-4.479871	2.737331
C	-1.884752	-5.356026	3.416110
H	-2.273124	-4.790496	4.284447
H	-1.373310	-6.268513	3.793352
H	-2.734702	-5.658187	2.766716
C	1.588030	-4.546999	-3.264581
H	1.974995	-5.107564	-4.136519
H	2.443843	-4.131473	-2.690439
H	0.955140	-3.712085	-3.636177
C	-0.367068	-2.314326	1.009848
S	0.517386	-2.295487	-1.459936
C	0.000000	-1.435180	0.000000
H	-0.721689	-1.993211	1.997308
C	0.000000	0.000000	0.000000
S	0.002233	0.899428	1.510732
C	0.001157	2.474749	0.727629
C	-0.000030	0.908223	-1.064665
C	-0.001545	2.297013	-0.678287
C	0.001624	0.841837	-2.486150
C	0.001494	2.106670	-3.106916
S	-0.001841	3.354171	-1.965735
C	0.006168	2.361146	-4.559972
O	0.009152	1.427646	-5.350277
O	0.009405	3.644337	-5.004375
F	0.005539	-0.272288	-3.246290
C	0.019554	4.003038	-6.334976
H	0.020155	5.108000	-6.370268
H	-0.871409	3.613681	-6.875609
H	0.918470	3.613062	-6.861878
H	0.001222	3.394771	1.321510
H	0.712022	-9.146471	0.533380
H	-0.980494	-9.150570	-0.067771
H	1.017696	-1.444158	0.361406
$end

$rem
JOBTYPE		SP
EXCHANGE	HF
CORRELATION	pRIMP2
BASIS		cc-pvtz
METHOD		rimp2
AUX_BASIS	rimp2-cc-pvtz
SOLVENT_METHOD	PCM
PURECART	11111
SYMMETRY	false
MEM_TOTAL	110000
SCF_CONVERGENCE = 6
THRESH=10
GUI = 2
$end

$solvent
dielectric 4.90
$end
--------------------------------------------------------------

             Standard Nuclear Orientation (Angstroms)
    I     Atom           X                Y                Z
 ----------------------------------------------------------------
    1      C      -0.1366470000    -8.5197410000     0.2353060000
    2      C       0.2213460000    -7.6359670000    -0.7723340000
    3      S      -0.6507460000    -7.6517400000     1.7022860000
    4      C       0.0907790000    -6.2618940000    -0.4088070000
    5      H       0.5737540000    -7.9547380000    -1.7614230000
    6      C      -0.3977350000    -6.0799850000     0.9328760000
    7      C      -0.5681660000    -4.7983820000     1.4790690000
    8      C       0.4183470000    -5.1535420000    -1.2412040000
    9      C       0.2518520000    -3.8696260000    -0.6932060000
   10      C      -0.2398720000    -3.6889270000     0.6489210000
   11      O       0.8424860000    -5.4810750000    -2.4934370000
   12      O      -0.9930920000    -4.4798710000     2.7373310000
   13      C      -1.8847520000    -5.3560260000     3.4161100000
   14      H      -2.2731240000    -4.7904960000     4.2844470000
   15      H      -1.3733100000    -6.2685130000     3.7933520000
   16      H      -2.7347020000    -5.6581870000     2.7667160000
   17      C       1.5880300000    -4.5469990000    -3.2645810000
   18      H       1.9749950000    -5.1075640000    -4.1365190000
   19      H       2.4438430000    -4.1314730000    -2.6904390000
   20      H       0.9551400000    -3.7120850000    -3.6361770000
   21      C      -0.3670680000    -2.3143260000     1.0098480000
   22      S       0.5173860000    -2.2954870000    -1.4599360000
   23      C       0.0000000000    -1.4351800000     0.0000000000
   24      H      -0.7216890000    -1.9932110000     1.9973080000
   25      C       0.0000000000     0.0000000000     0.0000000000
   26      S       0.0022330000     0.8994280000     1.5107320000
   27      C       0.0011570000     2.4747490000     0.7276290000
   28      C      -0.0000300000     0.9082230000    -1.0646650000
   29      C      -0.0015450000     2.2970130000    -0.6782870000
   30      C       0.0016240000     0.8418370000    -2.4861500000
   31      C       0.0014940000     2.1066700000    -3.1069160000
   32      S      -0.0018410000     3.3541710000    -1.9657350000
   33      C       0.0061680000     2.3611460000    -4.5599720000
   34      O       0.0091520000     1.4276460000    -5.3502770000
   35      O       0.0094050000     3.6443370000    -5.0043750000
   36      F       0.0055390000    -0.2722880000    -3.2462900000
   37      C       0.0195540000     4.0030380000    -6.3349760000
   38      H       0.0201550000     5.1080000000    -6.3702680000
   39      H      -0.8714090000     3.6136810000    -6.8756090000
   40      H       0.9184700000     3.6130620000    -6.8618780000
   41      H       0.0012220000     3.3947710000     1.3215100000
   42      H       0.7120220000    -9.1464710000     0.5333800000
   43      H      -0.9804940000    -9.1505700000    -0.0677710000
   44      H       1.0176960000    -1.4441580000     0.3614060000
 ----------------------------------------------------------------

   11   -2755.3225651103      7.39e-07  Convergence criterion met
 Total energy in the final basis set =    -2755.3225651103
        RIMP2         total energy =     -2760.4132416110 a.u.

                    Orbital Energies (a.u.)
 --------------------------------------------------------------

 Alpha MOs
 -- Occupied --
-92.0133 -91.9912 -91.9766 -91.9607 -26.3346 -20.6106 -20.5882 -20.5881
-20.5471 -11.4079 -11.3790 -11.3262 -11.3103 -11.3100 -11.2960 -11.2915
-11.2878 -11.2867 -11.2842 -11.2837 -11.2834 -11.2829 -11.2766 -11.2765
-11.2724 -11.2630 -11.2600 -11.2521 -11.2424  -9.0120  -8.9954  -8.9792
 -8.9633  -6.6929  -6.6923  -6.6917  -6.6767  -6.6760  -6.6746  -6.6601
 -6.6593  -6.6579  -6.6445  -6.6436  -6.6425  -1.6497  -1.4701  -1.4115
 -1.4100  -1.3650  -1.2375  -1.2103  -1.1780  -1.1430  -1.1008  -1.0502
 -1.0470  -1.0295  -1.0086  -1.0003  -0.9710  -0.9602  -0.9496  -0.9403
 -0.8951  -0.8715  -0.8643  -0.8125  -0.7946  -0.7862  -0.7764  -0.7666
 -0.7647  -0.7336  -0.7211  -0.7168  -0.6978  -0.6943  -0.6841  -0.6773
 -0.6714  -0.6702  -0.6569  -0.6494  -0.6391  -0.6297  -0.6223  -0.6158
 -0.6107  -0.6044  -0.5966  -0.5913  -0.5777  -0.5682  -0.5648  -0.5591
 -0.5494  -0.5334  -0.5285  -0.5212  -0.5135  -0.5089  -0.5043  -0.5001
 -0.4846  -0.4820  -0.4794  -0.4678  -0.4616  -0.4602  -0.4586  -0.4483
 -0.4305  -0.4002  -0.3853  -0.3726  -0.3511  -0.2931  -0.2838  -0.2192

          Ground-State Mulliken Net Atomic Charges

     Atom                 Charge (a.u.)
  ----------------------------------------
      1 C                    -0.070922
      2 C                    -0.243430
      3 S                    -0.130089
      4 C                    -0.053342
      5 H                     0.195750
      6 C                    -0.047645
      7 C                     0.220609
      8 C                     0.236275
      9 C                    -0.078202
     10 C                    -0.009930
     11 O                    -0.334315
     12 O                    -0.343886
     13 C                    -0.082829
     14 H                     0.120196
     15 H                     0.092078
     16 H                     0.093247
     17 C                    -0.089676
     18 H                     0.124481
     19 H                     0.092352
     20 H                     0.093469
     21 C                    -0.356445
     22 S                    -0.087185
     23 C                     0.188263
     24 H                     0.195439
     25 C                    -0.076711
     26 S                     0.077010
     27 C                    -0.263889
     28 C                    -0.105636
     29 C                    -0.017999
     30 C                     0.400685
     31 C                    -0.151425
     32 S                     0.025336
     33 C                     0.461655
     34 O                    -0.455857
     35 O                    -0.298611
     36 F                    -0.208651
     37 C                    -0.055231
     38 H                     0.116312
     39 H                     0.084197
     40 H                     0.083836
     41 H                     0.214079
     42 H                     0.119626
     43 H                     0.117452
     44 H                     0.209560
  ----------------------------------------
  Sum of atomic charges =     0.000000

                    Cartesian Multipole Moments
 -----------------------------------------------------------------
    Charge (ESU x 10^10)
                -0.0000
    Dipole Moment (Debye)
         X       0.7296      Y       1.3853      Z       3.2104
       Tot       3.5719
    Quadrupole Moments (Debye-Ang)
        XX    -194.3217     XY      -1.3729     YY    -167.3768
        XZ      -9.1937     YZ      -5.5620     ZZ    -196.1584

 Total job time:  332.11s(wall), 10804.85s(cpu)
        *  Thank you very much for using Q-Chem.  Have a nice day.  *
