 Q-Chem 5.4, Q-Chem, Inc., Pleasanton, CA (2021)
 Q-Chem 5.4.0 for Intel X86 EM64T Linux

User input:
--------------------------------------------------------------
$molecule
0 1
C	-0.136647	-8.519741	0.235306
C	0.221346	-7.635967	-0.772334
S	-0.650746	-7.651740	1.702286
C	0.090779	-6.261894	-0.408807
H	0.573754	-7.954738	-1.761423
C	-0.397735	-6.079985	0.932876
C	-0.568166	-4.798382	1.479069
C	0.418347	-5.153542	-1.241204
C	0.251852	-3.869626	-0.693206
C	-0.239872	-3.688927	0.648921
O	0.842486	-5.481075	-2.493437
O	-0.993092	-4.479871	2.737331
C	-1.884752	-5.356026	3.416110
H	-2.273124	-4.790496	4.284447
H	-1.373310	-6.268513	3.793352
H	-2.734702	-5.658187	2.766716
C	1.588030	-4.546999	-3.264581
H	1.974995	-5.107564	-4.136519
H	2.443843	-4.131473	-2.690439
H	0.955140	-3.712085	-3.636177
C	-0.367068	-2.314326	1.009848
S	0.517386	-2.295487	-1.459936
C	0.000000	-1.435180	0.000000
H	-0.721689	-1.993211	1.997308
C	0.000000	0.000000	0.000000
S	0.309721	0.844422	1.510732
C	0.847502	2.325108	0.727629
C	0.310602	0.853460	-1.064665
C	0.784173	2.159014	-0.678287
C	0.289451	0.790512	-2.486150
C	0.721927	1.979112	-3.106916
S	1.145464	3.152519	-1.965735
C	0.813355	2.216642	-4.559972
O	0.496884	1.338418	-5.350277
O	1.255274	3.421340	-5.004375
F	-0.087923	-0.257761	-3.246290
C	1.387494	3.754937	-6.334976
H	1.765978	4.793056	-6.370268
H	0.417095	3.693789	-6.875609
H	2.098820	3.081033	-6.861878
H	1.162229	3.189623	1.321510
H	0.712022	-9.146471	0.533380
H	-0.980494	-9.150570	-0.067771
H	1.017696	-1.444158	0.361406
$end

$rem
JOBTYPE		SP
EXCHANGE	HF
CORRELATION	pRIMP2
BASIS		cc-pvtz
METHOD		rimp2
AUX_BASIS	rimp2-cc-pvtz
SOLVENT_METHOD	PCM
PURECART	11111
SYMMETRY	false
MEM_TOTAL	110000
SCF_CONVERGENCE = 6
THRESH=10
GUI = 2
$end

$solvent
dielectric 4.90
$end
--------------------------------------------------------------

             Standard Nuclear Orientation (Angstroms)
    I     Atom           X                Y                Z
 ----------------------------------------------------------------
    1      C      -0.1366470000    -8.5197410000     0.2353060000
    2      C       0.2213460000    -7.6359670000    -0.7723340000
    3      S      -0.6507460000    -7.6517400000     1.7022860000
    4      C       0.0907790000    -6.2618940000    -0.4088070000
    5      H       0.5737540000    -7.9547380000    -1.7614230000
    6      C      -0.3977350000    -6.0799850000     0.9328760000
    7      C      -0.5681660000    -4.7983820000     1.4790690000
    8      C       0.4183470000    -5.1535420000    -1.2412040000
    9      C       0.2518520000    -3.8696260000    -0.6932060000
   10      C      -0.2398720000    -3.6889270000     0.6489210000
   11      O       0.8424860000    -5.4810750000    -2.4934370000
   12      O      -0.9930920000    -4.4798710000     2.7373310000
   13      C      -1.8847520000    -5.3560260000     3.4161100000
   14      H      -2.2731240000    -4.7904960000     4.2844470000
   15      H      -1.3733100000    -6.2685130000     3.7933520000
   16      H      -2.7347020000    -5.6581870000     2.7667160000
   17      C       1.5880300000    -4.5469990000    -3.2645810000
   18      H       1.9749950000    -5.1075640000    -4.1365190000
   19      H       2.4438430000    -4.1314730000    -2.6904390000
   20      H       0.9551400000    -3.7120850000    -3.6361770000
   21      C      -0.3670680000    -2.3143260000     1.0098480000
   22      S       0.5173860000    -2.2954870000    -1.4599360000
   23      C       0.0000000000    -1.4351800000     0.0000000000
   24      H      -0.7216890000    -1.9932110000     1.9973080000
   25      C       0.0000000000     0.0000000000     0.0000000000
   26      S       0.3097210000     0.8444220000     1.5107320000
   27      C       0.8475020000     2.3251080000     0.7276290000
   28      C       0.3106020000     0.8534600000    -1.0646650000
   29      C       0.7841730000     2.1590140000    -0.6782870000
   30      C       0.2894510000     0.7905120000    -2.4861500000
   31      C       0.7219270000     1.9791120000    -3.1069160000
   32      S       1.1454640000     3.1525190000    -1.9657350000
   33      C       0.8133550000     2.2166420000    -4.5599720000
   34      O       0.4968840000     1.3384180000    -5.3502770000
   35      O       1.2552740000     3.4213400000    -5.0043750000
   36      F      -0.0879230000    -0.2577610000    -3.2462900000
   37      C       1.3874940000     3.7549370000    -6.3349760000
   38      H       1.7659780000     4.7930560000    -6.3702680000
   39      H       0.4170950000     3.6937890000    -6.8756090000
   40      H       2.0988200000     3.0810330000    -6.8618780000
   41      H       1.1622290000     3.1896230000     1.3215100000
   42      H       0.7120220000    -9.1464710000     0.5333800000
   43      H      -0.9804940000    -9.1505700000    -0.0677710000
   44      H       1.0176960000    -1.4441580000     0.3614060000
 ----------------------------------------------------------------

   11   -2755.3173538095      7.03e-07  Convergence criterion met
 Total energy in the final basis set =    -2755.3173538095
        RIMP2         total energy =     -2760.4101864956 a.u.

                    Orbital Energies (a.u.)
 --------------------------------------------------------------

 Alpha MOs
 -- Occupied --
-92.0113 -91.9915 -91.9765 -91.9609 -26.3345 -20.6108 -20.5884 -20.5882
-20.5474 -11.4082 -11.3790 -11.3241 -11.3109 -11.3099 -11.2962 -11.2923
-11.2879 -11.2864 -11.2853 -11.2843 -11.2837 -11.2830 -11.2773 -11.2768
-11.2706 -11.2632 -11.2602 -11.2524 -11.2433  -9.0104  -8.9958  -8.9791
 -8.9635  -6.6913  -6.6906  -6.6900  -6.6771  -6.6764  -6.6750  -6.6600
 -6.6592  -6.6578  -6.6447  -6.6438  -6.6428  -1.6495  -1.4703  -1.4118
 -1.4100  -1.3653  -1.2390  -1.2099  -1.1784  -1.1436  -1.1004  -1.0509
 -1.0470  -1.0300  -1.0082  -1.0001  -0.9712  -0.9602  -0.9499  -0.9405
 -0.8952  -0.8710  -0.8636  -0.8123  -0.7948  -0.7860  -0.7763  -0.7664
 -0.7649  -0.7337  -0.7212  -0.7165  -0.6977  -0.6948  -0.6841  -0.6775
 -0.6716  -0.6711  -0.6569  -0.6495  -0.6385  -0.6294  -0.6226  -0.6160
 -0.6110  -0.6047  -0.5967  -0.5919  -0.5780  -0.5677  -0.5645  -0.5595
 -0.5487  -0.5339  -0.5284  -0.5212  -0.5138  -0.5089  -0.5044  -0.5003
 -0.4845  -0.4826  -0.4797  -0.4665  -0.4622  -0.4603  -0.4589  -0.4486
 -0.4299  -0.4011  -0.3845  -0.3731  -0.3512  -0.2939  -0.2834  -0.2189

          Ground-State Mulliken Net Atomic Charges

     Atom                 Charge (a.u.)
  ----------------------------------------
      1 C                    -0.071183
      2 C                    -0.241481
      3 S                    -0.129564
      4 C                    -0.053118
      5 H                     0.196070
      6 C                    -0.045725
      7 C                     0.215784
      8 C                     0.233250
      9 C                    -0.079310
     10 C                    -0.007545
     11 O                    -0.334121
     12 O                    -0.343719
     13 C                    -0.082721
     14 H                     0.120179
     15 H                     0.091885
     16 H                     0.093239
     17 C                    -0.090332
     18 H                     0.124680
     19 H                     0.092435
     20 H                     0.093562
     21 C                    -0.347274
     22 S                    -0.090406
     23 C                     0.140748
     24 H                     0.198473
     25 C                     0.027608
     26 S                     0.080987
     27 C                    -0.265692
     28 C                    -0.171220
     29 C                    -0.008939
     30 C                     0.373952
     31 C                    -0.146771
     32 S                     0.031872
     33 C                     0.459422
     34 O                    -0.454811
     35 O                    -0.298740
     36 F                    -0.206637
     37 C                    -0.054978
     38 H                     0.116359
     39 H                     0.084259
     40 H                     0.083829
     41 H                     0.213642
     42 H                     0.119967
     43 H                     0.117803
     44 H                     0.214280
  ----------------------------------------
  Sum of atomic charges =     0.000000

                    Cartesian Multipole Moments
 -----------------------------------------------------------------
    Charge (ESU x 10^10)
                 0.0000
    Dipole Moment (Debye)
         X       1.6527      Y       1.1513      Z       3.1492
       Tot       3.7382
    Quadrupole Moments (Debye-Ang)
        XX    -192.5884     XY       3.1465     YY    -167.6014
        XZ     -12.6711     YZ      -4.9725     ZZ    -196.0478

 Total job time:  332.09s(wall), 10651.14s(cpu)
        *  Thank you very much for using Q-Chem.  Have a nice day.  *
