 Q-Chem 5.4, Q-Chem, Inc., Pleasanton, CA (2021)
 Q-Chem 5.4.0 for Intel X86 EM64T Linux

User input:
--------------------------------------------------------------
$molecule
0 1
C	0.175432	-8.519741	-0.208002
C	-0.352097	-7.635967	0.722164
S	0.936458	-7.651740	-1.563424
C	-0.160388	-6.261894	0.386833
H	-0.870905	-7.954738	1.635031
C	0.553685	-6.079985	-0.849637
C	0.816372	-4.798382	-1.357938
C	-0.627524	-5.153542	1.149702
C	-0.368399	-3.869626	0.638941
C	0.348912	-3.688927	-0.597409
O	-1.262667	-5.481075	2.309260
O	1.453338	-4.479871	-2.523296
C	2.449320	-5.356026	-3.036927
H	2.982577	-4.790496	-3.824632
H	2.011155	-6.268513	-3.497250
H	3.173591	-5.658187	-2.249807
C	-2.130793	-4.546999	2.939226
H	-2.663289	-5.107564	3.730721
H	-2.873906	-4.131473	2.225196
H	-1.572045	-3.712085	3.415077
C	0.536849	-2.314326	-0.930765
S	-0.763041	-2.295487	1.347913
C	-0.000000	-1.435180	-0.000000
H	1.057554	-1.993211	-1.841645
C	0.000000	0.000000	0.000000
S	0.158383	0.885376	1.510732
C	0.430876	2.436951	0.727629
C	0.157682	0.894430	-1.064665
C	0.397351	2.262384	-0.678287
C	0.147783	0.828765	-2.486150
C	0.367291	2.074406	-3.106916
S	0.580633	3.303533	-1.965735
C	0.416083	2.324204	-4.559972
O	0.256921	1.404367	-5.350277
O	0.642094	3.587338	-5.004375
F	-0.041828	-0.269113	-3.246290
C	0.714377	3.938827	-6.334976
H	0.906844	5.026898	-6.370268
H	-0.230661	3.710099	-6.875609
H	1.531918	3.398681	-6.861878
H	0.590699	3.342984	1.321510
H	-0.608584	-9.146471	-0.648918
H	0.953830	-9.150570	0.237003
H	-0.939477	-1.444158	-0.532637
$end

$rem
JOBTYPE		SP
EXCHANGE	HF
CORRELATION	pRIMP2
BASIS		cc-pvtz
METHOD		rimp2
AUX_BASIS	rimp2-cc-pvtz
SOLVENT_METHOD	PCM
PURECART	11111
SYMMETRY	false
MEM_TOTAL	110000
SCF_CONVERGENCE = 6
THRESH=10
GUI = 2
$end

$solvent
dielectric 4.90
$end
--------------------------------------------------------------

             Standard Nuclear Orientation (Angstroms)
    I     Atom           X                Y                Z
 ----------------------------------------------------------------
    1      C       0.1754320000    -8.5197410000    -0.2080020000
    2      C      -0.3520970000    -7.6359670000     0.7221640000
    3      S       0.9364580000    -7.6517400000    -1.5634240000
    4      C      -0.1603880000    -6.2618940000     0.3868330000
    5      H      -0.8709050000    -7.9547380000     1.6350310000
    6      C       0.5536850000    -6.0799850000    -0.8496370000
    7      C       0.8163720000    -4.7983820000    -1.3579380000
    8      C      -0.6275240000    -5.1535420000     1.1497020000
    9      C      -0.3683990000    -3.8696260000     0.6389410000
   10      C       0.3489120000    -3.6889270000    -0.5974090000
   11      O      -1.2626670000    -5.4810750000     2.3092600000
   12      O       1.4533380000    -4.4798710000    -2.5232960000
   13      C       2.4493200000    -5.3560260000    -3.0369270000
   14      H       2.9825770000    -4.7904960000    -3.8246320000
   15      H       2.0111550000    -6.2685130000    -3.4972500000
   16      H       3.1735910000    -5.6581870000    -2.2498070000
   17      C      -2.1307930000    -4.5469990000     2.9392260000
   18      H      -2.6632890000    -5.1075640000     3.7307210000
   19      H      -2.8739060000    -4.1314730000     2.2251960000
   20      H      -1.5720450000    -3.7120850000     3.4150770000
   21      C       0.5368490000    -2.3143260000    -0.9307650000
   22      S      -0.7630410000    -2.2954870000     1.3479130000
   23      C       0.0000000000    -1.4351800000     0.0000000000
   24      H       1.0575540000    -1.9932110000    -1.8416450000
   25      C       0.0000000000     0.0000000000     0.0000000000
   26      S       0.1583830000     0.8853760000     1.5107320000
   27      C       0.4308760000     2.4369510000     0.7276290000
   28      C       0.1576820000     0.8944300000    -1.0646650000
   29      C       0.3973510000     2.2623840000    -0.6782870000
   30      C       0.1477830000     0.8287650000    -2.4861500000
   31      C       0.3672910000     2.0744060000    -3.1069160000
   32      S       0.5806330000     3.3035330000    -1.9657350000
   33      C       0.4160830000     2.3242040000    -4.5599720000
   34      O       0.2569210000     1.4043670000    -5.3502770000
   35      O       0.6420940000     3.5873380000    -5.0043750000
   36      F      -0.0418280000    -0.2691130000    -3.2462900000
   37      C       0.7143770000     3.9388270000    -6.3349760000
   38      H       0.9068440000     5.0268980000    -6.3702680000
   39      H      -0.2306610000     3.7100990000    -6.8756090000
   40      H       1.5319180000     3.3986810000    -6.8618780000
   41      H       0.5906990000     3.3429840000     1.3215100000
   42      H      -0.6085840000    -9.1464710000    -0.6489180000
   43      H       0.9538300000    -9.1505700000     0.2370030000
   44      H      -0.9394770000    -1.4441580000    -0.5326370000
 ----------------------------------------------------------------

   11   -2755.3255893857      7.15e-07  Convergence criterion met
 Total energy in the final basis set =    -2755.3255893857
        RIMP2         total energy =     -2760.4173101721 a.u.

                    Orbital Energies (a.u.)
 --------------------------------------------------------------

 Alpha MOs
 -- Occupied --
-92.0151 -91.9937 -91.9828 -91.9595 -26.3387 -20.6114 -20.5894 -20.5873
-20.5485 -11.4091 -11.3795 -11.3234 -11.3114 -11.3099 -11.2975 -11.2940
-11.2883 -11.2864 -11.2861 -11.2854 -11.2854 -11.2825 -11.2787 -11.2748
-11.2730 -11.2611 -11.2599 -11.2512 -11.2408  -9.0135  -8.9978  -8.9849
 -8.9621  -6.6943  -6.6937  -6.6932  -6.6791  -6.6784  -6.6770  -6.6661
 -6.6652  -6.6639  -6.6433  -6.6424  -6.6414  -1.6521  -1.4710  -1.4127
 -1.4092  -1.3662  -1.2385  -1.2108  -1.1773  -1.1435  -1.1013  -1.0508
 -1.0482  -1.0285  -1.0104  -1.0002  -0.9716  -0.9603  -0.9501  -0.9411
 -0.8958  -0.8738  -0.8628  -0.8091  -0.7957  -0.7874  -0.7766  -0.7720
 -0.7626  -0.7347  -0.7210  -0.7191  -0.6990  -0.6946  -0.6856  -0.6782
 -0.6748  -0.6719  -0.6574  -0.6493  -0.6387  -0.6293  -0.6215  -0.6157
 -0.6103  -0.6055  -0.5954  -0.5923  -0.5800  -0.5700  -0.5601  -0.5526
 -0.5473  -0.5366  -0.5309  -0.5231  -0.5140  -0.5089  -0.5063  -0.5024
 -0.4855  -0.4843  -0.4787  -0.4700  -0.4633  -0.4609  -0.4595  -0.4481
 -0.4313  -0.3990  -0.3878  -0.3718  -0.3509  -0.2940  -0.2856  -0.2193

          Ground-State Mulliken Net Atomic Charges

     Atom                 Charge (a.u.)
  ----------------------------------------
      1 C                    -0.070910
      2 C                    -0.249320
      3 S                    -0.131521
      4 C                    -0.050167
      5 H                     0.194692
      6 C                    -0.051004
      7 C                     0.221739
      8 C                     0.236338
      9 C                    -0.078360
     10 C                    -0.031843
     11 O                    -0.333831
     12 O                    -0.342282
     13 C                    -0.083023
     14 H                     0.121080
     15 H                     0.092213
     16 H                     0.092547
     17 C                    -0.087750
     18 H                     0.124703
     19 H                     0.093559
     20 H                     0.090288
     21 C                    -0.320798
     22 S                    -0.088289
     23 C                     0.137020
     24 H                     0.202830
     25 C                    -0.086674
     26 S                     0.097880
     27 C                    -0.266799
     28 C                    -0.081780
     29 C                    -0.004064
     30 C                     0.394803
     31 C                    -0.151714
     32 S                     0.033218
     33 C                     0.463566
     34 O                    -0.454392
     35 O                    -0.298440
     36 F                    -0.216328
     37 C                    -0.055091
     38 H                     0.116489
     39 H                     0.084308
     40 H                     0.084183
     41 H                     0.213551
     42 H                     0.118940
     43 H                     0.116515
     44 H                     0.203915
  ----------------------------------------
  Sum of atomic charges =     0.000000

                    Cartesian Multipole Moments
 -----------------------------------------------------------------
    Charge (ESU x 10^10)
                 0.0000
    Dipole Moment (Debye)
         X      -0.1846      Y       1.9283      Z       3.2988
       Tot       3.8255
    Quadrupole Moments (Debye-Ang)
        XX    -190.4323     XY       4.7661     YY    -169.4723
        XZ     -11.3299     YZ     -13.8650     ZZ    -199.3100

 Total job time:  330.94s(wall), 10472.44s(cpu)
        *  Thank you very much for using Q-Chem.  Have a nice day.  *
