 Q-Chem 5.4, Q-Chem, Inc., Pleasanton, CA (2021)
 Q-Chem 5.4.0 for Intel X86 EM64T Linux

User input:
--------------------------------------------------------------
$molecule
0 1
C	-0.093711	-8.519741	0.255459
C	0.083869	-7.635967	-0.799036
S	-0.345260	-7.651740	1.789425
C	0.018411	-6.261894	-0.418360
H	0.259169	-7.954738	-1.834294
C	-0.229701	-6.079985	0.987769
C	-0.302697	-4.798382	1.555260
C	0.196459	-5.153542	-1.294992
C	0.127651	-3.869626	-0.726408
C	-0.123544	-3.688927	0.680716
O	0.396706	-5.481075	-2.601852
O	-0.502673	-4.479871	2.868193
C	-1.262918	-5.356026	3.691495
H	-1.494604	-4.790496	4.614080
H	-0.693738	-6.268513	3.974195
H	-2.212720	-5.658187	3.199559
C	0.997016	-4.546999	-3.490743
H	1.226691	-5.107564	-4.416630
H	1.939526	-4.131473	-3.073934
H	0.309214	-3.712085	-3.746794
C	-0.186133	-2.314326	1.058247
S	0.256010	-2.295487	-1.527599
C	0.000000	-1.435180	0.000000
H	-0.363896	-1.993211	2.092285
C	0.000000	0.000000	0.000000
S	0.234946	0.868203	1.510732
C	0.641630	2.390125	0.727629
C	0.235036	0.877284	-1.064665
C	0.593019	2.219143	-0.678287
C	0.219452	0.812732	-2.486150
C	0.546689	2.034501	-3.106916
S	0.866345	3.240357	-1.965735
C	0.617067	2.279095	-4.559972
O	0.378342	1.376631	-5.350277
O	0.952308	3.517725	-5.004375
F	-0.065123	-0.264443	-3.246290
C	1.054950	3.861577	-6.334976
H	1.341516	4.928732	-6.370268
H	0.093573	3.716085	-6.875609
H	1.822303	3.252232	-6.861878
H	0.879812	3.278780	1.321510
H	0.793825	-9.146471	0.401636
H	-0.977367	-9.150570	0.103519
H	1.064992	-1.444158	0.179195
$end

$rem
JOBTYPE		SP
EXCHANGE	HF
CORRELATION	pRIMP2
BASIS		cc-pvtz
METHOD		rimp2
AUX_BASIS	rimp2-cc-pvtz
SOLVENT_METHOD	PCM
PURECART	11111
SYMMETRY	false
MEM_TOTAL	110000
SCF_CONVERGENCE = 6
THRESH=10
GUI = 2
$end

$solvent
dielectric 4.90
$end
--------------------------------------------------------------

             Standard Nuclear Orientation (Angstroms)
    I     Atom           X                Y                Z
 ----------------------------------------------------------------
    1      C      -0.0937110000    -8.5197410000     0.2554590000
    2      C       0.0838690000    -7.6359670000    -0.7990360000
    3      S      -0.3452600000    -7.6517400000     1.7894250000
    4      C       0.0184110000    -6.2618940000    -0.4183600000
    5      H       0.2591690000    -7.9547380000    -1.8342940000
    6      C      -0.2297010000    -6.0799850000     0.9877690000
    7      C      -0.3026970000    -4.7983820000     1.5552600000
    8      C       0.1964590000    -5.1535420000    -1.2949920000
    9      C       0.1276510000    -3.8696260000    -0.7264080000
   10      C      -0.1235440000    -3.6889270000     0.6807160000
   11      O       0.3967060000    -5.4810750000    -2.6018520000
   12      O      -0.5026730000    -4.4798710000     2.8681930000
   13      C      -1.2629180000    -5.3560260000     3.6914950000
   14      H      -1.4946040000    -4.7904960000     4.6140800000
   15      H      -0.6937380000    -6.2685130000     3.9741950000
   16      H      -2.2127200000    -5.6581870000     3.1995590000
   17      C       0.9970160000    -4.5469990000    -3.4907430000
   18      H       1.2266910000    -5.1075640000    -4.4166300000
   19      H       1.9395260000    -4.1314730000    -3.0739340000
   20      H       0.3092140000    -3.7120850000    -3.7467940000
   21      C      -0.1861330000    -2.3143260000     1.0582470000
   22      S       0.2560100000    -2.2954870000    -1.5275990000
   23      C       0.0000000000    -1.4351800000     0.0000000000
   24      H      -0.3638960000    -1.9932110000     2.0922850000
   25      C       0.0000000000     0.0000000000     0.0000000000
   26      S       0.2349460000     0.8682030000     1.5107320000
   27      C       0.6416300000     2.3901250000     0.7276290000
   28      C       0.2350360000     0.8772840000    -1.0646650000
   29      C       0.5930190000     2.2191430000    -0.6782870000
   30      C       0.2194520000     0.8127320000    -2.4861500000
   31      C       0.5466890000     2.0345010000    -3.1069160000
   32      S       0.8663450000     3.2403570000    -1.9657350000
   33      C       0.6170670000     2.2790950000    -4.5599720000
   34      O       0.3783420000     1.3766310000    -5.3502770000
   35      O       0.9523080000     3.5177250000    -5.0043750000
   36      F      -0.0651230000    -0.2644430000    -3.2462900000
   37      C       1.0549500000     3.8615770000    -6.3349760000
   38      H       1.3415160000     4.9287320000    -6.3702680000
   39      H       0.0935730000     3.7160850000    -6.8756090000
   40      H       1.8223030000     3.2522320000    -6.8618780000
   41      H       0.8798120000     3.2787800000     1.3215100000
   42      H       0.7938250000    -9.1464710000     0.4016360000
   43      H      -0.9773670000    -9.1505700000     0.1035190000
   44      H       1.0649920000    -1.4441580000     0.1791950000
 ----------------------------------------------------------------

   11   -2755.3196518621      6.84e-07  Convergence criterion met
 Total energy in the final basis set =    -2755.3196518621
        RIMP2         total energy =     -2760.4115973314 a.u.

                    Orbital Energies (a.u.)
 --------------------------------------------------------------

 Alpha MOs
 -- Occupied --
-92.0121 -91.9910 -91.9762 -91.9613 -26.3352 -20.6104 -20.5888 -20.5883
-20.5467 -11.4076 -11.3792 -11.3265 -11.3116 -11.3100 -11.2961 -11.2909
-11.2877 -11.2875 -11.2843 -11.2838 -11.2824 -11.2823 -11.2774 -11.2758
-11.2707 -11.2638 -11.2605 -11.2528 -11.2443  -9.0109  -8.9953  -8.9789
 -8.9639  -6.6918  -6.6912  -6.6906  -6.6766  -6.6759  -6.6745  -6.6598
 -6.6590  -6.6575  -6.6451  -6.6442  -6.6432  -1.6508  -1.4699  -1.4121
 -1.4102  -1.3648  -1.2383  -1.2101  -1.1787  -1.1433  -1.1008  -1.0507
 -1.0473  -1.0294  -1.0084  -1.0006  -0.9711  -0.9602  -0.9500  -0.9403
 -0.8954  -0.8716  -0.8637  -0.8130  -0.7957  -0.7863  -0.7764  -0.7664
 -0.7634  -0.7340  -0.7214  -0.7175  -0.6981  -0.6955  -0.6843  -0.6772
 -0.6724  -0.6715  -0.6570  -0.6496  -0.6384  -0.6299  -0.6230  -0.6161
 -0.6110  -0.6042  -0.5971  -0.5912  -0.5773  -0.5684  -0.5647  -0.5596
 -0.5490  -0.5336  -0.5288  -0.5211  -0.5138  -0.5091  -0.5047  -0.4998
 -0.4841  -0.4820  -0.4801  -0.4664  -0.4610  -0.4601  -0.4583  -0.4488
 -0.4311  -0.4006  -0.3851  -0.3733  -0.3510  -0.2936  -0.2831  -0.2194

          Ground-State Mulliken Net Atomic Charges

     Atom                 Charge (a.u.)
  ----------------------------------------
      1 C                    -0.071333
      2 C                    -0.237920
      3 S                    -0.128765
      4 C                    -0.053959
      5 H                     0.196551
      6 C                    -0.045775
      7 C                     0.216856
      8 C                     0.236525
      9 C                    -0.079223
     10 C                    -0.010807
     11 O                    -0.333994
     12 O                    -0.343882
     13 C                    -0.082731
     14 H                     0.120241
     15 H                     0.091980
     16 H                     0.093151
     17 C                    -0.090083
     18 H                     0.124934
     19 H                     0.092760
     20 H                     0.093604
     21 C                    -0.350383
     22 S                    -0.093655
     23 C                     0.144321
     24 H                     0.196688
     25 C                     0.024545
     26 S                     0.078159
     27 C                    -0.272605
     28 C                    -0.159125
     29 C                    -0.014924
     30 C                     0.379935
     31 C                    -0.145862
     32 S                     0.029696
     33 C                     0.460038
     34 O                    -0.456441
     35 O                    -0.298833
     36 F                    -0.208021
     37 C                    -0.055090
     38 H                     0.116289
     39 H                     0.084095
     40 H                     0.083729
     41 H                     0.213681
     42 H                     0.120428
     43 H                     0.118269
     44 H                     0.216937
  ----------------------------------------
  Sum of atomic charges =     0.000000

                    Cartesian Multipole Moments
 -----------------------------------------------------------------
    Charge (ESU x 10^10)
                 0.0000
    Dipole Moment (Debye)
         X       1.3701      Y       0.8525      Z       3.0526
       Tot       3.4529
    Quadrupole Moments (Debye-Ang)
        XX    -196.3538     XY       2.7643     YY    -165.6220
        XZ     -10.5028     YZ      -4.7605     ZZ    -193.3002

 Total job time:  327.92s(wall), 10561.60s(cpu)
        *  Thank you very much for using Q-Chem.  Have a nice day.  *
