 Q-Chem 5.4, Q-Chem, Inc., Pleasanton, CA (2021)
 Q-Chem 5.4.0 for Intel X86 EM64T Linux

User input:
--------------------------------------------------------------
$molecule
0 1
C	0.208886	-8.519741	-0.174379
C	-0.472151	-7.635967	0.650052
S	1.193717	-7.651740	-1.377058
C	-0.225125	-6.261894	0.353105
H	-1.141594	-7.954738	1.458961
C	0.692811	-6.079985	-0.740583
C	1.039773	-4.798382	-1.195546
C	-0.817634	-5.153542	1.023267
C	-0.473754	-3.869626	0.565262
C	0.447350	-3.688927	-0.527745
O	-1.644483	-5.481075	2.054917
O	1.869424	-4.479871	-2.232592
C	2.939466	-5.356026	-2.565470
H	3.601405	-4.790496	-3.248608
H	2.587892	-6.268513	-3.094885
H	3.516052	-5.658187	-1.664539
C	-2.608813	-4.546999	2.524564
H	-3.270661	-5.107564	3.211568
H	-3.216646	-4.131473	1.692342
H	-2.141184	-3.712085	3.090211
C	0.690319	-2.314326	-0.823402
S	-0.985511	-2.295487	1.194935
C	-0.000000	-1.435180	-0.000000
H	1.361286	-1.993211	-1.630024
C	0.000000	0.000000	0.000000
S	0.382139	0.814215	1.510732
C	1.046923	2.242395	0.727629
C	0.383804	0.823142	-1.064665
C	0.969360	2.082453	-0.678287
C	0.357247	0.762277	-2.486150
C	0.891671	1.908660	-3.106916
S	1.415865	3.040689	-1.965735
C	1.003453	2.137318	-4.559972
O	0.611644	1.290019	-5.350277
O	1.548687	3.298916	-5.004375
F	-0.110054	-0.249117	-3.246290
C	1.709479	3.619721	-6.334976
H	2.177001	4.620902	-6.370268
H	0.737443	3.643380	-6.875609
H	2.359363	2.886384	-6.861878
H	1.435800	3.076190	1.321510
H	-0.486655	-9.146471	-0.744739
H	0.898184	-9.150570	0.399033
H	-0.832713	-1.444158	-0.687683
$end

$rem
JOBTYPE		SP
EXCHANGE	HF
CORRELATION	pRIMP2
BASIS		cc-pvtz
METHOD		rimp2
AUX_BASIS	rimp2-cc-pvtz
SOLVENT_METHOD	PCM
PURECART	11111
SYMMETRY	false
MEM_TOTAL	110000
SCF_CONVERGENCE = 6
THRESH=10
GUI = 2
$end

$solvent
dielectric 4.90
$end
--------------------------------------------------------------

             Standard Nuclear Orientation (Angstroms)
    I     Atom           X                Y                Z
 ----------------------------------------------------------------
    1      C       0.2088860000    -8.5197410000    -0.1743790000
    2      C      -0.4721510000    -7.6359670000     0.6500520000
    3      S       1.1937170000    -7.6517400000    -1.3770580000
    4      C      -0.2251250000    -6.2618940000     0.3531050000
    5      H      -1.1415940000    -7.9547380000     1.4589610000
    6      C       0.6928110000    -6.0799850000    -0.7405830000
    7      C       1.0397730000    -4.7983820000    -1.1955460000
    8      C      -0.8176340000    -5.1535420000     1.0232670000
    9      C      -0.4737540000    -3.8696260000     0.5652620000
   10      C       0.4473500000    -3.6889270000    -0.5277450000
   11      O      -1.6444830000    -5.4810750000     2.0549170000
   12      O       1.8694240000    -4.4798710000    -2.2325920000
   13      C       2.9394660000    -5.3560260000    -2.5654700000
   14      H       3.6014050000    -4.7904960000    -3.2486080000
   15      H       2.5878920000    -6.2685130000    -3.0948850000
   16      H       3.5160520000    -5.6581870000    -1.6645390000
   17      C      -2.6088130000    -4.5469990000     2.5245640000
   18      H      -3.2706610000    -5.1075640000     3.2115680000
   19      H      -3.2166460000    -4.1314730000     1.6923420000
   20      H      -2.1411840000    -3.7120850000     3.0902110000
   21      C       0.6903190000    -2.3143260000    -0.8234020000
   22      S      -0.9855110000    -2.2954870000     1.1949350000
   23      C       0.0000000000    -1.4351800000     0.0000000000
   24      H       1.3612860000    -1.9932110000    -1.6300240000
   25      C       0.0000000000     0.0000000000     0.0000000000
   26      S       0.3821390000     0.8142150000     1.5107320000
   27      C       1.0469230000     2.2423950000     0.7276290000
   28      C       0.3838040000     0.8231420000    -1.0646650000
   29      C       0.9693600000     2.0824530000    -0.6782870000
   30      C       0.3572470000     0.7622770000    -2.4861500000
   31      C       0.8916710000     1.9086600000    -3.1069160000
   32      S       1.4158650000     3.0406890000    -1.9657350000
   33      C       1.0034530000     2.1373180000    -4.5599720000
   34      O       0.6116440000     1.2900190000    -5.3502770000
   35      O       1.5486870000     3.2989160000    -5.0043750000
   36      F      -0.1100540000    -0.2491170000    -3.2462900000
   37      C       1.7094790000     3.6197210000    -6.3349760000
   38      H       2.1770010000     4.6209020000    -6.3702680000
   39      H       0.7374430000     3.6433800000    -6.8756090000
   40      H       2.3593630000     2.8863840000    -6.8618780000
   41      H       1.4358000000     3.0761900000     1.3215100000
   42      H      -0.4866550000    -9.1464710000    -0.7447390000
   43      H       0.8981840000    -9.1505700000     0.3990330000
   44      H      -0.8327130000    -1.4441580000    -0.6876830000
 ----------------------------------------------------------------

   11   -2755.3160243882      7.38e-07  Convergence criterion met
 Total energy in the final basis set =    -2755.3160243882
        RIMP2         total energy =     -2760.4120956054 a.u.

                    Orbital Energies (a.u.)
 --------------------------------------------------------------

 Alpha MOs
 -- Occupied --
-92.0137 -91.9965 -91.9804 -91.9585 -26.3384 -20.6128 -20.5880 -20.5870
-20.5508 -11.4112 -11.3794 -11.3142 -11.3094 -11.3090 -11.2986 -11.2986
-11.2939 -11.2890 -11.2852 -11.2843 -11.2837 -11.2827 -11.2825 -11.2739
-11.2733 -11.2591 -11.2587 -11.2500 -11.2381  -9.0123  -9.0005  -8.9826
 -8.9611  -6.6931  -6.6924  -6.6920  -6.6817  -6.6811  -6.6797  -6.6637
 -6.6628  -6.6616  -6.6423  -6.6414  -6.6403  -1.6515  -1.4725  -1.4113
 -1.4089  -1.3679  -1.2399  -1.2097  -1.1760  -1.1440  -1.1003  -1.0520
 -1.0469  -1.0295  -1.0094  -0.9990  -0.9725  -0.9600  -0.9493  -0.9413
 -0.8946  -0.8742  -0.8623  -0.8082  -0.7956  -0.7864  -0.7779  -0.7727
 -0.7621  -0.7340  -0.7209  -0.7186  -0.6984  -0.6934  -0.6861  -0.6793
 -0.6749  -0.6729  -0.6565  -0.6488  -0.6373  -0.6279  -0.6204  -0.6150
 -0.6112  -0.6071  -0.5961  -0.5943  -0.5810  -0.5687  -0.5590  -0.5544
 -0.5450  -0.5349  -0.5302  -0.5232  -0.5131  -0.5080  -0.5056  -0.5022
 -0.4865  -0.4845  -0.4763  -0.4699  -0.4622  -0.4615  -0.4612  -0.4468
 -0.4282  -0.3997  -0.3864  -0.3706  -0.3509  -0.2940  -0.2874  -0.2184

          Ground-State Mulliken Net Atomic Charges

     Atom                 Charge (a.u.)
  ----------------------------------------
      1 C                    -0.070447
      2 C                    -0.257011
      3 S                    -0.134299
      4 C                    -0.048195
      5 H                     0.193779
      6 C                    -0.052435
      7 C                     0.222342
      8 C                     0.233558
      9 C                    -0.075835
     10 C                    -0.034093
     11 O                    -0.334432
     12 O                    -0.342765
     13 C                    -0.082778
     14 H                     0.120534
     15 H                     0.092211
     16 H                     0.092536
     17 C                    -0.087324
     18 H                     0.124293
     19 H                     0.093127
     20 H                     0.089916
     21 C                    -0.309881
     22 S                    -0.084865
     23 C                     0.107629
     24 H                     0.205133
     25 C                    -0.064015
     26 S                     0.107371
     27 C                    -0.241106
     28 C                    -0.111518
     29 C                    -0.005109
     30 C                     0.376072
     31 C                    -0.145157
     32 S                     0.043194
     33 C                     0.461222
     34 O                    -0.450197
     35 O                    -0.298046
     36 F                    -0.214981
     37 C                    -0.054894
     38 H                     0.116796
     39 H                     0.084705
     40 H                     0.084598
     41 H                     0.214115
     42 H                     0.117878
     43 H                     0.115467
     44 H                     0.202906
  ----------------------------------------
  Sum of atomic charges =     0.000000

                    Cartesian Multipole Moments
 -----------------------------------------------------------------
    Charge (ESU x 10^10)
                 0.0000
    Dipole Moment (Debye)
         X       0.9149      Y       2.8574      Z       2.9107
       Tot       4.1802
    Quadrupole Moments (Debye-Ang)
        XX    -184.9258     XY       8.7583     YY    -174.9401
        XZ     -13.1370     YZ     -12.9633     ZZ    -201.4183

 Total job time:  337.19s(wall), 10412.78s(cpu)
        *  Thank you very much for using Q-Chem.  Have a nice day.  *
