 Q-Chem 5.4, Q-Chem, Inc., Pleasanton, CA (2021)
 Q-Chem 5.4.0 for Intel X86 EM64T Linux

User input:
--------------------------------------------------------------
$molecule
0 1
C	-0.208886	-8.519741	0.174379
C	0.472151	-7.635967	-0.650052
S	-1.193717	-7.651740	1.377058
C	0.225125	-6.261894	-0.353105
H	1.141594	-7.954738	-1.458961
C	-0.692811	-6.079985	0.740583
C	-1.039773	-4.798382	1.195546
C	0.817634	-5.153542	-1.023267
C	0.473754	-3.869626	-0.565262
C	-0.447350	-3.688927	0.527745
O	1.644483	-5.481075	-2.054917
O	-1.869424	-4.479871	2.232592
C	-2.939466	-5.356026	2.565470
H	-3.601405	-4.790496	3.248608
H	-2.587892	-6.268513	3.094885
H	-3.516052	-5.658187	1.664539
C	2.608813	-4.546999	-2.524564
H	3.270661	-5.107564	-3.211568
H	3.216646	-4.131473	-1.692342
H	2.141184	-3.712085	-3.090211
C	-0.690319	-2.314326	0.823402
S	0.985511	-2.295487	-1.194935
C	-0.000000	-1.435180	-0.000000
H	-1.361286	-1.993211	1.630024
C	0.000000	0.000000	0.000000
S	0.690437	0.576430	1.510732
C	1.896512	1.589852	0.727629
C	0.695720	0.583817	-1.064665
C	1.758621	1.477674	-0.678287
C	0.645928	0.539878	-2.486150
C	1.614763	1.352997	-3.106916
S	2.568261	2.157430	-1.965735
C	1.812707	1.512991	-4.559972
O	1.099523	0.910662	-5.350277
O	2.797769	2.335330	-5.004375
F	-0.205024	-0.179266	-3.246290
C	3.079074	2.558124	-6.334976
H	3.925910	3.267919	-6.370268
H	2.208109	2.990367	-6.875609
H	3.358147	1.618843	-6.861878
H	2.601331	2.181180	1.321510
H	0.486655	-9.146471	0.744739
H	-0.898184	-9.150570	-0.399033
H	0.832713	-1.444158	0.687683
$end

$rem
JOBTYPE		SP
EXCHANGE	HF
CORRELATION	pRIMP2
BASIS		cc-pvtz
METHOD		rimp2
AUX_BASIS	rimp2-cc-pvtz
SOLVENT_METHOD	PCM
PURECART	11111
SYMMETRY	false
MEM_TOTAL	110000
SCF_CONVERGENCE = 6
THRESH=10
GUI = 2
$end

$solvent
dielectric 4.90
$end
--------------------------------------------------------------

             Standard Nuclear Orientation (Angstroms)
    I     Atom           X                Y                Z
 ----------------------------------------------------------------
    1      C      -0.2088860000    -8.5197410000     0.1743790000
    2      C       0.4721510000    -7.6359670000    -0.6500520000
    3      S      -1.1937170000    -7.6517400000     1.3770580000
    4      C       0.2251250000    -6.2618940000    -0.3531050000
    5      H       1.1415940000    -7.9547380000    -1.4589610000
    6      C      -0.6928110000    -6.0799850000     0.7405830000
    7      C      -1.0397730000    -4.7983820000     1.1955460000
    8      C       0.8176340000    -5.1535420000    -1.0232670000
    9      C       0.4737540000    -3.8696260000    -0.5652620000
   10      C      -0.4473500000    -3.6889270000     0.5277450000
   11      O       1.6444830000    -5.4810750000    -2.0549170000
   12      O      -1.8694240000    -4.4798710000     2.2325920000
   13      C      -2.9394660000    -5.3560260000     2.5654700000
   14      H      -3.6014050000    -4.7904960000     3.2486080000
   15      H      -2.5878920000    -6.2685130000     3.0948850000
   16      H      -3.5160520000    -5.6581870000     1.6645390000
   17      C       2.6088130000    -4.5469990000    -2.5245640000
   18      H       3.2706610000    -5.1075640000    -3.2115680000
   19      H       3.2166460000    -4.1314730000    -1.6923420000
   20      H       2.1411840000    -3.7120850000    -3.0902110000
   21      C      -0.6903190000    -2.3143260000     0.8234020000
   22      S       0.9855110000    -2.2954870000    -1.1949350000
   23      C       0.0000000000    -1.4351800000     0.0000000000
   24      H      -1.3612860000    -1.9932110000     1.6300240000
   25      C       0.0000000000     0.0000000000     0.0000000000
   26      S       0.6904370000     0.5764300000     1.5107320000
   27      C       1.8965120000     1.5898520000     0.7276290000
   28      C       0.6957200000     0.5838170000    -1.0646650000
   29      C       1.7586210000     1.4776740000    -0.6782870000
   30      C       0.6459280000     0.5398780000    -2.4861500000
   31      C       1.6147630000     1.3529970000    -3.1069160000
   32      S       2.5682610000     2.1574300000    -1.9657350000
   33      C       1.8127070000     1.5129910000    -4.5599720000
   34      O       1.0995230000     0.9106620000    -5.3502770000
   35      O       2.7977690000     2.3353300000    -5.0043750000
   36      F      -0.2050240000    -0.1792660000    -3.2462900000
   37      C       3.0790740000     2.5581240000    -6.3349760000
   38      H       3.9259100000     3.2679190000    -6.3702680000
   39      H       2.2081090000     2.9903670000    -6.8756090000
   40      H       3.3581470000     1.6188430000    -6.8618780000
   41      H       2.6013310000     2.1811800000     1.3215100000
   42      H       0.4866550000    -9.1464710000     0.7447390000
   43      H      -0.8981840000    -9.1505700000    -0.3990330000
   44      H       0.8327130000    -1.4441580000     0.6876830000
 ----------------------------------------------------------------

   11   -2755.2712326113      7.89e-07  Convergence criterion met
 Total energy in the final basis set =    -2755.2712326113
        RIMP2         total energy =     -2760.3793374622 a.u.

                    Orbital Energies (a.u.)
 --------------------------------------------------------------

 Alpha MOs
 -- Occupied --
-92.0082 -91.9998 -91.9755 -91.9575 -26.3346 -20.6148 -20.5867 -20.5857
-20.5546 -11.4142 -11.3789 -11.3104 -11.3081 -11.3064 -11.3056 -11.2994
-11.2990 -11.2899 -11.2895 -11.2835 -11.2825 -11.2813 -11.2755 -11.2718
-11.2681 -11.2572 -11.2562 -11.2489 -11.2353  -9.0086  -9.0037  -8.9779
 -8.9601  -6.6893  -6.6884  -6.6881  -6.6849  -6.6843  -6.6830  -6.6589
 -6.6581  -6.6568  -6.6413  -6.6404  -6.6394  -1.6481  -1.4748  -1.4094
 -1.4082  -1.3706  -1.2478  -1.2080  -1.1761  -1.1466  -1.0975  -1.0547
 -1.0444  -1.0349  -1.0067  -0.9964  -0.9749  -0.9593  -0.9485  -0.9409
 -0.8926  -0.8745  -0.8590  -0.8119  -0.7953  -0.7853  -0.7764  -0.7701
 -0.7635  -0.7335  -0.7212  -0.7163  -0.6967  -0.6949  -0.6820  -0.6807
 -0.6752  -0.6695  -0.6553  -0.6479  -0.6371  -0.6272  -0.6192  -0.6146
 -0.6111  -0.6097  -0.6009  -0.5930  -0.5786  -0.5671  -0.5615  -0.5569
 -0.5452  -0.5335  -0.5305  -0.5215  -0.5124  -0.5071  -0.5046  -0.5007
 -0.4886  -0.4826  -0.4756  -0.4663  -0.4636  -0.4625  -0.4593  -0.4457
 -0.4245  -0.3992  -0.3834  -0.3712  -0.3511  -0.2969  -0.2852  -0.2142

          Ground-State Mulliken Net Atomic Charges

     Atom                 Charge (a.u.)
  ----------------------------------------
      1 C                    -0.069964
      2 C                    -0.264301
      3 S                    -0.137271
      4 C                    -0.047212
      5 H                     0.193028
      6 C                    -0.048283
      7 C                     0.215927
      8 C                     0.222532
      9 C                    -0.070085
     10 C                    -0.020554
     11 O                    -0.335021
     12 O                    -0.343504
     13 C                    -0.082597
     14 H                     0.119595
     15 H                     0.091781
     16 H                     0.093098
     17 C                    -0.089070
     18 H                     0.123721
     19 H                     0.091208
     20 H                     0.091617
     21 C                    -0.337794
     22 S                    -0.105948
     23 C                     0.127754
     24 H                     0.202360
     25 C                    -0.077669
     26 S                     0.082477
     27 C                    -0.186388
     28 C                    -0.097777
     29 C                    -0.019297
     30 C                     0.365346
     31 C                    -0.129779
     32 S                     0.054190
     33 C                     0.458941
     34 O                    -0.442477
     35 O                    -0.297146
     36 F                    -0.209188
     37 C                    -0.054640
     38 H                     0.117231
     39 H                     0.085428
     40 H                     0.085208
     41 H                     0.218019
     42 H                     0.116730
     43 H                     0.114666
     44 H                     0.195107
  ----------------------------------------
  Sum of atomic charges =     0.000000

                    Cartesian Multipole Moments
 -----------------------------------------------------------------
    Charge (ESU x 10^10)
                 0.0000
    Dipole Moment (Debye)
         X       4.0164      Y       3.1620      Z       2.9066
       Tot       5.8803
    Quadrupole Moments (Debye-Ang)
        XX    -177.3880     XY       6.6982     YY    -185.3156
        XZ     -17.3068     YZ      -4.6031     ZZ    -199.0228

 Total job time:  329.14s(wall), 10596.77s(cpu)
        *  Thank you very much for using Q-Chem.  Have a nice day.  *
