 Q-Chem 5.4, Q-Chem, Inc., Pleasanton, CA (2021)
 Q-Chem 5.4.0 for Intel X86 EM64T Linux

User input:
--------------------------------------------------------------
$molecule
0 1
C	-0.135457	-8.519741	-0.235993
C	0.558188	-7.635967	0.577858
S	-1.148850	-7.651740	-1.414705
C	0.308648	-6.261894	0.283020
H	1.238560	-7.954738	1.377597
C	-0.609026	-6.079985	-0.810887
C	-0.996828	-4.798382	-1.231581
C	0.865740	-5.153542	0.982901
C	0.474408	-3.869626	0.564713
C	-0.442046	-3.688927	-0.532196
O	1.738137	-5.481075	1.976332
O	-1.874052	-4.479871	-2.228709
C	-2.016062	-5.356026	-3.340298
H	-2.573877	-4.790496	-4.110807
H	-2.598484	-6.268513	-3.085998
H	-1.028695	-5.658187	-3.751679
C	2.033195	-4.546999	3.007565
H	2.594833	-5.107564	3.778655
H	1.108067	-4.131473	3.461650
H	2.671451	-3.712085	2.645264
C	-0.691020	-2.314326	-0.822814
S	1.005649	-2.295487	1.178037
C	0.000000	-1.435180	0.000000
H	-1.368875	-1.993211	-1.623656
C	0.000000	0.000000	0.000000
S	0.234946	0.868203	1.510732
C	0.641630	2.390125	0.727629
C	0.235036	0.877284	-1.064665
C	0.593019	2.219143	-0.678287
C	0.219452	0.812732	-2.486150
C	0.546689	2.034501	-3.106916
S	0.866345	3.240357	-1.965735
C	0.617067	2.279095	-4.559972
O	0.378342	1.376631	-5.350277
O	0.952308	3.517725	-5.004375
F	-0.065123	-0.264443	-3.246290
C	1.054950	3.861577	-6.334976
H	1.341516	4.928732	-6.370268
H	0.093573	3.716085	-6.875609
H	1.822303	3.252232	-6.861878
H	0.879812	3.278780	1.321510
H	-0.817932	-9.146471	0.349939
H	0.548939	-9.150570	-0.815247
H	-0.821835	-1.444158	0.700647
$end

$rem
JOBTYPE		SP
EXCHANGE	HF
CORRELATION	pRIMP2
BASIS		cc-pvtz
METHOD		rimp2
AUX_BASIS	rimp2-cc-pvtz
SOLVENT_METHOD	PCM
PURECART	11111
SYMMETRY	false
MEM_TOTAL	110000
SCF_CONVERGENCE = 6
THRESH=10
GUI = 2
$end

$solvent
dielectric 4.90
$end
--------------------------------------------------------------

             Standard Nuclear Orientation (Angstroms)
    I     Atom           X                Y                Z
 ----------------------------------------------------------------
    1      C      -0.1354570000    -8.5197410000    -0.2359930000
    2      C       0.5581880000    -7.6359670000     0.5778580000
    3      S      -1.1488500000    -7.6517400000    -1.4147050000
    4      C       0.3086480000    -6.2618940000     0.2830200000
    5      H       1.2385600000    -7.9547380000     1.3775970000
    6      C      -0.6090260000    -6.0799850000    -0.8108870000
    7      C      -0.9968280000    -4.7983820000    -1.2315810000
    8      C       0.8657400000    -5.1535420000     0.9829010000
    9      C       0.4744080000    -3.8696260000     0.5647130000
   10      C      -0.4420460000    -3.6889270000    -0.5321960000
   11      O       1.7381370000    -5.4810750000     1.9763320000
   12      O      -1.8740520000    -4.4798710000    -2.2287090000
   13      C      -2.0160620000    -5.3560260000    -3.3402980000
   14      H      -2.5738770000    -4.7904960000    -4.1108070000
   15      H      -2.5984840000    -6.2685130000    -3.0859980000
   16      H      -1.0286950000    -5.6581870000    -3.7516790000
   17      C       2.0331950000    -4.5469990000     3.0075650000
   18      H       2.5948330000    -5.1075640000     3.7786550000
   19      H       1.1080670000    -4.1314730000     3.4616500000
   20      H       2.6714510000    -3.7120850000     2.6452640000
   21      C      -0.6910200000    -2.3143260000    -0.8228140000
   22      S       1.0056490000    -2.2954870000     1.1780370000
   23      C       0.0000000000    -1.4351800000     0.0000000000
   24      H      -1.3688750000    -1.9932110000    -1.6236560000
   25      C       0.0000000000     0.0000000000     0.0000000000
   26      S       0.2349460000     0.8682030000     1.5107320000
   27      C       0.6416300000     2.3901250000     0.7276290000
   28      C       0.2350360000     0.8772840000    -1.0646650000
   29      C       0.5930190000     2.2191430000    -0.6782870000
   30      C       0.2194520000     0.8127320000    -2.4861500000
   31      C       0.5466890000     2.0345010000    -3.1069160000
   32      S       0.8663450000     3.2403570000    -1.9657350000
   33      C       0.6170670000     2.2790950000    -4.5599720000
   34      O       0.3783420000     1.3766310000    -5.3502770000
   35      O       0.9523080000     3.5177250000    -5.0043750000
   36      F      -0.0651230000    -0.2644430000    -3.2462900000
   37      C       1.0549500000     3.8615770000    -6.3349760000
   38      H       1.3415160000     4.9287320000    -6.3702680000
   39      H       0.0935730000     3.7160850000    -6.8756090000
   40      H       1.8223030000     3.2522320000    -6.8618780000
   41      H       0.8798120000     3.2787800000     1.3215100000
   42      H      -0.8179320000    -9.1464710000     0.3499390000
   43      H       0.5489390000    -9.1505700000    -0.8152470000
   44      H      -0.8218350000    -1.4441580000     0.7006470000
 ----------------------------------------------------------------

   11   -2755.3220165484      7.77e-07  Convergence criterion met
 Total energy in the final basis set =    -2755.3220165484
        RIMP2         total energy =     -2760.4136940327 a.u.

                    Orbital Energies (a.u.)
 --------------------------------------------------------------

 Alpha MOs
 -- Occupied --
-92.0165 -91.9941 -91.9814 -91.9583 -26.3368 -20.6121 -20.5879 -20.5867
-20.5498 -11.4102 -11.3787 -11.3174 -11.3092 -11.3087 -11.2972 -11.2966
-11.2920 -11.2886 -11.2854 -11.2841 -11.2831 -11.2820 -11.2796 -11.2731
-11.2729 -11.2587 -11.2586 -11.2498 -11.2375  -9.0151  -8.9983  -8.9836
 -8.9609  -6.6959  -6.6954  -6.6948  -6.6795  -6.6789  -6.6775  -6.6647
 -6.6638  -6.6625  -6.6421  -6.6412  -6.6401  -1.6499  -1.4718  -1.4112
 -1.4086  -1.3671  -1.2382  -1.2101  -1.1759  -1.1440  -1.0998  -1.0501
 -1.0469  -1.0301  -1.0094  -0.9988  -0.9723  -0.9598  -0.9490  -0.9404
 -0.8945  -0.8717  -0.8644  -0.8079  -0.7963  -0.7862  -0.7772  -0.7711
 -0.7649  -0.7326  -0.7223  -0.7177  -0.6978  -0.6927  -0.6830  -0.6786
 -0.6723  -0.6663  -0.6569  -0.6486  -0.6371  -0.6302  -0.6202  -0.6147
 -0.6105  -0.6064  -0.5951  -0.5929  -0.5787  -0.5685  -0.5591  -0.5518
 -0.5490  -0.5366  -0.5316  -0.5227  -0.5142  -0.5081  -0.5053  -0.5005
 -0.4857  -0.4848  -0.4787  -0.4727  -0.4621  -0.4613  -0.4594  -0.4462
 -0.4290  -0.3998  -0.3863  -0.3707  -0.3515  -0.2936  -0.2859  -0.2186

          Ground-State Mulliken Net Atomic Charges

     Atom                 Charge (a.u.)
  ----------------------------------------
      1 C                    -0.070219
      2 C                    -0.258862
      3 S                    -0.134485
      4 C                    -0.044510
      5 H                     0.193569
      6 C                    -0.052012
      7 C                     0.224518
      8 C                     0.225032
      9 C                    -0.077155
     10 C                    -0.050234
     11 O                    -0.334149
     12 O                    -0.343238
     13 C                    -0.082456
     14 H                     0.120825
     15 H                     0.091614
     16 H                     0.093106
     17 C                    -0.087757
     18 H                     0.123980
     19 H                     0.092355
     20 H                     0.089998
     21 C                    -0.265971
     22 S                    -0.074167
     23 C                     0.088295
     24 H                     0.204589
     25 C                    -0.109493
     26 S                     0.084164
     27 C                    -0.234566
     28 C                    -0.037782
     29 C                    -0.016257
     30 C                     0.378673
     31 C                    -0.146661
     32 S                     0.034673
     33 C                     0.459013
     34 O                    -0.451296
     35 O                    -0.297977
     36 F                    -0.213072
     37 C                    -0.054997
     38 H                     0.116604
     39 H                     0.084413
     40 H                     0.084536
     41 H                     0.215767
     42 H                     0.117472
     43 H                     0.115301
     44 H                     0.198823
  ----------------------------------------
  Sum of atomic charges =     0.000000

                    Cartesian Multipole Moments
 -----------------------------------------------------------------
    Charge (ESU x 10^10)
                -0.0000
    Dipole Moment (Debye)
         X       0.4899      Y       2.9606      Z       3.8097
       Tot       4.8496
    Quadrupole Moments (Debye-Ang)
        XX    -198.0228     XY       1.3137     YY    -174.5624
        XZ       3.5685     YZ     -13.1199     ZZ    -190.4037

 Total job time:  322.94s(wall), 10490.62s(cpu)
        *  Thank you very much for using Q-Chem.  Have a nice day.  *
