 Q-Chem 5.4, Q-Chem, Inc., Pleasanton, CA (2021)
 Q-Chem 5.4.0 for Intel X86 EM64T Linux

User input:
--------------------------------------------------------------
$molecule
0 1
C	0.092419	-8.519741	0.255929
C	-0.449364	-7.635967	-0.666007
S	0.885736	-7.651740	1.592708
C	-0.254813	-6.261894	-0.332317
H	-0.980526	-7.954738	-1.571741
C	0.458965	-6.079985	0.904324
C	0.767823	-4.798382	1.385968
C	-0.681909	-5.153542	-1.118303
C	-0.369139	-3.869626	-0.638514
C	0.342916	-3.688927	0.600871
O	-1.368544	-5.481075	-2.248132
O	1.458570	-4.479871	2.520275
C	1.405396	-5.356026	3.639637
H	1.820940	-4.790496	4.495304
H	2.023129	-6.268513	3.490336
H	0.361595	-5.658187	3.873314
C	-1.480048	-4.546999	-3.314934
H	-1.899255	-5.107564	-4.171837
H	-0.490123	-4.131473	-3.601473
H	-2.171521	-3.712085	-3.068969
C	0.537642	-2.314326	0.930308
S	-0.785807	-2.295487	-1.334769
C	0.000000	-1.435180	0.000000
H	1.066134	-1.993211	1.836691
C	0.000000	0.000000	0.000000
S	0.780044	0.447780	1.510732
C	2.143774	1.236372	0.727629
C	0.786529	0.454137	-1.064665
C	1.988499	1.149844	-0.678287
C	0.729864	0.419512	-2.486150
C	1.825177	1.052041	-3.106916
S	2.903877	1.678680	-1.965735
C	2.047896	1.175232	-4.559972
O	1.240953	0.705897	-5.350277
O	3.160791	1.814024	-5.004375
F	-0.233039	-0.140940	-3.246290
C	3.476510	1.984585	-6.334976
H	4.433735	2.536545	-6.370268
H	2.693835	2.561503	-6.875609
H	3.588239	1.011113	-6.861878
H	2.940569	1.696327	1.321510
H	0.866272	-9.146471	-0.202590
H	-0.682165	-9.150570	0.707539
H	0.931016	-1.444158	-0.547293
$end

$rem
JOBTYPE		SP
EXCHANGE	HF
CORRELATION	pRIMP2
BASIS		cc-pvtz
METHOD		rimp2
AUX_BASIS	rimp2-cc-pvtz
SOLVENT_METHOD	PCM
PURECART	11111
SYMMETRY	false
MEM_TOTAL	110000
SCF_CONVERGENCE = 6
THRESH=10
GUI = 2
$end

$solvent
dielectric 4.90
$end
--------------------------------------------------------------

             Standard Nuclear Orientation (Angstroms)
    I     Atom           X                Y                Z
 ----------------------------------------------------------------
    1      C       0.0924190000    -8.5197410000     0.2559290000
    2      C      -0.4493640000    -7.6359670000    -0.6660070000
    3      S       0.8857360000    -7.6517400000     1.5927080000
    4      C      -0.2548130000    -6.2618940000    -0.3323170000
    5      H      -0.9805260000    -7.9547380000    -1.5717410000
    6      C       0.4589650000    -6.0799850000     0.9043240000
    7      C       0.7678230000    -4.7983820000     1.3859680000
    8      C      -0.6819090000    -5.1535420000    -1.1183030000
    9      C      -0.3691390000    -3.8696260000    -0.6385140000
   10      C       0.3429160000    -3.6889270000     0.6008710000
   11      O      -1.3685440000    -5.4810750000    -2.2481320000
   12      O       1.4585700000    -4.4798710000     2.5202750000
   13      C       1.4053960000    -5.3560260000     3.6396370000
   14      H       1.8209400000    -4.7904960000     4.4953040000
   15      H       2.0231290000    -6.2685130000     3.4903360000
   16      H       0.3615950000    -5.6581870000     3.8733140000
   17      C      -1.4800480000    -4.5469990000    -3.3149340000
   18      H      -1.8992550000    -5.1075640000    -4.1718370000
   19      H      -0.4901230000    -4.1314730000    -3.6014730000
   20      H      -2.1715210000    -3.7120850000    -3.0689690000
   21      C       0.5376420000    -2.3143260000     0.9303080000
   22      S      -0.7858070000    -2.2954870000    -1.3347690000
   23      C       0.0000000000    -1.4351800000     0.0000000000
   24      H       1.0661340000    -1.9932110000     1.8366910000
   25      C       0.0000000000     0.0000000000     0.0000000000
   26      S       0.7800440000     0.4477800000     1.5107320000
   27      C       2.1437740000     1.2363720000     0.7276290000
   28      C       0.7865290000     0.4541370000    -1.0646650000
   29      C       1.9884990000     1.1498440000    -0.6782870000
   30      C       0.7298640000     0.4195120000    -2.4861500000
   31      C       1.8251770000     1.0520410000    -3.1069160000
   32      S       2.9038770000     1.6786800000    -1.9657350000
   33      C       2.0478960000     1.1752320000    -4.5599720000
   34      O       1.2409530000     0.7058970000    -5.3502770000
   35      O       3.1607910000     1.8140240000    -5.0043750000
   36      F      -0.2330390000    -0.1409400000    -3.2462900000
   37      C       3.4765100000     1.9845850000    -6.3349760000
   38      H       4.4337350000     2.5365450000    -6.3702680000
   39      H       2.6938350000     2.5615030000    -6.8756090000
   40      H       3.5882390000     1.0111130000    -6.8618780000
   41      H       2.9405690000     1.6963270000     1.3215100000
   42      H       0.8662720000    -9.1464710000    -0.2025900000
   43      H      -0.6821650000    -9.1505700000     0.7075390000
   44      H       0.9310160000    -1.4441580000    -0.5472930000
 ----------------------------------------------------------------

   11   -2755.2417007374      9.08e-07  Convergence criterion met
 Total energy in the final basis set =    -2755.2417007374
        RIMP2         total energy =     -2760.3616031473 a.u.

                    Orbital Energies (a.u.)
 --------------------------------------------------------------

 Alpha MOs
 -- Occupied --
-92.0208 -92.0071 -91.9691 -91.9552 -26.3344 -20.6154 -20.5864 -20.5828
-20.5556 -11.4153 -11.3777 -11.3210 -11.3088 -11.3073 -11.3041 -11.3013
-11.2904 -11.2891 -11.2870 -11.2824 -11.2811 -11.2791 -11.2770 -11.2710
-11.2683 -11.2550 -11.2507 -11.2466 -11.2298  -9.0199  -9.0105  -8.9719
 -8.9579  -6.7004  -6.6996  -6.6995  -6.6916  -6.6910  -6.6898  -6.6530
 -6.6521  -6.6508  -6.6391  -6.6382  -6.6372  -1.6489  -1.4755  -1.4084
 -1.4060  -1.3714  -1.2537  -1.2076  -1.1746  -1.1471  -1.0976  -1.0566
 -1.0431  -1.0350  -1.0051  -0.9954  -0.9767  -0.9581  -0.9471  -0.9405
 -0.8908  -0.8797  -0.8546  -0.8142  -0.7962  -0.7858  -0.7779  -0.7637
 -0.7576  -0.7319  -0.7209  -0.7175  -0.7000  -0.6922  -0.6893  -0.6816
 -0.6783  -0.6757  -0.6531  -0.6465  -0.6336  -0.6281  -0.6170  -0.6140
 -0.6112  -0.6091  -0.6048  -0.5936  -0.5738  -0.5648  -0.5599  -0.5555
 -0.5496  -0.5344  -0.5271  -0.5218  -0.5104  -0.5064  -0.5054  -0.4974
 -0.4889  -0.4846  -0.4738  -0.4660  -0.4644  -0.4592  -0.4529  -0.4431
 -0.4297  -0.3948  -0.3778  -0.3669  -0.3513  -0.3009  -0.2851  -0.2106

          Ground-State Mulliken Net Atomic Charges

     Atom                 Charge (a.u.)
  ----------------------------------------
      1 C                    -0.068736
      2 C                    -0.279416
      3 S                    -0.143681
      4 C                    -0.039427
      5 H                     0.191129
      6 C                    -0.052837
      7 C                     0.223909
      8 C                     0.215798
      9 C                    -0.065010
     10 C                    -0.057142
     11 O                    -0.336329
     12 O                    -0.345326
     13 C                    -0.082587
     14 H                     0.118811
     15 H                     0.092165
     16 H                     0.092903
     17 C                    -0.086855
     18 H                     0.122019
     19 H                     0.091455
     20 H                     0.090224
     21 C                    -0.266682
     22 S                    -0.098646
     23 C                     0.070620
     24 H                     0.201887
     25 C                    -0.148364
     26 S                     0.128382
     27 C                    -0.184662
     28 C                    -0.044564
     29 C                    -0.022274
     30 C                     0.344439
     31 C                    -0.118525
     32 S                     0.077492
     33 C                     0.457664
     34 O                    -0.442050
     35 O                    -0.297487
     36 F                    -0.206894
     37 C                    -0.054770
     38 H                     0.117332
     39 H                     0.085522
     40 H                     0.085426
     41 H                     0.222122
     42 H                     0.114687
     43 H                     0.112337
     44 H                     0.185943
  ----------------------------------------
  Sum of atomic charges =     0.000000

                    Cartesian Multipole Moments
 -----------------------------------------------------------------
    Charge (ESU x 10^10)
                -0.0000
    Dipole Moment (Debye)
         X       5.1945      Y       4.2013      Z       2.6211
       Tot       7.1766
    Quadrupole Moments (Debye-Ang)
        XX    -186.0335     XY      10.6307     YY    -197.2511
        XZ      -7.2893     YZ      -2.9935     ZZ    -185.3032

 Total job time:  348.95s(wall), 11488.88s(cpu)
        *  Thank you very much for using Q-Chem.  Have a nice day.  *
