 Q-Chem 5.4, Q-Chem, Inc., Pleasanton, CA (2021)
 Q-Chem 5.4.0 for Intel X86 EM64T Linux

User input:
--------------------------------------------------------------
$molecule
0 1
C	0.235993	-8.519741	-0.135457
C	-0.577858	-7.635967	0.558188
S	1.414705	-7.651740	-1.148850
C	-0.283020	-6.261894	0.308648
H	-1.377597	-7.954738	1.238560
C	0.810887	-6.079985	-0.609026
C	1.231581	-4.798382	-0.996828
C	-0.982901	-5.153542	0.865740
C	-0.564713	-3.869626	0.474408
C	0.532196	-3.688927	-0.442046
O	-1.976332	-5.481075	1.738137
O	2.228709	-4.479871	-1.874052
C	3.340298	-5.356026	-2.016062
H	4.110807	-4.790496	-2.573877
H	3.085998	-6.268513	-2.598484
H	3.751679	-5.658187	-1.028695
C	-3.007565	-4.546999	2.033195
H	-3.778655	-5.107564	2.594833
H	-3.461650	-4.131473	1.108067
H	-2.645264	-3.712085	2.671451
C	0.822814	-2.314326	-0.691020
S	-1.178037	-2.295487	1.005649
C	-0.000000	-1.435180	-0.000000
H	1.623656	-1.993211	-1.368875
C	0.000000	0.000000	0.000000
S	0.382139	0.814215	1.510732
C	1.046923	2.242395	0.727629
C	0.383804	0.823142	-1.064665
C	0.969360	2.082453	-0.678287
C	0.357247	0.762277	-2.486150
C	0.891671	1.908660	-3.106916
S	1.415865	3.040689	-1.965735
C	1.003453	2.137318	-4.559972
O	0.611644	1.290019	-5.350277
O	1.548687	3.298916	-5.004375
F	-0.110054	-0.249117	-3.246290
C	1.709479	3.619721	-6.334976
H	2.177001	4.620902	-6.370268
H	0.737443	3.643380	-6.875609
H	2.359363	2.886384	-6.861878
H	1.435800	3.076190	1.321510
H	-0.349939	-9.146471	-0.817932
H	0.815247	-9.150570	0.548939
H	-0.700647	-1.444158	-0.821835
$end

$rem
JOBTYPE		SP
EXCHANGE	HF
CORRELATION	pRIMP2
BASIS		cc-pvtz
METHOD		rimp2
AUX_BASIS	rimp2-cc-pvtz
SOLVENT_METHOD	PCM
PURECART	11111
SYMMETRY	false
MEM_TOTAL	110000
SCF_CONVERGENCE = 6
THRESH=10
GUI = 2
$end

$solvent
dielectric 4.90
$end
--------------------------------------------------------------

             Standard Nuclear Orientation (Angstroms)
    I     Atom           X                Y                Z
 ----------------------------------------------------------------
    1      C       0.2359930000    -8.5197410000    -0.1354570000
    2      C      -0.5778580000    -7.6359670000     0.5581880000
    3      S       1.4147050000    -7.6517400000    -1.1488500000
    4      C      -0.2830200000    -6.2618940000     0.3086480000
    5      H      -1.3775970000    -7.9547380000     1.2385600000
    6      C       0.8108870000    -6.0799850000    -0.6090260000
    7      C       1.2315810000    -4.7983820000    -0.9968280000
    8      C      -0.9829010000    -5.1535420000     0.8657400000
    9      C      -0.5647130000    -3.8696260000     0.4744080000
   10      C       0.5321960000    -3.6889270000    -0.4420460000
   11      O      -1.9763320000    -5.4810750000     1.7381370000
   12      O       2.2287090000    -4.4798710000    -1.8740520000
   13      C       3.3402980000    -5.3560260000    -2.0160620000
   14      H       4.1108070000    -4.7904960000    -2.5738770000
   15      H       3.0859980000    -6.2685130000    -2.5984840000
   16      H       3.7516790000    -5.6581870000    -1.0286950000
   17      C      -3.0075650000    -4.5469990000     2.0331950000
   18      H      -3.7786550000    -5.1075640000     2.5948330000
   19      H      -3.4616500000    -4.1314730000     1.1080670000
   20      H      -2.6452640000    -3.7120850000     2.6714510000
   21      C       0.8228140000    -2.3143260000    -0.6910200000
   22      S      -1.1780370000    -2.2954870000     1.0056490000
   23      C       0.0000000000    -1.4351800000     0.0000000000
   24      H       1.6236560000    -1.9932110000    -1.3688750000
   25      C       0.0000000000     0.0000000000     0.0000000000
   26      S       0.3821390000     0.8142150000     1.5107320000
   27      C       1.0469230000     2.2423950000     0.7276290000
   28      C       0.3838040000     0.8231420000    -1.0646650000
   29      C       0.9693600000     2.0824530000    -0.6782870000
   30      C       0.3572470000     0.7622770000    -2.4861500000
   31      C       0.8916710000     1.9086600000    -3.1069160000
   32      S       1.4158650000     3.0406890000    -1.9657350000
   33      C       1.0034530000     2.1373180000    -4.5599720000
   34      O       0.6116440000     1.2900190000    -5.3502770000
   35      O       1.5486870000     3.2989160000    -5.0043750000
   36      F      -0.1100540000    -0.2491170000    -3.2462900000
   37      C       1.7094790000     3.6197210000    -6.3349760000
   38      H       2.1770010000     4.6209020000    -6.3702680000
   39      H       0.7374430000     3.6433800000    -6.8756090000
   40      H       2.3593630000     2.8863840000    -6.8618780000
   41      H       1.4358000000     3.0761900000     1.3215100000
   42      H      -0.3499390000    -9.1464710000    -0.8179320000
   43      H       0.8152470000    -9.1505700000     0.5489390000
   44      H      -0.7006470000    -1.4441580000    -0.8218350000
 ----------------------------------------------------------------

   11   -2755.3173639141      7.37e-07  Convergence criterion met
 Total energy in the final basis set =    -2755.3173639141
        RIMP2         total energy =     -2760.4130068867 a.u.

                    Orbital Energies (a.u.)
 --------------------------------------------------------------

 Alpha MOs
 -- Occupied --
-92.0132 -91.9973 -91.9790 -91.9581 -26.3385 -20.6133 -20.5873 -20.5869
-20.5517 -11.4120 -11.3795 -11.3116 -11.3091 -11.3079 -11.3003 -11.2988
-11.2967 -11.2892 -11.2856 -11.2847 -11.2835 -11.2825 -11.2816 -11.2734
-11.2729 -11.2584 -11.2583 -11.2496 -11.2371  -9.0119  -9.0013  -8.9812
 -8.9607  -6.6926  -6.6920  -6.6916  -6.6826  -6.6819  -6.6806  -6.6623
 -6.6614  -6.6602  -6.6419  -6.6410  -6.6400  -1.6515  -1.4731  -1.4107
 -1.4088  -1.3686  -1.2402  -1.2091  -1.1754  -1.1441  -1.1001  -1.0524
 -1.0463  -1.0298  -1.0090  -0.9983  -0.9728  -0.9598  -0.9490  -0.9413
 -0.8940  -0.8745  -0.8621  -0.8081  -0.7952  -0.7858  -0.7788  -0.7727
 -0.7619  -0.7338  -0.7205  -0.7187  -0.6981  -0.6931  -0.6865  -0.6797
 -0.6755  -0.6734  -0.6559  -0.6485  -0.6359  -0.6274  -0.6200  -0.6148
 -0.6113  -0.6076  -0.5967  -0.5942  -0.5818  -0.5678  -0.5584  -0.5544
 -0.5453  -0.5342  -0.5299  -0.5230  -0.5127  -0.5076  -0.5047  -0.5020
 -0.4872  -0.4846  -0.4753  -0.4701  -0.4625  -0.4623  -0.4608  -0.4463
 -0.4259  -0.4012  -0.3856  -0.3702  -0.3508  -0.2941  -0.2881  -0.2189

          Ground-State Mulliken Net Atomic Charges

     Atom                 Charge (a.u.)
  ----------------------------------------
      1 C                    -0.070328
      2 C                    -0.259205
      3 S                    -0.134874
      4 C                    -0.047105
      5 H                     0.193478
      6 C                    -0.052746
      7 C                     0.221747
      8 C                     0.232629
      9 C                    -0.077893
     10 C                    -0.034362
     11 O                    -0.334759
     12 O                    -0.342930
     13 C                    -0.082722
     14 H                     0.120196
     15 H                     0.092314
     16 H                     0.092453
     17 C                    -0.087022
     18 H                     0.123841
     19 H                     0.092854
     20 H                     0.089904
     21 C                    -0.300170
     22 S                    -0.078712
     23 C                     0.089139
     24 H                     0.208023
     25 C                    -0.067499
     26 S                     0.105975
     27 C                    -0.230542
     28 C                    -0.118673
     29 C                    -0.006469
     30 C                     0.383996
     31 C                    -0.141971
     32 S                     0.044664
     33 C                     0.460842
     34 O                    -0.448664
     35 O                    -0.297780
     36 F                    -0.214711
     37 C                    -0.054903
     38 H                     0.116901
     39 H                     0.084867
     40 H                     0.084787
     41 H                     0.214679
     42 H                     0.117589
     43 H                     0.115027
     44 H                     0.198133
  ----------------------------------------
  Sum of atomic charges =     0.000000

                    Cartesian Multipole Moments
 -----------------------------------------------------------------
    Charge (ESU x 10^10)
                 0.0000
    Dipole Moment (Debye)
         X       1.1029      Y       3.2684      Z       2.7044
       Tot       4.3833
    Quadrupole Moments (Debye-Ang)
        XX    -182.3339     XY       9.2963     YY    -176.0427
        XZ     -11.1914     YZ     -12.5928     ZZ    -203.5793

 Total job time:  334.93s(wall), 10652.12s(cpu)
        *  Thank you very much for using Q-Chem.  Have a nice day.  *
