 Q-Chem 5.4, Q-Chem, Inc., Pleasanton, CA (2021)
 Q-Chem 5.4.0 for Intel X86 EM64T Linux

User input:
--------------------------------------------------------------
$molecule
0 1
C	-0.208886	-8.519741	0.174379
C	0.472151	-7.635967	-0.650052
S	-1.193717	-7.651740	1.377058
C	0.225125	-6.261894	-0.353105
H	1.141594	-7.954738	-1.458961
C	-0.692811	-6.079985	0.740583
C	-1.039773	-4.798382	1.195546
C	0.817634	-5.153542	-1.023267
C	0.473754	-3.869626	-0.565262
C	-0.447350	-3.688927	0.527745
O	1.644483	-5.481075	-2.054917
O	-1.869424	-4.479871	2.232592
C	-2.939466	-5.356026	2.565470
H	-3.601405	-4.790496	3.248608
H	-2.587892	-6.268513	3.094885
H	-3.516052	-5.658187	1.664539
C	2.608813	-4.546999	-2.524564
H	3.270661	-5.107564	-3.211568
H	3.216646	-4.131473	-1.692342
H	2.141184	-3.712085	-3.090211
C	-0.690319	-2.314326	0.823402
S	0.985511	-2.295487	-1.194935
C	-0.000000	-1.435180	-0.000000
H	-1.361286	-1.993211	1.630024
C	0.000000	0.000000	0.000000
S	0.451648	0.777811	1.510732
C	1.238377	2.142617	0.727629
C	0.454085	0.786559	-1.064665
C	1.147169	1.990043	-0.678287
C	0.422325	0.728240	-2.486150
C	1.054629	1.823683	-3.106916
S	1.675491	2.905718	-1.965735
C	1.185914	2.041729	-4.559972
O	0.721749	1.231802	-5.350277
O	1.830313	3.151386	-5.004375
F	-0.131347	-0.238577	-3.246290
C	2.018453	3.456956	-6.334976
H	2.571455	4.413580	-6.370268
H	1.052178	3.565244	-6.875609
H	2.601950	2.669768	-6.861878
H	1.698444	2.939346	1.321510
H	0.486655	-9.146471	0.744739
H	-0.898184	-9.150570	-0.399033
H	0.832713	-1.444158	0.687683
$end

$rem
JOBTYPE		SP
EXCHANGE	HF
CORRELATION	pRIMP2
BASIS		cc-pvtz
METHOD		rimp2
AUX_BASIS	rimp2-cc-pvtz
SOLVENT_METHOD	PCM
PURECART	11111
SYMMETRY	false
MEM_TOTAL	110000
SCF_CONVERGENCE = 6
THRESH=10
GUI = 2
$end

$solvent
dielectric 4.90
$end
--------------------------------------------------------------

             Standard Nuclear Orientation (Angstroms)
    I     Atom           X                Y                Z
 ----------------------------------------------------------------
    1      C      -0.2088860000    -8.5197410000     0.1743790000
    2      C       0.4721510000    -7.6359670000    -0.6500520000
    3      S      -1.1937170000    -7.6517400000     1.3770580000
    4      C       0.2251250000    -6.2618940000    -0.3531050000
    5      H       1.1415940000    -7.9547380000    -1.4589610000
    6      C      -0.6928110000    -6.0799850000     0.7405830000
    7      C      -1.0397730000    -4.7983820000     1.1955460000
    8      C       0.8176340000    -5.1535420000    -1.0232670000
    9      C       0.4737540000    -3.8696260000    -0.5652620000
   10      C      -0.4473500000    -3.6889270000     0.5277450000
   11      O       1.6444830000    -5.4810750000    -2.0549170000
   12      O      -1.8694240000    -4.4798710000     2.2325920000
   13      C      -2.9394660000    -5.3560260000     2.5654700000
   14      H      -3.6014050000    -4.7904960000     3.2486080000
   15      H      -2.5878920000    -6.2685130000     3.0948850000
   16      H      -3.5160520000    -5.6581870000     1.6645390000
   17      C       2.6088130000    -4.5469990000    -2.5245640000
   18      H       3.2706610000    -5.1075640000    -3.2115680000
   19      H       3.2166460000    -4.1314730000    -1.6923420000
   20      H       2.1411840000    -3.7120850000    -3.0902110000
   21      C      -0.6903190000    -2.3143260000     0.8234020000
   22      S       0.9855110000    -2.2954870000    -1.1949350000
   23      C       0.0000000000    -1.4351800000     0.0000000000
   24      H      -1.3612860000    -1.9932110000     1.6300240000
   25      C       0.0000000000     0.0000000000     0.0000000000
   26      S       0.4516480000     0.7778110000     1.5107320000
   27      C       1.2383770000     2.1426170000     0.7276290000
   28      C       0.4540850000     0.7865590000    -1.0646650000
   29      C       1.1471690000     1.9900430000    -0.6782870000
   30      C       0.4223250000     0.7282400000    -2.4861500000
   31      C       1.0546290000     1.8236830000    -3.1069160000
   32      S       1.6754910000     2.9057180000    -1.9657350000
   33      C       1.1859140000     2.0417290000    -4.5599720000
   34      O       0.7217490000     1.2318020000    -5.3502770000
   35      O       1.8303130000     3.1513860000    -5.0043750000
   36      F      -0.1313470000    -0.2385770000    -3.2462900000
   37      C       2.0184530000     3.4569560000    -6.3349760000
   38      H       2.5714550000     4.4135800000    -6.3702680000
   39      H       1.0521780000     3.5652440000    -6.8756090000
   40      H       2.6019500000     2.6697680000    -6.8618780000
   41      H       1.6984440000     2.9393460000     1.3215100000
   42      H       0.4866550000    -9.1464710000     0.7447390000
   43      H      -0.8981840000    -9.1505700000    -0.3990330000
   44      H       0.8327130000    -1.4441580000     0.6876830000
 ----------------------------------------------------------------

   11   -2755.3078773852      7.90e-07  Convergence criterion met
 Total energy in the final basis set =    -2755.3078773852
        RIMP2         total energy =     -2760.4036754576 a.u.

                    Orbital Energies (a.u.)
 --------------------------------------------------------------

 Alpha MOs
 -- Occupied --
-92.0114 -91.9945 -91.9774 -91.9590 -26.3341 -20.6125 -20.5875 -20.5870
-20.5504 -11.4107 -11.3787 -11.3152 -11.3091 -11.3080 -11.2981 -11.2973
-11.2947 -11.2887 -11.2841 -11.2831 -11.2831 -11.2822 -11.2817 -11.2741
-11.2708 -11.2595 -11.2586 -11.2504 -11.2385  -9.0108  -8.9986  -8.9797
 -8.9616  -6.6916  -6.6909  -6.6904  -6.6799  -6.6792  -6.6779  -6.6608
 -6.6599  -6.6586  -6.6428  -6.6419  -6.6408  -1.6477  -1.4721  -1.4105
 -1.4092  -1.3674  -1.2411  -1.2092  -1.1766  -1.1447  -1.0991  -1.0516
 -1.0459  -1.0317  -1.0078  -0.9982  -0.9725  -0.9598  -0.9490  -0.9407
 -0.8939  -0.8713  -0.8630  -0.8110  -0.7935  -0.7856  -0.7759  -0.7695
 -0.7655  -0.7331  -0.7209  -0.7157  -0.6969  -0.6936  -0.6830  -0.6788
 -0.6721  -0.6686  -0.6563  -0.6488  -0.6379  -0.6281  -0.6207  -0.6152
 -0.6112  -0.6067  -0.5965  -0.5935  -0.5797  -0.5659  -0.5633  -0.5581
 -0.5478  -0.5342  -0.5285  -0.5213  -0.5131  -0.5080  -0.5034  -0.5015
 -0.4861  -0.4838  -0.4777  -0.4676  -0.4620  -0.4613  -0.4611  -0.4472
 -0.4268  -0.4012  -0.3848  -0.3717  -0.3515  -0.2941  -0.2852  -0.2176

          Ground-State Mulliken Net Atomic Charges

     Atom                 Charge (a.u.)
  ----------------------------------------
      1 C                    -0.070359
      2 C                    -0.255281
      3 S                    -0.134136
      4 C                    -0.048410
      5 H                     0.194282
      6 C                    -0.045747
      7 C                     0.213902
      8 C                     0.225360
      9 C                    -0.074145
     10 C                    -0.016905
     11 O                    -0.334624
     12 O                    -0.343641
     13 C                    -0.082639
     14 H                     0.119877
     15 H                     0.091918
     16 H                     0.093230
     17 C                    -0.089085
     18 H                     0.124013
     19 H                     0.091943
     20 H                     0.091959
     21 C                    -0.319511
     22 S                    -0.088942
     23 C                     0.108148
     24 H                     0.202467
     25 C                    -0.002657
     26 S                     0.088267
     27 C                    -0.235954
     28 C                    -0.158455
     29 C                    -0.004616
     30 C                     0.377198
     31 C                    -0.145500
     32 S                     0.038967
     33 C                     0.459618
     34 O                    -0.449279
     35 O                    -0.298038
     36 F                    -0.207671
     37 C                    -0.054961
     38 H                     0.116708
     39 H                     0.084752
     40 H                     0.084531
     41 H                     0.214894
     42 H                     0.118032
     43 H                     0.115961
     44 H                     0.204526
  ----------------------------------------
  Sum of atomic charges =     0.000000

                    Cartesian Multipole Moments
 -----------------------------------------------------------------
    Charge (ESU x 10^10)
                -0.0000
    Dipole Moment (Debye)
         X       2.3374      Y       2.5269      Z       3.2716
       Tot       4.7489
    Quadrupole Moments (Debye-Ang)
        XX    -184.0007     XY       4.2776     YY    -175.6802
        XZ     -13.7904     YZ      -6.0198     ZZ    -201.0994

 Total job time:  324.55s(wall), 10447.53s(cpu)
        *  Thank you very much for using Q-Chem.  Have a nice day.  *
