 Q-Chem 5.4, Q-Chem, Inc., Pleasanton, CA (2021)
 Q-Chem 5.4.0 for Intel X86 EM64T Linux

User input:
--------------------------------------------------------------
$molecule
0 1
C	-0.235306	-8.519741	-0.136647
C	0.772334	-7.635967	0.221346
S	-1.702286	-7.651740	-0.650746
C	0.408807	-6.261894	0.090779
H	1.761423	-7.954738	0.573754
C	-0.932876	-6.079985	-0.397735
C	-1.479069	-4.798382	-0.568166
C	1.241204	-5.153542	0.418347
C	0.693206	-3.869626	0.251852
C	-0.648921	-3.688927	-0.239872
O	2.493437	-5.481075	0.842486
O	-2.737331	-4.479871	-0.993092
C	-3.416110	-5.356026	-1.884752
H	-4.284447	-4.790496	-2.273124
H	-3.793352	-6.268513	-1.373310
H	-2.766716	-5.658187	-2.734702
C	3.264581	-4.546999	1.588030
H	4.136519	-5.107564	1.974995
H	2.690439	-4.131473	2.443843
H	3.636177	-3.712085	0.955140
C	-1.009848	-2.314326	-0.367068
S	1.459936	-2.295487	0.517386
C	-0.000000	-1.435180	-0.000000
H	-1.997308	-1.993211	-0.721689
C	0.000000	0.000000	0.000000
S	0.579852	0.687566	1.510732
C	1.591625	1.895024	0.727629
C	0.583771	0.695758	-1.064665
C	1.475308	1.760606	-0.678287
C	0.542366	0.643841	-2.486150
C	1.355286	1.612843	-3.106916
S	2.154609	2.570627	-1.965735
C	1.522440	1.804778	-4.559972
O	0.924684	1.087757	-5.350277
O	2.349739	2.785679	-5.004375
F	-0.170780	-0.212144	-3.246290
C	2.588082	3.053936	-6.334976
H	3.298799	3.899999	-6.370268
H	1.655291	3.328371	-6.875609
H	3.026021	2.177385	-6.861878
H	2.183053	2.599759	1.321510
H	-0.533380	-9.146471	0.712022
H	0.067771	-9.150570	-0.980494
H	-0.361406	-1.444158	1.017696
$end

$rem
JOBTYPE		SP
EXCHANGE	HF
CORRELATION	pRIMP2
BASIS		cc-pvtz
METHOD		rimp2
AUX_BASIS	rimp2-cc-pvtz
SOLVENT_METHOD	PCM
PURECART	11111
SYMMETRY	false
MEM_TOTAL	110000
SCF_CONVERGENCE = 6
THRESH=10
GUI = 2
$end

$solvent
dielectric 4.90
$end
--------------------------------------------------------------

             Standard Nuclear Orientation (Angstroms)
    I     Atom           X                Y                Z
 ----------------------------------------------------------------
    1      C      -0.2353060000    -8.5197410000    -0.1366470000
    2      C       0.7723340000    -7.6359670000     0.2213460000
    3      S      -1.7022860000    -7.6517400000    -0.6507460000
    4      C       0.4088070000    -6.2618940000     0.0907790000
    5      H       1.7614230000    -7.9547380000     0.5737540000
    6      C      -0.9328760000    -6.0799850000    -0.3977350000
    7      C      -1.4790690000    -4.7983820000    -0.5681660000
    8      C       1.2412040000    -5.1535420000     0.4183470000
    9      C       0.6932060000    -3.8696260000     0.2518520000
   10      C      -0.6489210000    -3.6889270000    -0.2398720000
   11      O       2.4934370000    -5.4810750000     0.8424860000
   12      O      -2.7373310000    -4.4798710000    -0.9930920000
   13      C      -3.4161100000    -5.3560260000    -1.8847520000
   14      H      -4.2844470000    -4.7904960000    -2.2731240000
   15      H      -3.7933520000    -6.2685130000    -1.3733100000
   16      H      -2.7667160000    -5.6581870000    -2.7347020000
   17      C       3.2645810000    -4.5469990000     1.5880300000
   18      H       4.1365190000    -5.1075640000     1.9749950000
   19      H       2.6904390000    -4.1314730000     2.4438430000
   20      H       3.6361770000    -3.7120850000     0.9551400000
   21      C      -1.0098480000    -2.3143260000    -0.3670680000
   22      S       1.4599360000    -2.2954870000     0.5173860000
   23      C       0.0000000000    -1.4351800000     0.0000000000
   24      H      -1.9973080000    -1.9932110000    -0.7216890000
   25      C       0.0000000000     0.0000000000     0.0000000000
   26      S       0.5798520000     0.6875660000     1.5107320000
   27      C       1.5916250000     1.8950240000     0.7276290000
   28      C       0.5837710000     0.6957580000    -1.0646650000
   29      C       1.4753080000     1.7606060000    -0.6782870000
   30      C       0.5423660000     0.6438410000    -2.4861500000
   31      C       1.3552860000     1.6128430000    -3.1069160000
   32      S       2.1546090000     2.5706270000    -1.9657350000
   33      C       1.5224400000     1.8047780000    -4.5599720000
   34      O       0.9246840000     1.0877570000    -5.3502770000
   35      O       2.3497390000     2.7856790000    -5.0043750000
   36      F      -0.1707800000    -0.2121440000    -3.2462900000
   37      C       2.5880820000     3.0539360000    -6.3349760000
   38      H       3.2987990000     3.8999990000    -6.3702680000
   39      H       1.6552910000     3.3283710000    -6.8756090000
   40      H       3.0260210000     2.1773850000    -6.8618780000
   41      H       2.1830530000     2.5997590000     1.3215100000
   42      H      -0.5333800000    -9.1464710000     0.7120220000
   43      H       0.0677710000    -9.1505700000    -0.9804940000
   44      H      -0.3614060000    -1.4441580000     1.0176960000
 ----------------------------------------------------------------

   11   -2755.2972840853      7.15e-07  Convergence criterion met
 Total energy in the final basis set =    -2755.2972840853
        RIMP2         total energy =     -2760.3977061451 a.u.

                    Orbital Energies (a.u.)
 --------------------------------------------------------------

 Alpha MOs
 -- Occupied --
-92.0183 -92.0006 -91.9742 -91.9560 -26.3355 -20.6146 -20.5858 -20.5851
-20.5544 -11.4140 -11.3769 -11.3113 -11.3076 -11.3059 -11.3040 -11.2991
-11.2932 -11.2898 -11.2859 -11.2837 -11.2815 -11.2811 -11.2762 -11.2704
-11.2697 -11.2563 -11.2531 -11.2475 -11.2326  -9.0171  -9.0044  -8.9767
 -8.9586  -6.6978  -6.6971  -6.6967  -6.6856  -6.6850  -6.6837  -6.6578
 -6.6569  -6.6556  -6.6398  -6.6389  -6.6379  -1.6485  -1.4746  -1.4087
 -1.4074  -1.3704  -1.2419  -1.2071  -1.1738  -1.1454  -1.0970  -1.0523
 -1.0438  -1.0329  -1.0070  -0.9954  -0.9745  -0.9594  -0.9472  -0.9395
 -0.8918  -0.8740  -0.8611  -0.8076  -0.7956  -0.7833  -0.7781  -0.7734
 -0.7632  -0.7328  -0.7210  -0.7172  -0.6961  -0.6938  -0.6806  -0.6799
 -0.6751  -0.6636  -0.6548  -0.6472  -0.6309  -0.6293  -0.6180  -0.6134
 -0.6113  -0.6095  -0.5998  -0.5920  -0.5766  -0.5636  -0.5582  -0.5538
 -0.5432  -0.5363  -0.5291  -0.5224  -0.5120  -0.5062  -0.5049  -0.4993
 -0.4889  -0.4849  -0.4733  -0.4711  -0.4649  -0.4631  -0.4583  -0.4443
 -0.4220  -0.4006  -0.3836  -0.3680  -0.3496  -0.2968  -0.2870  -0.2179

          Ground-State Mulliken Net Atomic Charges

     Atom                 Charge (a.u.)
  ----------------------------------------
      1 C                    -0.069587
      2 C                    -0.271576
      3 S                    -0.139788
      4 C                    -0.041230
      5 H                     0.191697
      6 C                    -0.054296
      7 C                     0.223074
      8 C                     0.221339
      9 C                    -0.076404
     10 C                    -0.052035
     11 O                    -0.335575
     12 O                    -0.343218
     13 C                    -0.082251
     14 H                     0.119734
     15 H                     0.091384
     16 H                     0.093171
     17 C                    -0.086744
     18 H                     0.122912
     19 H                     0.090952
     20 H                     0.089728
     21 C                    -0.258824
     22 S                    -0.075394
     23 C                     0.011915
     24 H                     0.205425
     25 C                    -0.083331
     26 S                     0.110380
     27 C                    -0.192570
     28 C                    -0.052411
     29 C                    -0.008324
     30 C                     0.355399
     31 C                    -0.134161
     32 S                     0.056854
     33 C                     0.457301
     34 O                    -0.443061
     35 O                    -0.297127
     36 F                    -0.210404
     37 C                    -0.054720
     38 H                     0.117142
     39 H                     0.085211
     40 H                     0.085367
     41 H                     0.219395
     42 H                     0.115499
     43 H                     0.113414
     44 H                     0.185738
  ----------------------------------------
  Sum of atomic charges =     0.000000

                    Cartesian Multipole Moments
 -----------------------------------------------------------------
    Charge (ESU x 10^10)
                -0.0000
    Dipole Moment (Debye)
         X       2.9373      Y       4.6086      Z       3.4355
       Tot       6.4552
    Quadrupole Moments (Debye-Ang)
        XX    -182.9687     XY       5.9570     YY    -186.5783
        XZ       1.3249     YZ      -9.9064     ZZ    -196.6318

 Total job time:  330.24s(wall), 10787.19s(cpu)
        *  Thank you very much for using Q-Chem.  Have a nice day.  *
