 Q-Chem 5.4, Q-Chem, Inc., Pleasanton, CA (2021)
 Q-Chem 5.4.0 for Intel X86 EM64T Linux

User input:
--------------------------------------------------------------
$molecule
0 1
C	-0.208886	-8.519741	0.174379
C	0.472151	-7.635967	-0.650052
S	-1.193717	-7.651740	1.377058
C	0.225125	-6.261894	-0.353105
H	1.141594	-7.954738	-1.458961
C	-0.692811	-6.079985	0.740583
C	-1.039773	-4.798382	1.195546
C	0.817634	-5.153542	-1.023267
C	0.473754	-3.869626	-0.565262
C	-0.447350	-3.688927	0.527745
O	1.644483	-5.481075	-2.054917
O	-1.869424	-4.479871	2.232592
C	-2.939466	-5.356026	2.565470
H	-3.601405	-4.790496	3.248608
H	-2.587892	-6.268513	3.094885
H	-3.516052	-5.658187	1.664539
C	2.608813	-4.546999	-2.524564
H	3.270661	-5.107564	-3.211568
H	3.216646	-4.131473	-1.692342
H	2.141184	-3.712085	-3.090211
C	-0.690319	-2.314326	0.823402
S	0.985511	-2.295487	-1.194935
C	0.000000	-1.435180	0.000000
H	-1.361286	-1.993211	1.630024
C	0.000000	0.000000	0.000000
S	0.080615	0.895811	1.510732
C	0.216842	2.465231	0.727629
C	0.079127	0.904769	-1.064665
C	0.198659	2.288406	-0.678287
C	0.074988	0.838492	-2.486150
C	0.185097	2.098524	-3.106916
S	0.290501	3.341568	-1.965735
C	0.211932	2.351623	-4.559972
O	0.133545	1.421416	-5.350277
O	0.326994	3.629649	-5.004375
F	-0.018214	-0.271734	-3.246290
C	0.368367	3.986101	-6.334976
H	0.465270	5.086806	-6.370268
H	-0.553140	3.675878	-6.875609
H	1.229874	3.519263	-6.861878
H	0.297091	3.381746	1.321510
H	0.486655	-9.146471	0.744739
H	-0.898184	-9.150570	-0.399033
H	0.832713	-1.444158	0.687683
$end

$rem
JOBTYPE		SP
EXCHANGE	HF
CORRELATION	pRIMP2
BASIS		cc-pvtz
METHOD		rimp2
AUX_BASIS	rimp2-cc-pvtz
SOLVENT_METHOD	PCM
PURECART	11111
SYMMETRY	false
MEM_TOTAL	110000
SCF_CONVERGENCE = 6
THRESH=10
GUI = 2
$end

$solvent
dielectric 4.90
$end
--------------------------------------------------------------

             Standard Nuclear Orientation (Angstroms)
    I     Atom           X                Y                Z
 ----------------------------------------------------------------
    1      C      -0.2088860000    -8.5197410000     0.1743790000
    2      C       0.4721510000    -7.6359670000    -0.6500520000
    3      S      -1.1937170000    -7.6517400000     1.3770580000
    4      C       0.2251250000    -6.2618940000    -0.3531050000
    5      H       1.1415940000    -7.9547380000    -1.4589610000
    6      C      -0.6928110000    -6.0799850000     0.7405830000
    7      C      -1.0397730000    -4.7983820000     1.1955460000
    8      C       0.8176340000    -5.1535420000    -1.0232670000
    9      C       0.4737540000    -3.8696260000    -0.5652620000
   10      C      -0.4473500000    -3.6889270000     0.5277450000
   11      O       1.6444830000    -5.4810750000    -2.0549170000
   12      O      -1.8694240000    -4.4798710000     2.2325920000
   13      C      -2.9394660000    -5.3560260000     2.5654700000
   14      H      -3.6014050000    -4.7904960000     3.2486080000
   15      H      -2.5878920000    -6.2685130000     3.0948850000
   16      H      -3.5160520000    -5.6581870000     1.6645390000
   17      C       2.6088130000    -4.5469990000    -2.5245640000
   18      H       3.2706610000    -5.1075640000    -3.2115680000
   19      H       3.2166460000    -4.1314730000    -1.6923420000
   20      H       2.1411840000    -3.7120850000    -3.0902110000
   21      C      -0.6903190000    -2.3143260000     0.8234020000
   22      S       0.9855110000    -2.2954870000    -1.1949350000
   23      C       0.0000000000    -1.4351800000     0.0000000000
   24      H      -1.3612860000    -1.9932110000     1.6300240000
   25      C       0.0000000000     0.0000000000     0.0000000000
   26      S       0.0806150000     0.8958110000     1.5107320000
   27      C       0.2168420000     2.4652310000     0.7276290000
   28      C       0.0791270000     0.9047690000    -1.0646650000
   29      C       0.1986590000     2.2884060000    -0.6782870000
   30      C       0.0749880000     0.8384920000    -2.4861500000
   31      C       0.1850970000     2.0985240000    -3.1069160000
   32      S       0.2905010000     3.3415680000    -1.9657350000
   33      C       0.2119320000     2.3516230000    -4.5599720000
   34      O       0.1335450000     1.4214160000    -5.3502770000
   35      O       0.3269940000     3.6296490000    -5.0043750000
   36      F      -0.0182140000    -0.2717340000    -3.2462900000
   37      C       0.3683670000     3.9861010000    -6.3349760000
   38      H       0.4652700000     5.0868060000    -6.3702680000
   39      H      -0.5531400000     3.6758780000    -6.8756090000
   40      H       1.2298740000     3.5192630000    -6.8618780000
   41      H       0.2970910000     3.3817460000     1.3215100000
   42      H       0.4866550000    -9.1464710000     0.7447390000
   43      H      -0.8981840000    -9.1505700000    -0.3990330000
   44      H       0.8327130000    -1.4441580000     0.6876830000
 ----------------------------------------------------------------

   11   -2755.3246797663      7.90e-07  Convergence criterion met
 Total energy in the final basis set =    -2755.3246797663
        RIMP2         total energy =     -2760.4146074203 a.u.

                    Orbital Energies (a.u.)
 --------------------------------------------------------------

 Alpha MOs
 -- Occupied --
-92.0147 -91.9925 -91.9777 -91.9595 -26.3338 -20.6114 -20.5879 -20.5873
-20.5485 -11.4091 -11.3785 -11.3220 -11.3096 -11.3086 -11.2965 -11.2943
-11.2885 -11.2881 -11.2847 -11.2842 -11.2837 -11.2834 -11.2788 -11.2749
-11.2730 -11.2609 -11.2591 -11.2508 -11.2395  -9.0135  -8.9967  -8.9800
 -8.9621  -6.6943  -6.6937  -6.6931  -6.6780  -6.6773  -6.6760  -6.6611
 -6.6602  -6.6589  -6.6433  -6.6424  -6.6414  -1.6475  -1.4710  -1.4109
 -1.4096  -1.3661  -1.2380  -1.2101  -1.1768  -1.1436  -1.1002  -1.0501
 -1.0465  -1.0304  -1.0085  -0.9991  -0.9714  -0.9600  -0.9491  -0.9406
 -0.8943  -0.8708  -0.8647  -0.8110  -0.7927  -0.7858  -0.7764  -0.7688
 -0.7660  -0.7332  -0.7208  -0.7153  -0.6974  -0.6927  -0.6834  -0.6779
 -0.6710  -0.6677  -0.6567  -0.6490  -0.6385  -0.6290  -0.6211  -0.6153
 -0.6106  -0.6054  -0.5956  -0.5923  -0.5798  -0.5664  -0.5639  -0.5582
 -0.5497  -0.5339  -0.5279  -0.5214  -0.5132  -0.5083  -0.5036  -0.5012
 -0.4856  -0.4837  -0.4784  -0.4693  -0.4621  -0.4607  -0.4599  -0.4476
 -0.4281  -0.4009  -0.3854  -0.3717  -0.3514  -0.2931  -0.2853  -0.2192

          Ground-State Mulliken Net Atomic Charges

     Atom                 Charge (a.u.)
  ----------------------------------------
      1 C                    -0.070413
      2 C                    -0.252035
      3 S                    -0.132963
      4 C                    -0.048781
      5 H                     0.194655
      6 C                    -0.048103
      7 C                     0.220715
      8 C                     0.229086
      9 C                    -0.076253
     10 C                    -0.018397
     11 O                    -0.334760
     12 O                    -0.343778
     13 C                    -0.082707
     14 H                     0.120042
     15 H                     0.092045
     16 H                     0.093265
     17 C                    -0.087983
     18 H                     0.123848
     19 H                     0.092065
     20 H                     0.092200
     21 C                    -0.324755
     22 S                    -0.079556
     23 C                     0.151758
     24 H                     0.201240
     25 C                    -0.080709
     26 S                     0.089627
     27 C                    -0.253483
     28 C                    -0.114025
     29 C                    -0.008748
     30 C                     0.397719
     31 C                    -0.151691
     32 S                     0.029260
     33 C                     0.461447
     34 O                    -0.452780
     35 O                    -0.298288
     36 F                    -0.208552
     37 C                    -0.055211
     38 H                     0.116424
     39 H                     0.084484
     40 H                     0.084178
     41 H                     0.214444
     42 H                     0.118385
     43 H                     0.116347
     44 H                     0.200739
  ----------------------------------------
  Sum of atomic charges =     0.000000

                    Cartesian Multipole Moments
 -----------------------------------------------------------------
    Charge (ESU x 10^10)
                -0.0000
    Dipole Moment (Debye)
         X       0.8970      Y       2.3530      Z       3.4465
       Tot       4.2684
    Quadrupole Moments (Debye-Ang)
        XX    -187.8427     XY      -1.2355     YY    -171.2098
        XZ      -9.3205     YZ      -6.8614     ZZ    -201.9584

 Total job time:  337.87s(wall), 11394.63s(cpu)
        *  Thank you very much for using Q-Chem.  Have a nice day.  *
