 Q-Chem 5.4, Q-Chem, Inc., Pleasanton, CA (2021)
 Q-Chem 5.4.0 for Intel X86 EM64T Linux

User input:
--------------------------------------------------------------
$molecule
0 1
C	0.136647	-8.519741	-0.235306
C	-0.221346	-7.635967	0.772334
S	0.650746	-7.651740	-1.702286
C	-0.090779	-6.261894	0.408807
H	-0.573754	-7.954738	1.761423
C	0.397735	-6.079985	-0.932876
C	0.568166	-4.798382	-1.479069
C	-0.418347	-5.153542	1.241204
C	-0.251852	-3.869626	0.693206
C	0.239872	-3.688927	-0.648921
O	-0.842486	-5.481075	2.493437
O	0.993092	-4.479871	-2.737331
C	1.884752	-5.356026	-3.416110
H	2.273124	-4.790496	-4.284447
H	1.373310	-6.268513	-3.793352
H	2.734702	-5.658187	-2.766716
C	-1.588030	-4.546999	3.264581
H	-1.974995	-5.107564	4.136519
H	-2.443843	-4.131473	2.690439
H	-0.955140	-3.712085	3.636177
C	0.367068	-2.314326	-1.009848
S	-0.517386	-2.295487	1.459936
C	-0.000000	-1.435180	-0.000000
H	0.721689	-1.993211	-1.997308
C	0.000000	0.000000	0.000000
S	0.451648	0.777811	1.510732
C	1.238377	2.142617	0.727629
C	0.454085	0.786559	-1.064665
C	1.147169	1.990043	-0.678287
C	0.422325	0.728240	-2.486150
C	1.054629	1.823683	-3.106916
S	1.675491	2.905718	-1.965735
C	1.185914	2.041729	-4.559972
O	0.721749	1.231802	-5.350277
O	1.830313	3.151386	-5.004375
F	-0.131347	-0.238577	-3.246290
C	2.018453	3.456956	-6.334976
H	2.571455	4.413580	-6.370268
H	1.052178	3.565244	-6.875609
H	2.601950	2.669768	-6.861878
H	1.698444	2.939346	1.321510
H	-0.712022	-9.146471	-0.533380
H	0.980494	-9.150570	0.067771
H	-1.017696	-1.444158	-0.361406
$end

$rem
JOBTYPE		SP
EXCHANGE	HF
CORRELATION	pRIMP2
BASIS		cc-pvtz
METHOD		rimp2
AUX_BASIS	rimp2-cc-pvtz
SOLVENT_METHOD	PCM
PURECART	11111
SYMMETRY	false
MEM_TOTAL	110000
SCF_CONVERGENCE = 6
THRESH=10
GUI = 2
$end

$solvent
dielectric 4.90
$end
--------------------------------------------------------------

             Standard Nuclear Orientation (Angstroms)
    I     Atom           X                Y                Z
 ----------------------------------------------------------------
    1      C       0.1366470000    -8.5197410000    -0.2353060000
    2      C      -0.2213460000    -7.6359670000     0.7723340000
    3      S       0.6507460000    -7.6517400000    -1.7022860000
    4      C      -0.0907790000    -6.2618940000     0.4088070000
    5      H      -0.5737540000    -7.9547380000     1.7614230000
    6      C       0.3977350000    -6.0799850000    -0.9328760000
    7      C       0.5681660000    -4.7983820000    -1.4790690000
    8      C      -0.4183470000    -5.1535420000     1.2412040000
    9      C      -0.2518520000    -3.8696260000     0.6932060000
   10      C       0.2398720000    -3.6889270000    -0.6489210000
   11      O      -0.8424860000    -5.4810750000     2.4934370000
   12      O       0.9930920000    -4.4798710000    -2.7373310000
   13      C       1.8847520000    -5.3560260000    -3.4161100000
   14      H       2.2731240000    -4.7904960000    -4.2844470000
   15      H       1.3733100000    -6.2685130000    -3.7933520000
   16      H       2.7347020000    -5.6581870000    -2.7667160000
   17      C      -1.5880300000    -4.5469990000     3.2645810000
   18      H      -1.9749950000    -5.1075640000     4.1365190000
   19      H      -2.4438430000    -4.1314730000     2.6904390000
   20      H      -0.9551400000    -3.7120850000     3.6361770000
   21      C       0.3670680000    -2.3143260000    -1.0098480000
   22      S      -0.5173860000    -2.2954870000     1.4599360000
   23      C       0.0000000000    -1.4351800000     0.0000000000
   24      H       0.7216890000    -1.9932110000    -1.9973080000
   25      C       0.0000000000     0.0000000000     0.0000000000
   26      S       0.4516480000     0.7778110000     1.5107320000
   27      C       1.2383770000     2.1426170000     0.7276290000
   28      C       0.4540850000     0.7865590000    -1.0646650000
   29      C       1.1471690000     1.9900430000    -0.6782870000
   30      C       0.4223250000     0.7282400000    -2.4861500000
   31      C       1.0546290000     1.8236830000    -3.1069160000
   32      S       1.6754910000     2.9057180000    -1.9657350000
   33      C       1.1859140000     2.0417290000    -4.5599720000
   34      O       0.7217490000     1.2318020000    -5.3502770000
   35      O       1.8303130000     3.1513860000    -5.0043750000
   36      F      -0.1313470000    -0.2385770000    -3.2462900000
   37      C       2.0184530000     3.4569560000    -6.3349760000
   38      H       2.5714550000     4.4135800000    -6.3702680000
   39      H       1.0521780000     3.5652440000    -6.8756090000
   40      H       2.6019500000     2.6697680000    -6.8618780000
   41      H       1.6984440000     2.9393460000     1.3215100000
   42      H      -0.7120220000    -9.1464710000    -0.5333800000
   43      H       0.9804940000    -9.1505700000     0.0677710000
   44      H      -1.0176960000    -1.4441580000    -0.3614060000
 ----------------------------------------------------------------

   11   -2755.3062009642      6.99e-07  Convergence criterion met
 Total energy in the final basis set =    -2755.3062009642
        RIMP2         total energy =     -2760.4055682533 a.u.

                    Orbital Energies (a.u.)
 --------------------------------------------------------------

 Alpha MOs
 -- Occupied --
-92.0140 -91.9958 -91.9818 -91.9588 -26.3392 -20.6122 -20.5889 -20.5870
-20.5499 -11.4103 -11.3792 -11.3148 -11.3105 -11.3097 -11.2982 -11.2969
-11.2918 -11.2887 -11.2858 -11.2851 -11.2829 -11.2822 -11.2813 -11.2736
-11.2730 -11.2594 -11.2593 -11.2505 -11.2393  -9.0127  -8.9998  -8.9840
 -8.9613  -6.6935  -6.6928  -6.6923  -6.6810  -6.6804  -6.6790  -6.6652
 -6.6643  -6.6630  -6.6426  -6.6416  -6.6406  -1.6530  -1.4719  -1.4121
 -1.4089  -1.3672  -1.2399  -1.2101  -1.1766  -1.1441  -1.1003  -1.0518
 -1.0476  -1.0294  -1.0096  -0.9996  -0.9723  -0.9601  -0.9497  -0.9411
 -0.8954  -0.8738  -0.8624  -0.8089  -0.7973  -0.7872  -0.7765  -0.7721
 -0.7624  -0.7347  -0.7228  -0.7191  -0.6985  -0.6937  -0.6851  -0.6788
 -0.6733  -0.6721  -0.6572  -0.6490  -0.6394  -0.6288  -0.6208  -0.6152
 -0.6101  -0.6065  -0.5960  -0.5941  -0.5789  -0.5699  -0.5595  -0.5546
 -0.5439  -0.5352  -0.5310  -0.5232  -0.5138  -0.5090  -0.5069  -0.5019
 -0.4858  -0.4839  -0.4774  -0.4687  -0.4622  -0.4611  -0.4599  -0.4472
 -0.4315  -0.3972  -0.3876  -0.3710  -0.3503  -0.2941  -0.2862  -0.2170

          Ground-State Mulliken Net Atomic Charges

     Atom                 Charge (a.u.)
  ----------------------------------------
      1 C                    -0.070619
      2 C                    -0.254349
      3 S                    -0.133672
      4 C                    -0.049584
      5 H                     0.194111
      6 C                    -0.051088
      7 C                     0.225202
      8 C                     0.234828
      9 C                    -0.073652
     10 C                    -0.039422
     11 O                    -0.333783
     12 O                    -0.342968
     13 C                    -0.083089
     14 H                     0.121239
     15 H                     0.092215
     16 H                     0.092550
     17 C                    -0.088216
     18 H                     0.124949
     19 H                     0.093336
     20 H                     0.090019
     21 C                    -0.308994
     22 S                    -0.097469
     23 C                     0.115036
     24 H                     0.205415
     25 C                    -0.041705
     26 S                     0.104836
     27 C                    -0.252024
     28 C                    -0.107233
     29 C                    -0.005794
     30 C                     0.355830
     31 C                    -0.143613
     32 S                     0.045705
     33 C                     0.460322
     34 O                    -0.451996
     35 O                    -0.298356
     36 F                    -0.214757
     37 C                    -0.054923
     38 H                     0.116726
     39 H                     0.084497
     40 H                     0.084411
     41 H                     0.214625
     42 H                     0.118262
     43 H                     0.115876
     44 H                     0.207315
  ----------------------------------------
  Sum of atomic charges =     0.000000

                    Cartesian Multipole Moments
 -----------------------------------------------------------------
    Charge (ESU x 10^10)
                -0.0000
    Dipole Moment (Debye)
         X       1.0001      Y       2.3007      Z       3.2863
       Tot       4.1344
    Quadrupole Moments (Debye-Ang)
        XX    -190.2468     XY       8.2710     YY    -174.6515
        XZ     -14.6920     YZ     -13.1621     ZZ    -195.3550

 Total job time:  362.65s(wall), 12547.91s(cpu)
        *  Thank you very much for using Q-Chem.  Have a nice day.  *
