 Q-Chem 5.4, Q-Chem, Inc., Pleasanton, CA (2021)
 Q-Chem 5.4.0 for Intel X86 EM64T Linux

User input:
--------------------------------------------------------------
$molecule
0 1
C	0.255929	-8.519741	-0.092419
C	-0.666007	-7.635967	0.449364
S	1.592708	-7.651740	-0.885736
C	-0.332317	-6.261894	0.254813
H	-1.571741	-7.954738	0.980526
C	0.904324	-6.079985	-0.458965
C	1.385968	-4.798382	-0.767823
C	-1.118303	-5.153542	0.681909
C	-0.638514	-3.869626	0.369139
C	0.600871	-3.688927	-0.342916
O	-2.248132	-5.481075	1.368544
O	2.520275	-4.479871	-1.458570
C	3.639637	-5.356026	-1.405396
H	4.495304	-4.790496	-1.820940
H	3.490336	-6.268513	-2.023129
H	3.873314	-5.658187	-0.361595
C	-3.314934	-4.546999	1.480048
H	-4.171837	-5.107564	1.899255
H	-3.601473	-4.131473	0.490123
H	-3.068969	-3.712085	2.171521
C	0.930308	-2.314326	-0.537642
S	-1.334769	-2.295487	0.785807
C	-0.000000	-1.435180	-0.000000
H	1.836691	-1.993211	-1.066134
C	0.000000	0.000000	0.000000
S	0.690437	0.576430	1.510732
C	1.896512	1.589852	0.727629
C	0.695720	0.583817	-1.064665
C	1.758621	1.477674	-0.678287
C	0.645928	0.539878	-2.486150
C	1.614763	1.352997	-3.106916
S	2.568261	2.157430	-1.965735
C	1.812707	1.512991	-4.559972
O	1.099523	0.910662	-5.350277
O	2.797769	2.335330	-5.004375
F	-0.205024	-0.179266	-3.246290
C	3.079074	2.558124	-6.334976
H	3.925910	3.267919	-6.370268
H	2.208109	2.990367	-6.875609
H	3.358147	1.618843	-6.861878
H	2.601331	2.181180	1.321510
H	-0.202590	-9.146471	-0.866272
H	0.707539	-9.150570	0.682165
H	-0.547293	-1.444158	-0.931016
$end

$rem
JOBTYPE		SP
EXCHANGE	HF
CORRELATION	pRIMP2
BASIS		cc-pvtz
METHOD		rimp2
AUX_BASIS	rimp2-cc-pvtz
SOLVENT_METHOD	PCM
PURECART	11111
SYMMETRY	false
MEM_TOTAL	110000
SCF_CONVERGENCE = 6
THRESH=10
GUI = 2
$end

$solvent
dielectric 4.90
$end
--------------------------------------------------------------

             Standard Nuclear Orientation (Angstroms)
    I     Atom           X                Y                Z
 ----------------------------------------------------------------
    1      C       0.2559290000    -8.5197410000    -0.0924190000
    2      C      -0.6660070000    -7.6359670000     0.4493640000
    3      S       1.5927080000    -7.6517400000    -0.8857360000
    4      C      -0.3323170000    -6.2618940000     0.2548130000
    5      H      -1.5717410000    -7.9547380000     0.9805260000
    6      C       0.9043240000    -6.0799850000    -0.4589650000
    7      C       1.3859680000    -4.7983820000    -0.7678230000
    8      C      -1.1183030000    -5.1535420000     0.6819090000
    9      C      -0.6385140000    -3.8696260000     0.3691390000
   10      C       0.6008710000    -3.6889270000    -0.3429160000
   11      O      -2.2481320000    -5.4810750000     1.3685440000
   12      O       2.5202750000    -4.4798710000    -1.4585700000
   13      C       3.6396370000    -5.3560260000    -1.4053960000
   14      H       4.4953040000    -4.7904960000    -1.8209400000
   15      H       3.4903360000    -6.2685130000    -2.0231290000
   16      H       3.8733140000    -5.6581870000    -0.3615950000
   17      C      -3.3149340000    -4.5469990000     1.4800480000
   18      H      -4.1718370000    -5.1075640000     1.8992550000
   19      H      -3.6014730000    -4.1314730000     0.4901230000
   20      H      -3.0689690000    -3.7120850000     2.1715210000
   21      C       0.9303080000    -2.3143260000    -0.5376420000
   22      S      -1.3347690000    -2.2954870000     0.7858070000
   23      C       0.0000000000    -1.4351800000     0.0000000000
   24      H       1.8366910000    -1.9932110000    -1.0661340000
   25      C       0.0000000000     0.0000000000     0.0000000000
   26      S       0.6904370000     0.5764300000     1.5107320000
   27      C       1.8965120000     1.5898520000     0.7276290000
   28      C       0.6957200000     0.5838170000    -1.0646650000
   29      C       1.7586210000     1.4776740000    -0.6782870000
   30      C       0.6459280000     0.5398780000    -2.4861500000
   31      C       1.6147630000     1.3529970000    -3.1069160000
   32      S       2.5682610000     2.1574300000    -1.9657350000
   33      C       1.8127070000     1.5129910000    -4.5599720000
   34      O       1.0995230000     0.9106620000    -5.3502770000
   35      O       2.7977690000     2.3353300000    -5.0043750000
   36      F      -0.2050240000    -0.1792660000    -3.2462900000
   37      C       3.0790740000     2.5581240000    -6.3349760000
   38      H       3.9259100000     3.2679190000    -6.3702680000
   39      H       2.2081090000     2.9903670000    -6.8756090000
   40      H       3.3581470000     1.6188430000    -6.8618780000
   41      H       2.6013310000     2.1811800000     1.3215100000
   42      H      -0.2025900000    -9.1464710000    -0.8662720000
   43      H       0.7075390000    -9.1505700000     0.6821650000
   44      H      -0.5472930000    -1.4441580000    -0.9310160000
 ----------------------------------------------------------------

   11   -2755.2848045006      7.06e-07  Convergence criterion met
 Total energy in the final basis set =    -2755.2848045006
        RIMP2         total energy =     -2760.3906369609 a.u.

                    Orbital Energies (a.u.)
 --------------------------------------------------------------

 Alpha MOs
 -- Occupied --
-92.0115 -92.0052 -91.9726 -91.9564 -26.3386 -20.6162 -20.5863 -20.5846
-20.5569 -11.4164 -11.3794 -11.3179 -11.3107 -11.3079 -11.3034 -11.3018
-11.2943 -11.2907 -11.2865 -11.2827 -11.2822 -11.2803 -11.2751 -11.2711
-11.2704 -11.2562 -11.2544 -11.2477 -11.2328  -9.0109  -9.0088  -8.9748
 -8.9590  -6.6915  -6.6906  -6.6905  -6.6900  -6.6894  -6.6881  -6.6559
 -6.6551  -6.6539  -6.6402  -6.6393  -6.6383  -1.6517  -1.4764  -1.4086
 -1.4074  -1.3724  -1.2464  -1.2065  -1.1740  -1.1463  -1.0984  -1.0556
 -1.0437  -1.0330  -1.0068  -0.9955  -0.9755  -0.9592  -0.9479  -0.9412
 -0.8917  -0.8773  -0.8589  -0.8084  -0.7974  -0.7839  -0.7809  -0.7726
 -0.7595  -0.7336  -0.7213  -0.7177  -0.6975  -0.6935  -0.6856  -0.6822
 -0.6783  -0.6738  -0.6543  -0.6473  -0.6347  -0.6262  -0.6182  -0.6143
 -0.6115  -0.6107  -0.6026  -0.5940  -0.5798  -0.5668  -0.5564  -0.5558
 -0.5436  -0.5330  -0.5275  -0.5227  -0.5114  -0.5064  -0.5051  -0.5000
 -0.4909  -0.4830  -0.4691  -0.4684  -0.4651  -0.4644  -0.4569  -0.4438
 -0.4195  -0.4012  -0.3821  -0.3680  -0.3511  -0.3009  -0.2871  -0.2167

          Ground-State Mulliken Net Atomic Charges

     Atom                 Charge (a.u.)
  ----------------------------------------
      1 C                    -0.069493
      2 C                    -0.270827
      3 S                    -0.139400
      4 C                    -0.042377
      5 H                     0.191963
      6 C                    -0.053337
      7 C                     0.224414
      8 C                     0.223910
      9 C                    -0.072576
     10 C                    -0.046343
     11 O                    -0.335902
     12 O                    -0.343967
     13 C                    -0.082539
     14 H                     0.119334
     15 H                     0.092253
     16 H                     0.092459
     17 C                    -0.086962
     18 H                     0.123058
     19 H                     0.092048
     20 H                     0.089803
     21 C                    -0.286219
     22 S                    -0.097903
     23 C                     0.084739
     24 H                     0.205290
     25 C                    -0.145924
     26 S                     0.110424
     27 C                    -0.168196
     28 C                    -0.105703
     29 C                    -0.014922
     30 C                     0.391363
     31 C                    -0.125708
     32 S                     0.068226
     33 C                     0.459036
     34 O                    -0.440153
     35 O                    -0.296827
     36 F                    -0.213075
     37 C                    -0.054652
     38 H                     0.117534
     39 H                     0.085695
     40 H                     0.085780
     41 H                     0.218835
     42 H                     0.115965
     43 H                     0.113409
     44 H                     0.187468
  ----------------------------------------
  Sum of atomic charges =     0.000000

                    Cartesian Multipole Moments
 -----------------------------------------------------------------
    Charge (ESU x 10^10)
                 0.0000
    Dipole Moment (Debye)
         X       3.7914      Y       4.3194      Z       2.0863
       Tot       6.1143
    Quadrupole Moments (Debye-Ang)
        XX    -172.4160     XY      12.6956     YY    -188.4895
        XZ     -13.0693     YZ      -9.6722     ZZ    -202.5411

 Total job time:  334.01s(wall), 10870.45s(cpu)
        *  Thank you very much for using Q-Chem.  Have a nice day.  *
