 Q-Chem 5.4, Q-Chem, Inc., Pleasanton, CA (2021)
 Q-Chem 5.4.0 for Intel X86 EM64T Linux

User input:
--------------------------------------------------------------
$molecule
0 1
C	-0.267851	-8.519741	-0.047927
C	0.801461	-7.635967	-0.056157
S	-1.822194	-7.651740	-0.029285
C	0.415201	-6.261894	-0.054516
H	1.851431	-7.954738	-0.063290
C	-1.012650	-6.079985	-0.054687
C	-1.584194	-4.798382	-0.028030
C	1.309433	-5.153542	-0.031399
C	0.737539	-3.869626	-0.000427
C	-0.691828	-3.688927	-0.003462
O	2.631211	-5.481075	-0.061128
O	-2.911907	-4.479871	0.003021
C	-3.854716	-5.356026	-0.602710
H	-4.803517	-4.790496	-0.670671
H	-4.034285	-6.268513	0.006913
H	-3.535185	-5.658187	-1.623507
C	3.610841	-4.546999	0.375708
H	4.562544	-5.107564	0.441115
H	3.364029	-4.131473	1.376277
H	3.743566	-3.712085	-0.346107
C	-1.074491	-2.314326	0.000458
S	1.548848	-2.295487	-0.013144
C	-0.000000	-1.435180	-0.000000
H	-2.123688	-1.993211	0.004953
C	0.000000	0.000000	0.000000
S	0.451648	0.777811	1.510732
C	1.238377	2.142617	0.727629
C	0.454085	0.786559	-1.064665
C	1.147169	1.990043	-0.678287
C	0.422325	0.728240	-2.486150
C	1.054629	1.823683	-3.106916
S	1.675491	2.905718	-1.965735
C	1.185914	2.041729	-4.559972
O	0.721749	1.231802	-5.350277
O	1.830313	3.151386	-5.004375
F	-0.131347	-0.238577	-3.246290
C	2.018453	3.456956	-6.334976
H	2.571455	4.413580	-6.370268
H	1.052178	3.565244	-6.875609
H	2.601950	2.669768	-6.861878
H	1.698444	2.939346	1.321510
H	-0.257688	-9.146471	0.851509
H	-0.271664	-9.150570	-0.944542
H	0.008462	-1.444158	1.079930
$end

$rem
JOBTYPE		SP
EXCHANGE	HF
CORRELATION	pRIMP2
BASIS		cc-pvtz
METHOD		rimp2
AUX_BASIS	rimp2-cc-pvtz
SOLVENT_METHOD	PCM
PURECART	11111
SYMMETRY	false
MEM_TOTAL	110000
SCF_CONVERGENCE = 6
THRESH=10
GUI = 2
$end

$solvent
dielectric 4.90
$end
--------------------------------------------------------------

             Standard Nuclear Orientation (Angstroms)
    I     Atom           X                Y                Z
 ----------------------------------------------------------------
    1      C      -0.2678510000    -8.5197410000    -0.0479270000
    2      C       0.8014610000    -7.6359670000    -0.0561570000
    3      S      -1.8221940000    -7.6517400000    -0.0292850000
    4      C       0.4152010000    -6.2618940000    -0.0545160000
    5      H       1.8514310000    -7.9547380000    -0.0632900000
    6      C      -1.0126500000    -6.0799850000    -0.0546870000
    7      C      -1.5841940000    -4.7983820000    -0.0280300000
    8      C       1.3094330000    -5.1535420000    -0.0313990000
    9      C       0.7375390000    -3.8696260000    -0.0004270000
   10      C      -0.6918280000    -3.6889270000    -0.0034620000
   11      O       2.6312110000    -5.4810750000    -0.0611280000
   12      O      -2.9119070000    -4.4798710000     0.0030210000
   13      C      -3.8547160000    -5.3560260000    -0.6027100000
   14      H      -4.8035170000    -4.7904960000    -0.6706710000
   15      H      -4.0342850000    -6.2685130000     0.0069130000
   16      H      -3.5351850000    -5.6581870000    -1.6235070000
   17      C       3.6108410000    -4.5469990000     0.3757080000
   18      H       4.5625440000    -5.1075640000     0.4411150000
   19      H       3.3640290000    -4.1314730000     1.3762770000
   20      H       3.7435660000    -3.7120850000    -0.3461070000
   21      C      -1.0744910000    -2.3143260000     0.0004580000
   22      S       1.5488480000    -2.2954870000    -0.0131440000
   23      C       0.0000000000    -1.4351800000     0.0000000000
   24      H      -2.1236880000    -1.9932110000     0.0049530000
   25      C       0.0000000000     0.0000000000     0.0000000000
   26      S       0.4516480000     0.7778110000     1.5107320000
   27      C       1.2383770000     2.1426170000     0.7276290000
   28      C       0.4540850000     0.7865590000    -1.0646650000
   29      C       1.1471690000     1.9900430000    -0.6782870000
   30      C       0.4223250000     0.7282400000    -2.4861500000
   31      C       1.0546290000     1.8236830000    -3.1069160000
   32      S       1.6754910000     2.9057180000    -1.9657350000
   33      C       1.1859140000     2.0417290000    -4.5599720000
   34      O       0.7217490000     1.2318020000    -5.3502770000
   35      O       1.8303130000     3.1513860000    -5.0043750000
   36      F      -0.1313470000    -0.2385770000    -3.2462900000
   37      C       2.0184530000     3.4569560000    -6.3349760000
   38      H       2.5714550000     4.4135800000    -6.3702680000
   39      H       1.0521780000     3.5652440000    -6.8756090000
   40      H       2.6019500000     2.6697680000    -6.8618780000
   41      H       1.6984440000     2.9393460000     1.3215100000
   42      H      -0.2576880000    -9.1464710000     0.8515090000
   43      H      -0.2716640000    -9.1505700000    -0.9445420000
   44      H       0.0084620000    -1.4441580000     1.0799300000
 ----------------------------------------------------------------

   11   -2755.3101950622      7.21e-07  Convergence criterion met
 Total energy in the final basis set =    -2755.3101950622
        RIMP2         total energy =     -2760.4057842339 a.u.

                    Orbital Energies (a.u.)
 --------------------------------------------------------------

 Alpha MOs
 -- Occupied --
-92.0186 -91.9984 -91.9763 -91.9566 -26.3353 -20.6138 -20.5863 -20.5858
-20.5530 -11.4128 -11.3773 -11.3081 -11.3055 -11.3047 -11.3032 -11.3016
-11.2984 -11.2894 -11.2843 -11.2839 -11.2820 -11.2819 -11.2781 -11.2710
-11.2706 -11.2569 -11.2543 -11.2482 -11.2341  -9.0172  -9.0023  -8.9786
 -8.9593  -6.6979  -6.6972  -6.6968  -6.6835  -6.6829  -6.6816  -6.6596
 -6.6588  -6.6575  -6.6405  -6.6396  -6.6385  -1.6482  -1.4737  -1.4093
 -1.4080  -1.3694  -1.2403  -1.2078  -1.1743  -1.1449  -1.0978  -1.0514
 -1.0444  -1.0324  -1.0075  -0.9961  -0.9738  -0.9594  -0.9477  -0.9400
 -0.8922  -0.8729  -0.8626  -0.8085  -0.7941  -0.7838  -0.7772  -0.7747
 -0.7642  -0.7331  -0.7211  -0.7167  -0.6964  -0.6932  -0.6804  -0.6799
 -0.6739  -0.6638  -0.6554  -0.6477  -0.6316  -0.6292  -0.6187  -0.6140
 -0.6113  -0.6085  -0.5980  -0.5924  -0.5797  -0.5633  -0.5596  -0.5549
 -0.5457  -0.5355  -0.5285  -0.5218  -0.5120  -0.5066  -0.5043  -0.5003
 -0.4886  -0.4853  -0.4744  -0.4705  -0.4637  -0.4626  -0.4601  -0.4452
 -0.4216  -0.4030  -0.3841  -0.3689  -0.3503  -0.2947  -0.2884  -0.2193

          Ground-State Mulliken Net Atomic Charges

     Atom                 Charge (a.u.)
  ----------------------------------------
      1 C                    -0.069685
      2 C                    -0.266991
      3 S                    -0.138920
      4 C                    -0.042191
      5 H                     0.192464
      6 C                    -0.054601
      7 C                     0.224869
      8 C                     0.223115
      9 C                    -0.073980
     10 C                    -0.048627
     11 O                    -0.334918
     12 O                    -0.343154
     13 C                    -0.082286
     14 H                     0.119674
     15 H                     0.091503
     16 H                     0.093252
     17 C                    -0.086830
     18 H                     0.123109
     19 H                     0.091330
     20 H                     0.090358
     21 C                    -0.258879
     22 S                    -0.073122
     23 C                     0.022207
     24 H                     0.204310
     25 C                    -0.032850
     26 S                     0.106151
     27 C                    -0.215070
     28 C                    -0.114025
     29 C                     0.004666
     30 C                     0.370649
     31 C                    -0.145192
     32 S                     0.050683
     33 C                     0.458087
     34 O                    -0.445050
     35 O                    -0.297375
     36 F                    -0.210446
     37 C                    -0.054949
     38 H                     0.116946
     39 H                     0.085027
     40 H                     0.085212
     41 H                     0.218114
     42 H                     0.116039
     43 H                     0.114031
     44 H                     0.187343
  ----------------------------------------
  Sum of atomic charges =     0.000000

                    Cartesian Multipole Moments
 -----------------------------------------------------------------
    Charge (ESU x 10^10)
                -0.0000
    Dipole Moment (Debye)
         X       2.2501      Y       4.3493      Z       3.5410
       Tot       6.0430
    Quadrupole Moments (Debye-Ang)
        XX    -180.7570     XY       3.9055     YY    -181.7790
        XZ      -0.1857     YZ      -9.6674     ZZ    -202.7595

 Total job time:  326.05s(wall), 10605.98s(cpu)
        *  Thank you very much for using Q-Chem.  Have a nice day.  *
