 Q-Chem 5.4, Q-Chem, Inc., Pleasanton, CA (2021)
 Q-Chem 5.4.0 for Intel X86 EM64T Linux

User input:
--------------------------------------------------------------
$molecule
0 1
C	-0.255459	-8.519741	-0.093711
C	0.799036	-7.635967	0.083869
S	-1.789425	-7.651740	-0.345260
C	0.418360	-6.261894	0.018411
H	1.834294	-7.954738	0.259169
C	-0.987769	-6.079985	-0.229701
C	-1.555260	-4.798382	-0.302697
C	1.294992	-5.153542	0.196459
C	0.726408	-3.869626	0.127651
C	-0.680716	-3.688927	-0.123544
O	2.601852	-5.481075	0.396706
O	-2.868193	-4.479871	-0.502673
C	-3.691495	-5.356026	-1.262918
H	-4.614080	-4.790496	-1.494604
H	-3.974195	-6.268513	-0.693738
H	-3.199559	-5.658187	-2.212720
C	3.490743	-4.546999	0.997016
H	4.416630	-5.107564	1.226691
H	3.073934	-4.131473	1.939526
H	3.746794	-3.712085	0.309214
C	-1.058247	-2.314326	-0.186133
S	1.527599	-2.295487	0.256010
C	-0.000000	-1.435180	-0.000000
H	-2.092285	-1.993211	-0.363896
C	0.000000	0.000000	0.000000
S	0.158383	0.885376	1.510732
C	0.430876	2.436951	0.727629
C	0.157682	0.894430	-1.064665
C	0.397351	2.262384	-0.678287
C	0.147783	0.828765	-2.486150
C	0.367291	2.074406	-3.106916
S	0.580633	3.303533	-1.965735
C	0.416083	2.324204	-4.559972
O	0.256921	1.404367	-5.350277
O	0.642094	3.587338	-5.004375
F	-0.041828	-0.269113	-3.246290
C	0.714377	3.938827	-6.334976
H	0.906844	5.026898	-6.370268
H	-0.230661	3.710099	-6.875609
H	1.531918	3.398681	-6.861878
H	0.590699	3.342984	1.321510
H	-0.401636	-9.146471	0.793825
H	-0.103519	-9.150570	-0.977367
H	-0.179195	-1.444158	1.064992
$end

$rem
JOBTYPE		SP
EXCHANGE	HF
CORRELATION	pRIMP2
BASIS		cc-pvtz
METHOD		rimp2
AUX_BASIS	rimp2-cc-pvtz
SOLVENT_METHOD	PCM
PURECART	11111
SYMMETRY	false
MEM_TOTAL	110000
SCF_CONVERGENCE = 6
THRESH=10
GUI = 2
$end

$solvent
dielectric 4.90
$end
--------------------------------------------------------------

             Standard Nuclear Orientation (Angstroms)
    I     Atom           X                Y                Z
 ----------------------------------------------------------------
    1      C      -0.2554590000    -8.5197410000    -0.0937110000
    2      C       0.7990360000    -7.6359670000     0.0838690000
    3      S      -1.7894250000    -7.6517400000    -0.3452600000
    4      C       0.4183600000    -6.2618940000     0.0184110000
    5      H       1.8342940000    -7.9547380000     0.2591690000
    6      C      -0.9877690000    -6.0799850000    -0.2297010000
    7      C      -1.5552600000    -4.7983820000    -0.3026970000
    8      C       1.2949920000    -5.1535420000     0.1964590000
    9      C       0.7264080000    -3.8696260000     0.1276510000
   10      C      -0.6807160000    -3.6889270000    -0.1235440000
   11      O       2.6018520000    -5.4810750000     0.3967060000
   12      O      -2.8681930000    -4.4798710000    -0.5026730000
   13      C      -3.6914950000    -5.3560260000    -1.2629180000
   14      H      -4.6140800000    -4.7904960000    -1.4946040000
   15      H      -3.9741950000    -6.2685130000    -0.6937380000
   16      H      -3.1995590000    -5.6581870000    -2.2127200000
   17      C       3.4907430000    -4.5469990000     0.9970160000
   18      H       4.4166300000    -5.1075640000     1.2266910000
   19      H       3.0739340000    -4.1314730000     1.9395260000
   20      H       3.7467940000    -3.7120850000     0.3092140000
   21      C      -1.0582470000    -2.3143260000    -0.1861330000
   22      S       1.5275990000    -2.2954870000     0.2560100000
   23      C       0.0000000000    -1.4351800000     0.0000000000
   24      H      -2.0922850000    -1.9932110000    -0.3638960000
   25      C       0.0000000000     0.0000000000     0.0000000000
   26      S       0.1583830000     0.8853760000     1.5107320000
   27      C       0.4308760000     2.4369510000     0.7276290000
   28      C       0.1576820000     0.8944300000    -1.0646650000
   29      C       0.3973510000     2.2623840000    -0.6782870000
   30      C       0.1477830000     0.8287650000    -2.4861500000
   31      C       0.3672910000     2.0744060000    -3.1069160000
   32      S       0.5806330000     3.3035330000    -1.9657350000
   33      C       0.4160830000     2.3242040000    -4.5599720000
   34      O       0.2569210000     1.4043670000    -5.3502770000
   35      O       0.6420940000     3.5873380000    -5.0043750000
   36      F      -0.0418280000    -0.2691130000    -3.2462900000
   37      C       0.7143770000     3.9388270000    -6.3349760000
   38      H       0.9068440000     5.0268980000    -6.3702680000
   39      H      -0.2306610000     3.7100990000    -6.8756090000
   40      H       1.5319180000     3.3986810000    -6.8618780000
   41      H       0.5906990000     3.3429840000     1.3215100000
   42      H      -0.4016360000    -9.1464710000     0.7938250000
   43      H      -0.1035190000    -9.1505700000    -0.9773670000
   44      H      -0.1791950000    -1.4441580000     1.0649920000
 ----------------------------------------------------------------

   11   -2755.3252721038      7.42e-07  Convergence criterion met
 Total energy in the final basis set =    -2755.3252721038
        RIMP2         total energy =     -2760.4157980227 a.u.

                    Orbital Energies (a.u.)
 --------------------------------------------------------------

 Alpha MOs
 -- Occupied --
-92.0196 -91.9959 -91.9775 -91.9577 -26.3354 -20.6129 -20.5868 -20.5866
-20.5513 -11.4114 -11.3776 -11.3105 -11.3087 -11.3068 -11.2995 -11.2982
-11.2971 -11.2889 -11.2844 -11.2828 -11.2823 -11.2813 -11.2806 -11.2723
-11.2722 -11.2579 -11.2571 -11.2492 -11.2362  -9.0179  -8.9999  -8.9798
 -8.9603  -6.6986  -6.6980  -6.6975  -6.6812  -6.6805  -6.6792  -6.6609
 -6.6599  -6.6587  -6.6415  -6.6406  -6.6396  -1.6483  -1.4726  -1.4101
 -1.4085  -1.3681  -1.2380  -1.2088  -1.1750  -1.1441  -1.0990  -1.0502
 -1.0455  -1.0313  -1.0083  -0.9973  -0.9728  -0.9595  -0.9483  -0.9403
 -0.8930  -0.8716  -0.8645  -0.8081  -0.7939  -0.7847  -0.7777  -0.7741
 -0.7652  -0.7331  -0.7214  -0.7165  -0.6971  -0.6924  -0.6813  -0.6792
 -0.6727  -0.6640  -0.6560  -0.6482  -0.6317  -0.6306  -0.6196  -0.6145
 -0.6110  -0.6073  -0.5959  -0.5924  -0.5821  -0.5650  -0.5589  -0.5541
 -0.5487  -0.5355  -0.5283  -0.5224  -0.5129  -0.5072  -0.5036  -0.5011
 -0.4878  -0.4860  -0.4775  -0.4705  -0.4624  -0.4619  -0.4608  -0.4459
 -0.4230  -0.4030  -0.3850  -0.3699  -0.3510  -0.2925  -0.2889  -0.2207

          Ground-State Mulliken Net Atomic Charges

     Atom                 Charge (a.u.)
  ----------------------------------------
      1 C                    -0.070153
      2 C                    -0.260988
      3 S                    -0.136138
      4 C                    -0.043125
      5 H                     0.193216
      6 C                    -0.052606
      7 C                     0.228095
      8 C                     0.223997
      9 C                    -0.077099
     10 C                    -0.054848
     11 O                    -0.334849
     12 O                    -0.343503
     13 C                    -0.082340
     14 H                     0.119926
     15 H                     0.091598
     16 H                     0.093353
     17 C                    -0.086548
     18 H                     0.123078
     19 H                     0.091640
     20 H                     0.090595
     21 C                    -0.249356
     22 S                    -0.070883
     23 C                     0.060351
     24 H                     0.204006
     25 C                    -0.080618
     26 S                     0.104006
     27 C                    -0.237259
     28 C                    -0.081387
     29 C                    -0.000459
     30 C                     0.385835
     31 C                    -0.154383
     32 S                     0.040911
     33 C                     0.459752
     34 O                    -0.448263
     35 O                    -0.297564
     36 F                    -0.212021
     37 C                    -0.055030
     38 H                     0.116696
     39 H                     0.084733
     40 H                     0.084836
     41 H                     0.216901
     42 H                     0.116980
     43 H                     0.114978
     44 H                     0.183938
  ----------------------------------------
  Sum of atomic charges =     0.000000

                    Cartesian Multipole Moments
 -----------------------------------------------------------------
    Charge (ESU x 10^10)
                -0.0000
    Dipole Moment (Debye)
         X       0.6770      Y       3.8898      Z       3.7379
       Tot       5.4370
    Quadrupole Moments (Debye-Ang)
        XX    -186.8530     XY      -0.8380     YY    -175.3997
        XZ       5.8671     YZ     -11.2531     ZZ    -201.4763

 Total job time:  339.12s(wall), 10423.92s(cpu)
        *  Thank you very much for using Q-Chem.  Have a nice day.  *
