 Q-Chem 5.4, Q-Chem, Inc., Pleasanton, CA (2021)
 Q-Chem 5.4.0 for Intel X86 EM64T Linux

User input:
--------------------------------------------------------------
$molecule
0 1
C	-0.208002	-8.519741	-0.175432
C	0.722164	-7.635967	0.352097
S	-1.563424	-7.651740	-0.936458
C	0.386833	-6.261894	0.160388
H	1.635031	-7.954738	0.870905
C	-0.849637	-6.079985	-0.553685
C	-1.357938	-4.798382	-0.816372
C	1.149702	-5.153542	0.627524
C	0.638941	-3.869626	0.368399
C	-0.597409	-3.688927	-0.348912
O	2.309260	-5.481075	1.262667
O	-2.523296	-4.479871	-1.453338
C	-3.036927	-5.356026	-2.449320
H	-3.824632	-4.790496	-2.982577
H	-3.497250	-6.268513	-2.011155
H	-2.249807	-5.658187	-3.173591
C	2.939226	-4.546999	2.130793
H	3.730721	-5.107564	2.663289
H	2.225196	-4.131473	2.873906
H	3.415077	-3.712085	1.572045
C	-0.930765	-2.314326	-0.536849
S	1.347913	-2.295487	0.763041
C	-0.000000	-1.435180	-0.000000
H	-1.841645	-1.993211	-1.057554
C	0.000000	0.000000	0.000000
S	0.451648	0.777811	1.510732
C	1.238377	2.142617	0.727629
C	0.454085	0.786559	-1.064665
C	1.147169	1.990043	-0.678287
C	0.422325	0.728240	-2.486150
C	1.054629	1.823683	-3.106916
S	1.675491	2.905718	-1.965735
C	1.185914	2.041729	-4.559972
O	0.721749	1.231802	-5.350277
O	1.830313	3.151386	-5.004375
F	-0.131347	-0.238577	-3.246290
C	2.018453	3.456956	-6.334976
H	2.571455	4.413580	-6.370268
H	1.052178	3.565244	-6.875609
H	2.601950	2.669768	-6.861878
H	1.698444	2.939346	1.321510
H	-0.648918	-9.146471	0.608584
H	0.237003	-9.150570	-0.953830
H	-0.532637	-1.444158	0.939477
$end

$rem
JOBTYPE		SP
EXCHANGE	HF
CORRELATION	pRIMP2
BASIS		cc-pvtz
METHOD		rimp2
AUX_BASIS	rimp2-cc-pvtz
SOLVENT_METHOD	PCM
PURECART	11111
SYMMETRY	false
MEM_TOTAL	110000
SCF_CONVERGENCE = 6
THRESH=10
GUI = 2
$end

$solvent
dielectric 4.90
$end
--------------------------------------------------------------

             Standard Nuclear Orientation (Angstroms)
    I     Atom           X                Y                Z
 ----------------------------------------------------------------
    1      C      -0.2080020000    -8.5197410000    -0.1754320000
    2      C       0.7221640000    -7.6359670000     0.3520970000
    3      S      -1.5634240000    -7.6517400000    -0.9364580000
    4      C       0.3868330000    -6.2618940000     0.1603880000
    5      H       1.6350310000    -7.9547380000     0.8709050000
    6      C      -0.8496370000    -6.0799850000    -0.5536850000
    7      C      -1.3579380000    -4.7983820000    -0.8163720000
    8      C       1.1497020000    -5.1535420000     0.6275240000
    9      C       0.6389410000    -3.8696260000     0.3683990000
   10      C      -0.5974090000    -3.6889270000    -0.3489120000
   11      O       2.3092600000    -5.4810750000     1.2626670000
   12      O      -2.5232960000    -4.4798710000    -1.4533380000
   13      C      -3.0369270000    -5.3560260000    -2.4493200000
   14      H      -3.8246320000    -4.7904960000    -2.9825770000
   15      H      -3.4972500000    -6.2685130000    -2.0111550000
   16      H      -2.2498070000    -5.6581870000    -3.1735910000
   17      C       2.9392260000    -4.5469990000     2.1307930000
   18      H       3.7307210000    -5.1075640000     2.6632890000
   19      H       2.2251960000    -4.1314730000     2.8739060000
   20      H       3.4150770000    -3.7120850000     1.5720450000
   21      C      -0.9307650000    -2.3143260000    -0.5368490000
   22      S       1.3479130000    -2.2954870000     0.7630410000
   23      C       0.0000000000    -1.4351800000     0.0000000000
   24      H      -1.8416450000    -1.9932110000    -1.0575540000
   25      C       0.0000000000     0.0000000000     0.0000000000
   26      S       0.4516480000     0.7778110000     1.5107320000
   27      C       1.2383770000     2.1426170000     0.7276290000
   28      C       0.4540850000     0.7865590000    -1.0646650000
   29      C       1.1471690000     1.9900430000    -0.6782870000
   30      C       0.4223250000     0.7282400000    -2.4861500000
   31      C       1.0546290000     1.8236830000    -3.1069160000
   32      S       1.6754910000     2.9057180000    -1.9657350000
   33      C       1.1859140000     2.0417290000    -4.5599720000
   34      O       0.7217490000     1.2318020000    -5.3502770000
   35      O       1.8303130000     3.1513860000    -5.0043750000
   36      F      -0.1313470000    -0.2385770000    -3.2462900000
   37      C       2.0184530000     3.4569560000    -6.3349760000
   38      H       2.5714550000     4.4135800000    -6.3702680000
   39      H       1.0521780000     3.5652440000    -6.8756090000
   40      H       2.6019500000     2.6697680000    -6.8618780000
   41      H       1.6984440000     2.9393460000     1.3215100000
   42      H      -0.6489180000    -9.1464710000     0.6085840000
   43      H       0.2370030000    -9.1505700000    -0.9538300000
   44      H      -0.5326370000    -1.4441580000     0.9394770000
 ----------------------------------------------------------------

   11   -2755.3098883346      7.28e-07  Convergence criterion met
 Total energy in the final basis set =    -2755.3098883346
        RIMP2         total energy =     -2760.4063285649 a.u.

                    Orbital Energies (a.u.)
 --------------------------------------------------------------

 Alpha MOs
 -- Occupied --
-92.0184 -91.9978 -91.9770 -91.9568 -26.3358 -20.6136 -20.5861 -20.5859
-20.5526 -11.4125 -11.3775 -11.3081 -11.3053 -11.3035 -11.3033 -11.3021
-11.2983 -11.2893 -11.2842 -11.2833 -11.2820 -11.2817 -11.2785 -11.2718
-11.2710 -11.2570 -11.2553 -11.2482 -11.2341  -9.0170  -9.0018  -8.9793
 -8.9594  -6.6977  -6.6971  -6.6967  -6.6830  -6.6824  -6.6810  -6.6603
 -6.6595  -6.6581  -6.6406  -6.6397  -6.6387  -1.6488  -1.4735  -1.4094
 -1.4079  -1.3691  -1.2398  -1.2081  -1.1743  -1.1447  -1.0980  -1.0512
 -1.0448  -1.0317  -1.0078  -0.9966  -0.9735  -0.9595  -0.9477  -0.9398
 -0.8927  -0.8727  -0.8629  -0.8073  -0.7955  -0.7843  -0.7775  -0.7731
 -0.7640  -0.7325  -0.7215  -0.7172  -0.6965  -0.6931  -0.6809  -0.6798
 -0.6739  -0.6640  -0.6555  -0.6477  -0.6329  -0.6295  -0.6187  -0.6137
 -0.6112  -0.6083  -0.5977  -0.5925  -0.5778  -0.5653  -0.5580  -0.5534
 -0.5455  -0.5366  -0.5296  -0.5227  -0.5128  -0.5068  -0.5047  -0.4999
 -0.4876  -0.4853  -0.4748  -0.4729  -0.4635  -0.4625  -0.4589  -0.4449
 -0.4243  -0.4006  -0.3842  -0.3689  -0.3508  -0.2944  -0.2873  -0.2183

          Ground-State Mulliken Net Atomic Charges

     Atom                 Charge (a.u.)
  ----------------------------------------
      1 C                    -0.069764
      2 C                    -0.267847
      3 S                    -0.137831
      4 C                    -0.041703
      5 H                     0.192280
      6 C                    -0.052749
      7 C                     0.221919
      8 C                     0.221201
      9 C                    -0.076773
     10 C                    -0.049991
     11 O                    -0.335181
     12 O                    -0.343410
     13 C                    -0.082188
     14 H                     0.120002
     15 H                     0.091417
     16 H                     0.093223
     17 C                    -0.086977
     18 H                     0.123189
     19 H                     0.091402
     20 H                     0.089819
     21 C                    -0.255923
     22 S                    -0.069302
     23 C                     0.026179
     24 H                     0.205544
     25 C                    -0.079245
     26 S                     0.101595
     27 C                    -0.210930
     28 C                    -0.050600
     29 C                    -0.008021
     30 C                     0.359286
     31 C                    -0.139305
     32 S                     0.047961
     33 C                     0.457617
     34 O                    -0.446195
     35 O                    -0.297471
     36 F                    -0.210950
     37 C                    -0.054947
     38 H                     0.116957
     39 H                     0.084870
     40 H                     0.085126
     41 H                     0.217805
     42 H                     0.116133
     43 H                     0.114022
     44 H                     0.189758
  ----------------------------------------
  Sum of atomic charges =     0.000000

                    Cartesian Multipole Moments
 -----------------------------------------------------------------
    Charge (ESU x 10^10)
                -0.0000
    Dipole Moment (Debye)
         X       1.8963      Y       4.1965      Z       3.5945
       Tot       5.8418
    Quadrupole Moments (Debye-Ang)
        XX    -189.2963     XY       4.4154     YY    -181.7901
        XZ       3.4281     YZ     -11.3052     ZZ    -194.5245

 Total job time:  323.49s(wall), 10435.64s(cpu)
        *  Thank you very much for using Q-Chem.  Have a nice day.  *
