 Q-Chem 5.4, Q-Chem, Inc., Pleasanton, CA (2021)
 Q-Chem 5.4.0 for Intel X86 EM64T Linux

User input:
--------------------------------------------------------------
$molecule
0 1
C	0.135457	-8.519741	0.235993
C	-0.558188	-7.635967	-0.577858
S	1.148850	-7.651740	1.414705
C	-0.308648	-6.261894	-0.283020
H	-1.238560	-7.954738	-1.377597
C	0.609026	-6.079985	0.810887
C	0.996828	-4.798382	1.231581
C	-0.865740	-5.153542	-0.982901
C	-0.474408	-3.869626	-0.564713
C	0.442046	-3.688927	0.532196
O	-1.738137	-5.481075	-1.976332
O	1.874052	-4.479871	2.228709
C	2.016062	-5.356026	3.340298
H	2.573877	-4.790496	4.110807
H	2.598484	-6.268513	3.085998
H	1.028695	-5.658187	3.751679
C	-2.033195	-4.546999	-3.007565
H	-2.594833	-5.107564	-3.778655
H	-1.108067	-4.131473	-3.461650
H	-2.671451	-3.712085	-2.645264
C	0.691020	-2.314326	0.822814
S	-1.005649	-2.295487	-1.178037
C	0.000000	-1.435180	0.000000
H	1.368875	-1.993211	1.623656
C	0.000000	0.000000	0.000000
S	0.234946	0.868203	1.510732
C	0.641630	2.390125	0.727629
C	0.235036	0.877284	-1.064665
C	0.593019	2.219143	-0.678287
C	0.219452	0.812732	-2.486150
C	0.546689	2.034501	-3.106916
S	0.866345	3.240357	-1.965735
C	0.617067	2.279095	-4.559972
O	0.378342	1.376631	-5.350277
O	0.952308	3.517725	-5.004375
F	-0.065123	-0.264443	-3.246290
C	1.054950	3.861577	-6.334976
H	1.341516	4.928732	-6.370268
H	0.093573	3.716085	-6.875609
H	1.822303	3.252232	-6.861878
H	0.879812	3.278780	1.321510
H	0.817932	-9.146471	-0.349939
H	-0.548939	-9.150570	0.815247
H	0.821835	-1.444158	-0.700647
$end

$rem
JOBTYPE		SP
EXCHANGE	HF
CORRELATION	pRIMP2
BASIS		cc-pvtz
METHOD		rimp2
AUX_BASIS	rimp2-cc-pvtz
SOLVENT_METHOD	PCM
PURECART	11111
SYMMETRY	false
MEM_TOTAL	110000
SCF_CONVERGENCE = 6
THRESH=10
GUI = 2
$end

$solvent
dielectric 4.90
$end
--------------------------------------------------------------

             Standard Nuclear Orientation (Angstroms)
    I     Atom           X                Y                Z
 ----------------------------------------------------------------
    1      C       0.1354570000    -8.5197410000     0.2359930000
    2      C      -0.5581880000    -7.6359670000    -0.5778580000
    3      S       1.1488500000    -7.6517400000     1.4147050000
    4      C      -0.3086480000    -6.2618940000    -0.2830200000
    5      H      -1.2385600000    -7.9547380000    -1.3775970000
    6      C       0.6090260000    -6.0799850000     0.8108870000
    7      C       0.9968280000    -4.7983820000     1.2315810000
    8      C      -0.8657400000    -5.1535420000    -0.9829010000
    9      C      -0.4744080000    -3.8696260000    -0.5647130000
   10      C       0.4420460000    -3.6889270000     0.5321960000
   11      O      -1.7381370000    -5.4810750000    -1.9763320000
   12      O       1.8740520000    -4.4798710000     2.2287090000
   13      C       2.0160620000    -5.3560260000     3.3402980000
   14      H       2.5738770000    -4.7904960000     4.1108070000
   15      H       2.5984840000    -6.2685130000     3.0859980000
   16      H       1.0286950000    -5.6581870000     3.7516790000
   17      C      -2.0331950000    -4.5469990000    -3.0075650000
   18      H      -2.5948330000    -5.1075640000    -3.7786550000
   19      H      -1.1080670000    -4.1314730000    -3.4616500000
   20      H      -2.6714510000    -3.7120850000    -2.6452640000
   21      C       0.6910200000    -2.3143260000     0.8228140000
   22      S      -1.0056490000    -2.2954870000    -1.1780370000
   23      C       0.0000000000    -1.4351800000     0.0000000000
   24      H       1.3688750000    -1.9932110000     1.6236560000
   25      C       0.0000000000     0.0000000000     0.0000000000
   26      S       0.2349460000     0.8682030000     1.5107320000
   27      C       0.6416300000     2.3901250000     0.7276290000
   28      C       0.2350360000     0.8772840000    -1.0646650000
   29      C       0.5930190000     2.2191430000    -0.6782870000
   30      C       0.2194520000     0.8127320000    -2.4861500000
   31      C       0.5466890000     2.0345010000    -3.1069160000
   32      S       0.8663450000     3.2403570000    -1.9657350000
   33      C       0.6170670000     2.2790950000    -4.5599720000
   34      O       0.3783420000     1.3766310000    -5.3502770000
   35      O       0.9523080000     3.5177250000    -5.0043750000
   36      F      -0.0651230000    -0.2644430000    -3.2462900000
   37      C       1.0549500000     3.8615770000    -6.3349760000
   38      H       1.3415160000     4.9287320000    -6.3702680000
   39      H       0.0935730000     3.7160850000    -6.8756090000
   40      H       1.8223030000     3.2522320000    -6.8618780000
   41      H       0.8798120000     3.2787800000     1.3215100000
   42      H       0.8179320000    -9.1464710000    -0.3499390000
   43      H      -0.5489390000    -9.1505700000     0.8152470000
   44      H       0.8218350000    -1.4441580000    -0.7006470000
 ----------------------------------------------------------------

   11   -2755.3219831332      7.23e-07  Convergence criterion met
 Total energy in the final basis set =    -2755.3219831332
        RIMP2         total energy =     -2760.4152270828 a.u.

                    Orbital Energies (a.u.)
 --------------------------------------------------------------

 Alpha MOs
 -- Occupied --
-92.0158 -91.9944 -91.9762 -91.9593 -26.3353 -20.6118 -20.5878 -20.5869
-20.5491 -11.4096 -11.3787 -11.3209 -11.3095 -11.3080 -11.2976 -11.2952
-11.2885 -11.2878 -11.2843 -11.2837 -11.2834 -11.2832 -11.2792 -11.2747
-11.2726 -11.2605 -11.2589 -11.2507 -11.2391  -9.0141  -8.9985  -8.9787
 -8.9619  -6.6949  -6.6943  -6.6938  -6.6798  -6.6791  -6.6777  -6.6598
 -6.6588  -6.6575  -6.6432  -6.6422  -6.6412  -1.6492  -1.4714  -1.4106
 -1.4094  -1.3666  -1.2389  -1.2093  -1.1765  -1.1434  -1.1003  -1.0511
 -1.0464  -1.0291  -1.0084  -0.9989  -0.9719  -0.9597  -0.9488  -0.9407
 -0.8938  -0.8735  -0.8623  -0.8117  -0.7923  -0.7860  -0.7783  -0.7668
 -0.7623  -0.7336  -0.7189  -0.7172  -0.6980  -0.6934  -0.6862  -0.6783
 -0.6759  -0.6718  -0.6557  -0.6488  -0.6337  -0.6299  -0.6209  -0.6152
 -0.6105  -0.6058  -0.5962  -0.5926  -0.5797  -0.5659  -0.5601  -0.5582
 -0.5508  -0.5317  -0.5283  -0.5208  -0.5135  -0.5082  -0.5042  -0.5000
 -0.4871  -0.4841  -0.4793  -0.4681  -0.4612  -0.4611  -0.4602  -0.4467
 -0.4299  -0.3992  -0.3847  -0.3708  -0.3508  -0.2928  -0.2857  -0.2187

          Ground-State Mulliken Net Atomic Charges

     Atom                 Charge (a.u.)
  ----------------------------------------
      1 C                    -0.070486
      2 C                    -0.252822
      3 S                    -0.132920
      4 C                    -0.046791
      5 H                     0.194557
      6 C                    -0.050269
      7 C                     0.220991
      8 C                     0.233068
      9 C                    -0.084498
     10 C                    -0.047995
     11 O                    -0.335300
     12 O                    -0.343966
     13 C                    -0.082561
     14 H                     0.119961
     15 H                     0.092148
     16 H                     0.092781
     17 C                    -0.087502
     18 H                     0.123289
     19 H                     0.094005
     20 H                     0.089883
     21 C                    -0.275222
     22 S                    -0.064498
     23 C                     0.066064
     24 H                     0.206661
     25 C                    -0.038833
     26 S                     0.093827
     27 C                    -0.253127
     28 C                    -0.105072
     29 C                    -0.004936
     30 C                     0.376162
     31 C                    -0.143537
     32 S                     0.037635
     33 C                     0.458810
     34 O                    -0.452909
     35 O                    -0.298311
     36 F                    -0.209284
     37 C                    -0.055035
     38 H                     0.116528
     39 H                     0.084365
     40 H                     0.084205
     41 H                     0.214061
     42 H                     0.118483
     43 H                     0.115964
     44 H                     0.202427
  ----------------------------------------
  Sum of atomic charges =     0.000000

                    Cartesian Multipole Moments
 -----------------------------------------------------------------
    Charge (ESU x 10^10)
                -0.0000
    Dipole Moment (Debye)
         X       1.1569      Y       2.4225      Z       2.6841
       Tot       3.7962
    Quadrupole Moments (Debye-Ang)
        XX    -198.1412     XY       6.2670     YY    -172.5149
        XZ       3.5832     YZ      -6.8612     ZZ    -190.7041

 Total job time:  326.29s(wall), 10463.50s(cpu)
        *  Thank you very much for using Q-Chem.  Have a nice day.  *
