 Q-Chem 5.4, Q-Chem, Inc., Pleasanton, CA (2021)
 Q-Chem 5.4.0 for Intel X86 EM64T Linux

User input:
--------------------------------------------------------------
$molecule
0 1
C	-0.255459	-8.519741	-0.093711
C	0.799036	-7.635967	0.083869
S	-1.789425	-7.651740	-0.345260
C	0.418360	-6.261894	0.018411
H	1.834294	-7.954738	0.259169
C	-0.987769	-6.079985	-0.229701
C	-1.555260	-4.798382	-0.302697
C	1.294992	-5.153542	0.196459
C	0.726408	-3.869626	0.127651
C	-0.680716	-3.688927	-0.123544
O	2.601852	-5.481075	0.396706
O	-2.868193	-4.479871	-0.502673
C	-3.691495	-5.356026	-1.262918
H	-4.614080	-4.790496	-1.494604
H	-3.974195	-6.268513	-0.693738
H	-3.199559	-5.658187	-2.212720
C	3.490743	-4.546999	0.997016
H	4.416630	-5.107564	1.226691
H	3.073934	-4.131473	1.939526
H	3.746794	-3.712085	0.309214
C	-1.058247	-2.314326	-0.186133
S	1.527599	-2.295487	0.256010
C	0.000000	-1.435180	0.000000
H	-2.092285	-1.993211	-0.363896
C	0.000000	0.000000	0.000000
S	0.002233	0.899428	1.510732
C	0.001157	2.474749	0.727629
C	-0.000030	0.908223	-1.064665
C	-0.001545	2.297013	-0.678287
C	0.001624	0.841837	-2.486150
C	0.001494	2.106670	-3.106916
S	-0.001841	3.354171	-1.965735
C	0.006168	2.361146	-4.559972
O	0.009152	1.427646	-5.350277
O	0.009405	3.644337	-5.004375
F	0.005539	-0.272288	-3.246290
C	0.019554	4.003038	-6.334976
H	0.020155	5.108000	-6.370268
H	-0.871409	3.613681	-6.875609
H	0.918470	3.613062	-6.861878
H	0.001222	3.394771	1.321510
H	-0.401636	-9.146471	0.793825
H	-0.103519	-9.150570	-0.977367
H	-0.179195	-1.444158	1.064992
$end

$rem
JOBTYPE		SP
EXCHANGE	HF
CORRELATION	pRIMP2
BASIS		cc-pvtz
METHOD		rimp2
AUX_BASIS	rimp2-cc-pvtz
SOLVENT_METHOD	PCM
PURECART	11111
SYMMETRY	false
MEM_TOTAL	110000
SCF_CONVERGENCE = 6
THRESH=10
GUI = 2
$end

$solvent
dielectric 4.90
$end
--------------------------------------------------------------

             Standard Nuclear Orientation (Angstroms)
    I     Atom           X                Y                Z
 ----------------------------------------------------------------
    1      C      -0.2554590000    -8.5197410000    -0.0937110000
    2      C       0.7990360000    -7.6359670000     0.0838690000
    3      S      -1.7894250000    -7.6517400000    -0.3452600000
    4      C       0.4183600000    -6.2618940000     0.0184110000
    5      H       1.8342940000    -7.9547380000     0.2591690000
    6      C      -0.9877690000    -6.0799850000    -0.2297010000
    7      C      -1.5552600000    -4.7983820000    -0.3026970000
    8      C       1.2949920000    -5.1535420000     0.1964590000
    9      C       0.7264080000    -3.8696260000     0.1276510000
   10      C      -0.6807160000    -3.6889270000    -0.1235440000
   11      O       2.6018520000    -5.4810750000     0.3967060000
   12      O      -2.8681930000    -4.4798710000    -0.5026730000
   13      C      -3.6914950000    -5.3560260000    -1.2629180000
   14      H      -4.6140800000    -4.7904960000    -1.4946040000
   15      H      -3.9741950000    -6.2685130000    -0.6937380000
   16      H      -3.1995590000    -5.6581870000    -2.2127200000
   17      C       3.4907430000    -4.5469990000     0.9970160000
   18      H       4.4166300000    -5.1075640000     1.2266910000
   19      H       3.0739340000    -4.1314730000     1.9395260000
   20      H       3.7467940000    -3.7120850000     0.3092140000
   21      C      -1.0582470000    -2.3143260000    -0.1861330000
   22      S       1.5275990000    -2.2954870000     0.2560100000
   23      C       0.0000000000    -1.4351800000     0.0000000000
   24      H      -2.0922850000    -1.9932110000    -0.3638960000
   25      C       0.0000000000     0.0000000000     0.0000000000
   26      S       0.0022330000     0.8994280000     1.5107320000
   27      C       0.0011570000     2.4747490000     0.7276290000
   28      C      -0.0000300000     0.9082230000    -1.0646650000
   29      C      -0.0015450000     2.2970130000    -0.6782870000
   30      C       0.0016240000     0.8418370000    -2.4861500000
   31      C       0.0014940000     2.1066700000    -3.1069160000
   32      S      -0.0018410000     3.3541710000    -1.9657350000
   33      C       0.0061680000     2.3611460000    -4.5599720000
   34      O       0.0091520000     1.4276460000    -5.3502770000
   35      O       0.0094050000     3.6443370000    -5.0043750000
   36      F       0.0055390000    -0.2722880000    -3.2462900000
   37      C       0.0195540000     4.0030380000    -6.3349760000
   38      H       0.0201550000     5.1080000000    -6.3702680000
   39      H      -0.8714090000     3.6136810000    -6.8756090000
   40      H       0.9184700000     3.6130620000    -6.8618780000
   41      H       0.0012220000     3.3947710000     1.3215100000
   42      H      -0.4016360000    -9.1464710000     0.7938250000
   43      H      -0.1035190000    -9.1505700000    -0.9773670000
   44      H      -0.1791950000    -1.4441580000     1.0649920000
 ----------------------------------------------------------------

   11   -2755.3268153443      7.52e-07  Convergence criterion met
 Total energy in the final basis set =    -2755.3268153443
        RIMP2         total energy =     -2760.4166680241 a.u.

                    Orbital Energies (a.u.)
 --------------------------------------------------------------

 Alpha MOs
 -- Occupied --
-92.0196 -91.9956 -91.9773 -91.9579 -26.3354 -20.6128 -20.5869 -20.5867
-20.5511 -11.4112 -11.3778 -11.3118 -11.3088 -11.3069 -11.2991 -11.2978
-11.2964 -11.2889 -11.2843 -11.2828 -11.2824 -11.2812 -11.2809 -11.2727
-11.2724 -11.2580 -11.2577 -11.2494 -11.2366  -9.0178  -8.9997  -8.9796
 -8.9605  -6.6985  -6.6980  -6.6975  -6.6809  -6.6803  -6.6789  -6.6607
 -6.6597  -6.6584  -6.6418  -6.6408  -6.6398  -1.6483  -1.4726  -1.4101
 -1.4086  -1.3680  -1.2378  -1.2089  -1.1751  -1.1440  -1.0991  -1.0500
 -1.0456  -1.0312  -1.0084  -0.9974  -0.9727  -0.9595  -0.9484  -0.9404
 -0.8930  -0.8715  -0.8647  -0.8082  -0.7939  -0.7849  -0.7780  -0.7740
 -0.7653  -0.7331  -0.7214  -0.7165  -0.6972  -0.6923  -0.6814  -0.6791
 -0.6726  -0.6641  -0.6561  -0.6483  -0.6319  -0.6306  -0.6198  -0.6146
 -0.6108  -0.6072  -0.5957  -0.5925  -0.5828  -0.5654  -0.5589  -0.5537
 -0.5499  -0.5349  -0.5281  -0.5224  -0.5130  -0.5073  -0.5035  -0.5013
 -0.4880  -0.4861  -0.4781  -0.4697  -0.4623  -0.4619  -0.4609  -0.4460
 -0.4231  -0.4031  -0.3851  -0.3701  -0.3511  -0.2923  -0.2889  -0.2209

          Ground-State Mulliken Net Atomic Charges

     Atom                 Charge (a.u.)
  ----------------------------------------
      1 C                    -0.070238
      2 C                    -0.259791
      3 S                    -0.135533
      4 C                    -0.043965
      5 H                     0.193363
      6 C                    -0.052119
      7 C                     0.227697
      8 C                     0.226325
      9 C                    -0.082086
     10 C                    -0.062794
     11 O                    -0.334957
     12 O                    -0.343604
     13 C                    -0.082357
     14 H                     0.119937
     15 H                     0.091577
     16 H                     0.093368
     17 C                    -0.086350
     18 H                     0.123008
     19 H                     0.091584
     20 H                     0.090619
     21 C                    -0.235387
     22 S                    -0.071875
     23 C                     0.067014
     24 H                     0.204918
     25 C                    -0.099016
     26 S                     0.103213
     27 C                    -0.239260
     28 C                    -0.074821
     29 C                    -0.004512
     30 C                     0.398498
     31 C                    -0.156573
     32 S                     0.038861
     33 C                     0.460421
     34 O                    -0.448730
     35 O                    -0.297587
     36 F                    -0.212630
     37 C                    -0.055085
     38 H                     0.116703
     39 H                     0.084732
     40 H                     0.084794
     41 H                     0.216919
     42 H                     0.117135
     43 H                     0.115148
     44 H                     0.183434
  ----------------------------------------
  Sum of atomic charges =     0.000000

                    Cartesian Multipole Moments
 -----------------------------------------------------------------
    Charge (ESU x 10^10)
                -0.0000
    Dipole Moment (Debye)
         X       0.0136      Y       3.8049      Z       3.7586
       Tot       5.3483
    Quadrupole Moments (Debye-Ang)
        XX    -187.3732     XY      -3.5914     YY    -174.3948
        XZ       7.8064     YZ     -11.3759     ZZ    -201.6065

 Total job time:  335.16s(wall), 10843.97s(cpu)
        *  Thank you very much for using Q-Chem.  Have a nice day.  *
