 Q-Chem 5.4, Q-Chem, Inc., Pleasanton, CA (2021)
 Q-Chem 5.4.0 for Intel X86 EM64T Linux

User input:
--------------------------------------------------------------
$molecule
0 1
C	-0.136647	-8.519741	0.235306
C	0.221346	-7.635967	-0.772334
S	-0.650746	-7.651740	1.702286
C	0.090779	-6.261894	-0.408807
H	0.573754	-7.954738	-1.761423
C	-0.397735	-6.079985	0.932876
C	-0.568166	-4.798382	1.479069
C	0.418347	-5.153542	-1.241204
C	0.251852	-3.869626	-0.693206
C	-0.239872	-3.688927	0.648921
O	0.842486	-5.481075	-2.493437
O	-0.993092	-4.479871	2.737331
C	-1.884752	-5.356026	3.416110
H	-2.273124	-4.790496	4.284447
H	-1.373310	-6.268513	3.793352
H	-2.734702	-5.658187	2.766716
C	1.588030	-4.546999	-3.264581
H	1.974995	-5.107564	-4.136519
H	2.443843	-4.131473	-2.690439
H	0.955140	-3.712085	-3.636177
C	-0.367068	-2.314326	1.009848
S	0.517386	-2.295487	-1.459936
C	-0.000000	-1.435180	-0.000000
H	-0.721689	-1.993211	1.997308
C	0.000000	0.000000	0.000000
S	0.451648	0.777811	1.510732
C	1.238377	2.142617	0.727629
C	0.454085	0.786559	-1.064665
C	1.147169	1.990043	-0.678287
C	0.422325	0.728240	-2.486150
C	1.054629	1.823683	-3.106916
S	1.675491	2.905718	-1.965735
C	1.185914	2.041729	-4.559972
O	0.721749	1.231802	-5.350277
O	1.830313	3.151386	-5.004375
F	-0.131347	-0.238577	-3.246290
C	2.018453	3.456956	-6.334976
H	2.571455	4.413580	-6.370268
H	1.052178	3.565244	-6.875609
H	2.601950	2.669768	-6.861878
H	1.698444	2.939346	1.321510
H	0.712022	-9.146471	0.533380
H	-0.980494	-9.150570	-0.067771
H	1.017696	-1.444158	0.361406
$end

$rem
JOBTYPE		SP
EXCHANGE	HF
CORRELATION	pRIMP2
BASIS		cc-pvtz
METHOD		rimp2
AUX_BASIS	rimp2-cc-pvtz
SOLVENT_METHOD	PCM
PURECART	11111
SYMMETRY	false
MEM_TOTAL	110000
SCF_CONVERGENCE = 6
THRESH=10
GUI = 2
$end

$solvent
dielectric 4.90
$end
--------------------------------------------------------------

             Standard Nuclear Orientation (Angstroms)
    I     Atom           X                Y                Z
 ----------------------------------------------------------------
    1      C      -0.1366470000    -8.5197410000     0.2353060000
    2      C       0.2213460000    -7.6359670000    -0.7723340000
    3      S      -0.6507460000    -7.6517400000     1.7022860000
    4      C       0.0907790000    -6.2618940000    -0.4088070000
    5      H       0.5737540000    -7.9547380000    -1.7614230000
    6      C      -0.3977350000    -6.0799850000     0.9328760000
    7      C      -0.5681660000    -4.7983820000     1.4790690000
    8      C       0.4183470000    -5.1535420000    -1.2412040000
    9      C       0.2518520000    -3.8696260000    -0.6932060000
   10      C      -0.2398720000    -3.6889270000     0.6489210000
   11      O       0.8424860000    -5.4810750000    -2.4934370000
   12      O      -0.9930920000    -4.4798710000     2.7373310000
   13      C      -1.8847520000    -5.3560260000     3.4161100000
   14      H      -2.2731240000    -4.7904960000     4.2844470000
   15      H      -1.3733100000    -6.2685130000     3.7933520000
   16      H      -2.7347020000    -5.6581870000     2.7667160000
   17      C       1.5880300000    -4.5469990000    -3.2645810000
   18      H       1.9749950000    -5.1075640000    -4.1365190000
   19      H       2.4438430000    -4.1314730000    -2.6904390000
   20      H       0.9551400000    -3.7120850000    -3.6361770000
   21      C      -0.3670680000    -2.3143260000     1.0098480000
   22      S       0.5173860000    -2.2954870000    -1.4599360000
   23      C       0.0000000000    -1.4351800000     0.0000000000
   24      H      -0.7216890000    -1.9932110000     1.9973080000
   25      C       0.0000000000     0.0000000000     0.0000000000
   26      S       0.4516480000     0.7778110000     1.5107320000
   27      C       1.2383770000     2.1426170000     0.7276290000
   28      C       0.4540850000     0.7865590000    -1.0646650000
   29      C       1.1471690000     1.9900430000    -0.6782870000
   30      C       0.4223250000     0.7282400000    -2.4861500000
   31      C       1.0546290000     1.8236830000    -3.1069160000
   32      S       1.6754910000     2.9057180000    -1.9657350000
   33      C       1.1859140000     2.0417290000    -4.5599720000
   34      O       0.7217490000     1.2318020000    -5.3502770000
   35      O       1.8303130000     3.1513860000    -5.0043750000
   36      F      -0.1313470000    -0.2385770000    -3.2462900000
   37      C       2.0184530000     3.4569560000    -6.3349760000
   38      H       2.5714550000     4.4135800000    -6.3702680000
   39      H       1.0521780000     3.5652440000    -6.8756090000
   40      H       2.6019500000     2.6697680000    -6.8618780000
   41      H       1.6984440000     2.9393460000     1.3215100000
   42      H       0.7120220000    -9.1464710000     0.5333800000
   43      H      -0.9804940000    -9.1505700000    -0.0677710000
   44      H       1.0176960000    -1.4441580000     0.3614060000
 ----------------------------------------------------------------

   11   -2755.3081723025      6.68e-07  Convergence criterion met
 Total energy in the final basis set =    -2755.3081723025
        RIMP2         total energy =     -2760.4047904771 a.u.

                    Orbital Energies (a.u.)
 --------------------------------------------------------------

 Alpha MOs
 -- Occupied --
-92.0100 -91.9926 -91.9760 -91.9607 -26.3345 -20.6113 -20.5883 -20.5880
-20.5483 -11.4089 -11.3790 -11.3201 -11.3107 -11.3097 -11.2967 -11.2940
-11.2890 -11.2882 -11.2851 -11.2842 -11.2836 -11.2828 -11.2787 -11.2765
-11.2694 -11.2626 -11.2601 -11.2523 -11.2431  -9.0093  -8.9968  -8.9786
 -8.9633  -6.6902  -6.6895  -6.6890  -6.6781  -6.6774  -6.6760  -6.6596
 -6.6588  -6.6574  -6.6445  -6.6436  -6.6426  -1.6493  -1.4709  -1.4117
 -1.4099  -1.3659  -1.2406  -1.2093  -1.1784  -1.1442  -1.0998  -1.0516
 -1.0468  -1.0306  -1.0078  -0.9997  -0.9717  -0.9600  -0.9499  -0.9407
 -0.8949  -0.8711  -0.8628  -0.8122  -0.7949  -0.7859  -0.7762  -0.7661
 -0.7651  -0.7335  -0.7214  -0.7164  -0.6975  -0.6950  -0.6841  -0.6779
 -0.6720  -0.6715  -0.6567  -0.6493  -0.6380  -0.6289  -0.6225  -0.6159
 -0.6112  -0.6053  -0.5969  -0.5929  -0.5778  -0.5673  -0.5641  -0.5595
 -0.5481  -0.5339  -0.5287  -0.5211  -0.5137  -0.5088  -0.5043  -0.5006
 -0.4844  -0.4833  -0.4792  -0.4652  -0.4621  -0.4607  -0.4594  -0.4484
 -0.4291  -0.4014  -0.3836  -0.3731  -0.3513  -0.2945  -0.2834  -0.2182

          Ground-State Mulliken Net Atomic Charges

     Atom                 Charge (a.u.)
  ----------------------------------------
      1 C                    -0.071254
      2 C                    -0.241951
      3 S                    -0.129872
      4 C                    -0.053079
      5 H                     0.196014
      6 C                    -0.045702
      7 C                     0.215082
      8 C                     0.232324
      9 C                    -0.079284
     10 C                    -0.010308
     11 O                    -0.334114
     12 O                    -0.343612
     13 C                    -0.082707
     14 H                     0.120136
     15 H                     0.091797
     16 H                     0.093215
     17 C                    -0.090246
     18 H                     0.124572
     19 H                     0.092334
     20 H                     0.093597
     21 C                    -0.343833
     22 S                    -0.090881
     23 C                     0.127029
     24 H                     0.199683
     25 C                     0.036343
     26 S                     0.077915
     27 C                    -0.254304
     28 C                    -0.166356
     29 C                    -0.010674
     30 C                     0.360628
     31 C                    -0.143414
     32 S                     0.036646
     33 C                     0.458474
     34 O                    -0.453368
     35 O                    -0.298629
     36 F                    -0.206337
     37 C                    -0.054972
     38 H                     0.116488
     39 H                     0.084355
     40 H                     0.084037
     41 H                     0.214341
     42 H                     0.119902
     43 H                     0.117734
     44 H                     0.212248
  ----------------------------------------
  Sum of atomic charges =     0.000000

                    Cartesian Multipole Moments
 -----------------------------------------------------------------
    Charge (ESU x 10^10)
                -0.0000
    Dipole Moment (Debye)
         X       2.1912      Y       1.1963      Z       3.0787
       Tot       3.9637
    Quadrupole Moments (Debye-Ang)
        XX    -190.5470     XY       4.9678     YY    -169.4458
        XZ     -14.3669     YZ      -4.4120     ZZ    -195.7147

 Total job time:  327.42s(wall), 10550.94s(cpu)
        *  Thank you very much for using Q-Chem.  Have a nice day.  *
