 Q-Chem 5.4, Q-Chem, Inc., Pleasanton, CA (2021)
 Q-Chem 5.4.0 for Intel X86 EM64T Linux

User input:
--------------------------------------------------------------
$molecule
0 1
C	0.000687	-8.519741	-0.272104
C	0.194476	-7.635967	0.779533
S	-0.287581	-7.651740	-1.799596
C	0.125787	-6.261894	0.399427
H	0.383826	-7.954738	1.812314
C	-0.121989	-6.079985	-1.006762
C	-0.247488	-4.798382	-1.564994
C	0.258303	-5.153542	1.284087
C	0.128493	-3.869626	0.726260
C	-0.116725	-3.688927	-0.681918
O	0.517104	-5.481075	2.580622
O	-0.508622	-4.479871	-2.867144
C	-0.075811	-5.356026	-3.900814
H	-0.173640	-4.790496	-4.847002
H	-0.707354	-6.268513	-3.971794
H	0.984963	-5.658187	-3.763397
C	0.257016	-4.546999	3.621225
H	0.357864	-5.107564	4.569828
H	-0.771211	-4.131473	3.551910
H	0.990913	-3.712085	3.626592
C	-0.187034	-2.314326	-1.058088
S	0.281899	-2.295487	1.523035
C	0.000000	-1.435180	0.000000
H	-0.373653	-1.993211	-2.090565
C	0.000000	0.000000	0.000000
S	0.234946	0.868203	1.510732
C	0.641630	2.390125	0.727629
C	0.235036	0.877284	-1.064665
C	0.593019	2.219143	-0.678287
C	0.219452	0.812732	-2.486150
C	0.546689	2.034501	-3.106916
S	0.866345	3.240357	-1.965735
C	0.617067	2.279095	-4.559972
O	0.378342	1.376631	-5.350277
O	0.952308	3.517725	-5.004375
F	-0.065123	-0.264443	-3.246290
C	1.054950	3.861577	-6.334976
H	1.341516	4.928732	-6.370268
H	0.093573	3.716085	-6.875609
H	1.822303	3.252232	-6.861878
H	0.879812	3.278780	1.321510
H	-0.883319	-9.146471	-0.105910
H	0.883019	-9.150570	-0.431555
H	-1.062054	-1.444158	0.195861
$end

$rem
JOBTYPE		SP
EXCHANGE	HF
CORRELATION	pRIMP2
BASIS		cc-pvtz
METHOD		rimp2
AUX_BASIS	rimp2-cc-pvtz
SOLVENT_METHOD	PCM
PURECART	11111
SYMMETRY	false
MEM_TOTAL	110000
SCF_CONVERGENCE = 6
THRESH=10
GUI = 2
$end

$solvent
dielectric 4.90
$end
--------------------------------------------------------------

             Standard Nuclear Orientation (Angstroms)
    I     Atom           X                Y                Z
 ----------------------------------------------------------------
    1      C       0.0006870000    -8.5197410000    -0.2721040000
    2      C       0.1944760000    -7.6359670000     0.7795330000
    3      S      -0.2875810000    -7.6517400000    -1.7995960000
    4      C       0.1257870000    -6.2618940000     0.3994270000
    5      H       0.3838260000    -7.9547380000     1.8123140000
    6      C      -0.1219890000    -6.0799850000    -1.0067620000
    7      C      -0.2474880000    -4.7983820000    -1.5649940000
    8      C       0.2583030000    -5.1535420000     1.2840870000
    9      C       0.1284930000    -3.8696260000     0.7262600000
   10      C      -0.1167250000    -3.6889270000    -0.6819180000
   11      O       0.5171040000    -5.4810750000     2.5806220000
   12      O      -0.5086220000    -4.4798710000    -2.8671440000
   13      C      -0.0758110000    -5.3560260000    -3.9008140000
   14      H      -0.1736400000    -4.7904960000    -4.8470020000
   15      H      -0.7073540000    -6.2685130000    -3.9717940000
   16      H       0.9849630000    -5.6581870000    -3.7633970000
   17      C       0.2570160000    -4.5469990000     3.6212250000
   18      H       0.3578640000    -5.1075640000     4.5698280000
   19      H      -0.7712110000    -4.1314730000     3.5519100000
   20      H       0.9909130000    -3.7120850000     3.6265920000
   21      C      -0.1870340000    -2.3143260000    -1.0580880000
   22      S       0.2818990000    -2.2954870000     1.5230350000
   23      C       0.0000000000    -1.4351800000     0.0000000000
   24      H      -0.3736530000    -1.9932110000    -2.0905650000
   25      C       0.0000000000     0.0000000000     0.0000000000
   26      S       0.2349460000     0.8682030000     1.5107320000
   27      C       0.6416300000     2.3901250000     0.7276290000
   28      C       0.2350360000     0.8772840000    -1.0646650000
   29      C       0.5930190000     2.2191430000    -0.6782870000
   30      C       0.2194520000     0.8127320000    -2.4861500000
   31      C       0.5466890000     2.0345010000    -3.1069160000
   32      S       0.8663450000     3.2403570000    -1.9657350000
   33      C       0.6170670000     2.2790950000    -4.5599720000
   34      O       0.3783420000     1.3766310000    -5.3502770000
   35      O       0.9523080000     3.5177250000    -5.0043750000
   36      F      -0.0651230000    -0.2644430000    -3.2462900000
   37      C       1.0549500000     3.8615770000    -6.3349760000
   38      H       1.3415160000     4.9287320000    -6.3702680000
   39      H       0.0935730000     3.7160850000    -6.8756090000
   40      H       1.8223030000     3.2522320000    -6.8618780000
   41      H       0.8798120000     3.2787800000     1.3215100000
   42      H      -0.8833190000    -9.1464710000    -0.1059100000
   43      H       0.8830190000    -9.1505700000    -0.4315550000
   44      H      -1.0620540000    -1.4441580000     0.1958610000
 ----------------------------------------------------------------

   11   -2755.3193843430      6.99e-07  Convergence criterion met
 Total energy in the final basis set =    -2755.3193843430
        RIMP2         total energy =     -2760.4120842724 a.u.

                    Orbital Energies (a.u.)
 --------------------------------------------------------------

 Alpha MOs
 -- Occupied --
-92.0149 -91.9926 -91.9838 -91.9597 -26.3397 -20.6110 -20.5899 -20.5871
-20.5478 -11.4086 -11.3798 -11.3238 -11.3123 -11.3099 -11.2968 -11.2929
-11.2880 -11.2865 -11.2862 -11.2856 -11.2846 -11.2822 -11.2768 -11.2749
-11.2702 -11.2608 -11.2601 -11.2514 -11.2415  -9.0136  -8.9968  -8.9860
 -8.9622  -6.6944  -6.6938  -6.6933  -6.6780  -6.6774  -6.6760  -6.6671
 -6.6662  -6.6649  -6.6434  -6.6425  -6.6415  -1.6542  -1.4706  -1.4131
 -1.4090  -1.3657  -1.2382  -1.2110  -1.1776  -1.1436  -1.1009  -1.0503
 -1.0484  -1.0289  -1.0107  -1.0002  -0.9717  -0.9599  -0.9503  -0.9408
 -0.8961  -0.8728  -0.8639  -0.8111  -0.7979  -0.7878  -0.7758  -0.7705
 -0.7641  -0.7333  -0.7233  -0.7212  -0.6988  -0.6951  -0.6847  -0.6779
 -0.6721  -0.6699  -0.6580  -0.6494  -0.6401  -0.6306  -0.6217  -0.6157
 -0.6084  -0.6052  -0.5954  -0.5918  -0.5770  -0.5716  -0.5600  -0.5519
 -0.5479  -0.5367  -0.5333  -0.5227  -0.5151  -0.5097  -0.5068  -0.5013
 -0.4842  -0.4838  -0.4802  -0.4702  -0.4623  -0.4606  -0.4579  -0.4478
 -0.4337  -0.3980  -0.3886  -0.3721  -0.3508  -0.2942  -0.2842  -0.2184

          Ground-State Mulliken Net Atomic Charges

     Atom                 Charge (a.u.)
  ----------------------------------------
      1 C                    -0.070908
      2 C                    -0.248006
      3 S                    -0.131679
      4 C                    -0.049576
      5 H                     0.194983
      6 C                    -0.050635
      7 C                     0.229083
      8 C                     0.233220
      9 C                    -0.076549
     10 C                    -0.038528
     11 O                    -0.333215
     12 O                    -0.343492
     13 C                    -0.083248
     14 H                     0.122006
     15 H                     0.092146
     16 H                     0.092701
     17 C                    -0.089015
     18 H                     0.125224
     19 H                     0.093536
     20 H                     0.090233
     21 C                    -0.310458
     22 S                    -0.092096
     23 C                     0.110477
     24 H                     0.218339
     25 C                    -0.068634
     26 S                     0.076990
     27 C                    -0.258895
     28 C                    -0.067960
     29 C                    -0.017462
     30 C                     0.391125
     31 C                    -0.148374
     32 S                     0.032572
     33 C                     0.459251
     34 O                    -0.455273
     35 O                    -0.298514
     36 F                    -0.216825
     37 C                    -0.055058
     38 H                     0.116435
     39 H                     0.084100
     40 H                     0.084098
     41 H                     0.215384
     42 H                     0.119085
     43 H                     0.116867
     44 H                     0.206546
  ----------------------------------------
  Sum of atomic charges =     0.000000

                    Cartesian Multipole Moments
 -----------------------------------------------------------------
    Charge (ESU x 10^10)
                 0.0000
    Dipole Moment (Debye)
         X       0.1054      Y       1.6101      Z       3.8402
       Tot       4.1654
    Quadrupole Moments (Debye-Ang)
        XX    -200.1558     XY       2.8396     YY    -169.3462
        XZ      -5.4476     YZ     -14.1018     ZZ    -189.1818

 Total job time:  326.16s(wall), 10605.57s(cpu)
        *  Thank you very much for using Q-Chem.  Have a nice day.  *
