 Q-Chem 5.4, Q-Chem, Inc., Pleasanton, CA (2021)
 Q-Chem 5.4.0 for Intel X86 EM64T Linux

User input:
--------------------------------------------------------------
$molecule
0 1
C	0.255459	-8.519741	0.093711
C	-0.799036	-7.635967	-0.083869
S	1.789425	-7.651740	0.345260
C	-0.418360	-6.261894	-0.018411
H	-1.834294	-7.954738	-0.259169
C	0.987769	-6.079985	0.229701
C	1.555260	-4.798382	0.302697
C	-1.294992	-5.153542	-0.196459
C	-0.726408	-3.869626	-0.127651
C	0.680716	-3.688927	0.123544
O	-2.601852	-5.481075	-0.396706
O	2.868193	-4.479871	0.502673
C	3.691495	-5.356026	1.262918
H	4.614080	-4.790496	1.494604
H	3.974195	-6.268513	0.693738
H	3.199559	-5.658187	2.212720
C	-3.490743	-4.546999	-0.997016
H	-4.416630	-5.107564	-1.226691
H	-3.073934	-4.131473	-1.939526
H	-3.746794	-3.712085	-0.309214
C	1.058247	-2.314326	0.186133
S	-1.527599	-2.295487	-0.256010
C	0.000000	-1.435180	0.000000
H	2.092285	-1.993211	0.363896
C	0.000000	0.000000	0.000000
S	0.780044	0.447780	1.510732
C	2.143774	1.236372	0.727629
C	0.786529	0.454137	-1.064665
C	1.988499	1.149844	-0.678287
C	0.729864	0.419512	-2.486150
C	1.825177	1.052041	-3.106916
S	2.903877	1.678680	-1.965735
C	2.047896	1.175232	-4.559972
O	1.240953	0.705897	-5.350277
O	3.160791	1.814024	-5.004375
F	-0.233039	-0.140940	-3.246290
C	3.476510	1.984585	-6.334976
H	4.433735	2.536545	-6.370268
H	2.693835	2.561503	-6.875609
H	3.588239	1.011113	-6.861878
H	2.940569	1.696327	1.321510
H	0.401636	-9.146471	-0.793825
H	0.103519	-9.150570	0.977367
H	0.179195	-1.444158	-1.064992
$end

$rem
JOBTYPE		SP
EXCHANGE	HF
CORRELATION	pRIMP2
BASIS		cc-pvtz
METHOD		rimp2
AUX_BASIS	rimp2-cc-pvtz
SOLVENT_METHOD	PCM
PURECART	11111
SYMMETRY	false
MEM_TOTAL	110000
SCF_CONVERGENCE = 6
THRESH=10
GUI = 2
$end

$solvent
dielectric 4.90
$end
--------------------------------------------------------------

             Standard Nuclear Orientation (Angstroms)
    I     Atom           X                Y                Z
 ----------------------------------------------------------------
    1      C       0.2554590000    -8.5197410000     0.0937110000
    2      C      -0.7990360000    -7.6359670000    -0.0838690000
    3      S       1.7894250000    -7.6517400000     0.3452600000
    4      C      -0.4183600000    -6.2618940000    -0.0184110000
    5      H      -1.8342940000    -7.9547380000    -0.2591690000
    6      C       0.9877690000    -6.0799850000     0.2297010000
    7      C       1.5552600000    -4.7983820000     0.3026970000
    8      C      -1.2949920000    -5.1535420000    -0.1964590000
    9      C      -0.7264080000    -3.8696260000    -0.1276510000
   10      C       0.6807160000    -3.6889270000     0.1235440000
   11      O      -2.6018520000    -5.4810750000    -0.3967060000
   12      O       2.8681930000    -4.4798710000     0.5026730000
   13      C       3.6914950000    -5.3560260000     1.2629180000
   14      H       4.6140800000    -4.7904960000     1.4946040000
   15      H       3.9741950000    -6.2685130000     0.6937380000
   16      H       3.1995590000    -5.6581870000     2.2127200000
   17      C      -3.4907430000    -4.5469990000    -0.9970160000
   18      H      -4.4166300000    -5.1075640000    -1.2266910000
   19      H      -3.0739340000    -4.1314730000    -1.9395260000
   20      H      -3.7467940000    -3.7120850000    -0.3092140000
   21      C       1.0582470000    -2.3143260000     0.1861330000
   22      S      -1.5275990000    -2.2954870000    -0.2560100000
   23      C       0.0000000000    -1.4351800000     0.0000000000
   24      H       2.0922850000    -1.9932110000     0.3638960000
   25      C       0.0000000000     0.0000000000     0.0000000000
   26      S       0.7800440000     0.4477800000     1.5107320000
   27      C       2.1437740000     1.2363720000     0.7276290000
   28      C       0.7865290000     0.4541370000    -1.0646650000
   29      C       1.9884990000     1.1498440000    -0.6782870000
   30      C       0.7298640000     0.4195120000    -2.4861500000
   31      C       1.8251770000     1.0520410000    -3.1069160000
   32      S       2.9038770000     1.6786800000    -1.9657350000
   33      C       2.0478960000     1.1752320000    -4.5599720000
   34      O       1.2409530000     0.7058970000    -5.3502770000
   35      O       3.1607910000     1.8140240000    -5.0043750000
   36      F      -0.2330390000    -0.1409400000    -3.2462900000
   37      C       3.4765100000     1.9845850000    -6.3349760000
   38      H       4.4337350000     2.5365450000    -6.3702680000
   39      H       2.6938350000     2.5615030000    -6.8756090000
   40      H       3.5882390000     1.0111130000    -6.8618780000
   41      H       2.9405690000     1.6963270000     1.3215100000
   42      H       0.4016360000    -9.1464710000    -0.7938250000
   43      H       0.1035190000    -9.1505700000     0.9773670000
   44      H       0.1791950000    -1.4441580000    -1.0649920000
 ----------------------------------------------------------------

   11   -2755.2564459829      7.89e-07  Convergence criterion met
 Total energy in the final basis set =    -2755.2564459829
        RIMP2         total energy =     -2760.3677040748 a.u.

                    Orbital Energies (a.u.)
 --------------------------------------------------------------

 Alpha MOs
 -- Occupied --
-92.0144 -92.0097 -91.9646 -91.9561 -26.3383 -20.6177 -20.5863 -20.5826
-20.5598 -11.4188 -11.3785 -11.3282 -11.3169 -11.3071 -11.3025 -11.3005
-11.2972 -11.2915 -11.2824 -11.2808 -11.2775 -11.2733 -11.2707 -11.2701
-11.2685 -11.2552 -11.2537 -11.2473 -11.2316  -9.0137  -9.0131  -8.9673
 -8.9587  -6.6942  -6.6942  -6.6936  -6.6934  -6.6933  -6.6924  -6.6483
 -6.6475  -6.6462  -6.6400  -6.6391  -6.6380  -1.6515  -1.4781  -1.4084
 -1.4056  -1.3745  -1.2519  -1.2055  -1.1744  -1.1472  -1.0984  -1.0574
 -1.0420  -1.0355  -1.0054  -0.9933  -0.9776  -0.9585  -0.9474  -0.9406
 -0.8896  -0.8804  -0.8559  -0.8118  -0.7983  -0.7854  -0.7812  -0.7685
 -0.7580  -0.7332  -0.7216  -0.7174  -0.6984  -0.6924  -0.6881  -0.6834
 -0.6797  -0.6756  -0.6531  -0.6463  -0.6316  -0.6269  -0.6178  -0.6148
 -0.6136  -0.6095  -0.6045  -0.5941  -0.5761  -0.5641  -0.5562  -0.5541
 -0.5499  -0.5334  -0.5235  -0.5223  -0.5105  -0.5063  -0.5050  -0.4982
 -0.4931  -0.4839  -0.4702  -0.4676  -0.4661  -0.4625  -0.4538  -0.4422
 -0.4201  -0.3955  -0.3805  -0.3674  -0.3474  -0.3071  -0.2848  -0.2160

          Ground-State Mulliken Net Atomic Charges

     Atom                 Charge (a.u.)
  ----------------------------------------
      1 C                    -0.069145
      2 C                    -0.273703
      3 S                    -0.140515
      4 C                    -0.039289
      5 H                     0.191831
      6 C                    -0.051977
      7 C                     0.221339
      8 C                     0.216023
      9 C                    -0.071492
     10 C                    -0.060811
     11 O                    -0.336958
     12 O                    -0.344802
     13 C                    -0.082588
     14 H                     0.118710
     15 H                     0.092231
     16 H                     0.092607
     17 C                    -0.086078
     18 H                     0.121567
     19 H                     0.091751
     20 H                     0.090198
     21 C                    -0.264018
     22 S                    -0.113578
     23 C                     0.070647
     24 H                     0.207207
     25 C                    -0.199699
     26 S                     0.117563
     27 C                    -0.148803
     28 C                    -0.018421
     29 C                    -0.027738
     30 C                     0.339493
     31 C                    -0.111106
     32 S                     0.082502
     33 C                     0.458224
     34 O                    -0.435270
     35 O                    -0.296084
     36 F                    -0.210007
     37 C                    -0.054689
     38 H                     0.117916
     39 H                     0.086215
     40 H                     0.086280
     41 H                     0.222248
     42 H                     0.115629
     43 H                     0.113098
     44 H                     0.183491
  ----------------------------------------
  Sum of atomic charges =     0.000000

                    Cartesian Multipole Moments
 -----------------------------------------------------------------
    Charge (ESU x 10^10)
                -0.0000
    Dipole Moment (Debye)
         X       5.5245      Y       4.3856      Z       1.8417
       Tot       7.2901
    Quadrupole Moments (Debye-Ang)
        XX    -172.2071     XY      12.2384     YY    -193.4194
        XZ      -4.0285     YZ      -6.2688     ZZ    -196.8045

 Total job time:  333.88s(wall), 10825.73s(cpu)
        *  Thank you very much for using Q-Chem.  Have a nice day.  *
