 Q-Chem 5.4, Q-Chem, Inc., Pleasanton, CA (2021)
 Q-Chem 5.4.0 for Intel X86 EM64T Linux

User input:
--------------------------------------------------------------
$molecule
0 1
C	0.208886	-8.519741	-0.174379
C	-0.472151	-7.635967	0.650052
S	1.193717	-7.651740	-1.377058
C	-0.225125	-6.261894	0.353105
H	-1.141594	-7.954738	1.458961
C	0.692811	-6.079985	-0.740583
C	1.039773	-4.798382	-1.195546
C	-0.817634	-5.153542	1.023267
C	-0.473754	-3.869626	0.565262
C	0.447350	-3.688927	-0.527745
O	-1.644483	-5.481075	2.054917
O	1.869424	-4.479871	-2.232592
C	2.939466	-5.356026	-2.565470
H	3.601405	-4.790496	-3.248608
H	2.587892	-6.268513	-3.094885
H	3.516052	-5.658187	-1.664539
C	-2.608813	-4.546999	2.524564
H	-3.270661	-5.107564	3.211568
H	-3.216646	-4.131473	1.692342
H	-2.141184	-3.712085	3.090211
C	0.690319	-2.314326	-0.823402
S	-0.985511	-2.295487	1.194935
C	-0.000000	-1.435180	-0.000000
H	1.361286	-1.993211	-1.630024
C	0.000000	0.000000	0.000000
S	0.451648	0.777811	1.510732
C	1.238377	2.142617	0.727629
C	0.454085	0.786559	-1.064665
C	1.147169	1.990043	-0.678287
C	0.422325	0.728240	-2.486150
C	1.054629	1.823683	-3.106916
S	1.675491	2.905718	-1.965735
C	1.185914	2.041729	-4.559972
O	0.721749	1.231802	-5.350277
O	1.830313	3.151386	-5.004375
F	-0.131347	-0.238577	-3.246290
C	2.018453	3.456956	-6.334976
H	2.571455	4.413580	-6.370268
H	1.052178	3.565244	-6.875609
H	2.601950	2.669768	-6.861878
H	1.698444	2.939346	1.321510
H	-0.486655	-9.146471	-0.744739
H	0.898184	-9.150570	0.399033
H	-0.832713	-1.444158	-0.687683
$end

$rem
JOBTYPE		SP
EXCHANGE	HF
CORRELATION	pRIMP2
BASIS		cc-pvtz
METHOD		rimp2
AUX_BASIS	rimp2-cc-pvtz
SOLVENT_METHOD	PCM
PURECART	11111
SYMMETRY	false
MEM_TOTAL	110000
SCF_CONVERGENCE = 6
THRESH=10
GUI = 2
$end

$solvent
dielectric 4.90
$end
--------------------------------------------------------------

             Standard Nuclear Orientation (Angstroms)
    I     Atom           X                Y                Z
 ----------------------------------------------------------------
    1      C       0.2088860000    -8.5197410000    -0.1743790000
    2      C      -0.4721510000    -7.6359670000     0.6500520000
    3      S       1.1937170000    -7.6517400000    -1.3770580000
    4      C      -0.2251250000    -6.2618940000     0.3531050000
    5      H      -1.1415940000    -7.9547380000     1.4589610000
    6      C       0.6928110000    -6.0799850000    -0.7405830000
    7      C       1.0397730000    -4.7983820000    -1.1955460000
    8      C      -0.8176340000    -5.1535420000     1.0232670000
    9      C      -0.4737540000    -3.8696260000     0.5652620000
   10      C       0.4473500000    -3.6889270000    -0.5277450000
   11      O      -1.6444830000    -5.4810750000     2.0549170000
   12      O       1.8694240000    -4.4798710000    -2.2325920000
   13      C       2.9394660000    -5.3560260000    -2.5654700000
   14      H       3.6014050000    -4.7904960000    -3.2486080000
   15      H       2.5878920000    -6.2685130000    -3.0948850000
   16      H       3.5160520000    -5.6581870000    -1.6645390000
   17      C      -2.6088130000    -4.5469990000     2.5245640000
   18      H      -3.2706610000    -5.1075640000     3.2115680000
   19      H      -3.2166460000    -4.1314730000     1.6923420000
   20      H      -2.1411840000    -3.7120850000     3.0902110000
   21      C       0.6903190000    -2.3143260000    -0.8234020000
   22      S      -0.9855110000    -2.2954870000     1.1949350000
   23      C       0.0000000000    -1.4351800000     0.0000000000
   24      H       1.3612860000    -1.9932110000    -1.6300240000
   25      C       0.0000000000     0.0000000000     0.0000000000
   26      S       0.4516480000     0.7778110000     1.5107320000
   27      C       1.2383770000     2.1426170000     0.7276290000
   28      C       0.4540850000     0.7865590000    -1.0646650000
   29      C       1.1471690000     1.9900430000    -0.6782870000
   30      C       0.4223250000     0.7282400000    -2.4861500000
   31      C       1.0546290000     1.8236830000    -3.1069160000
   32      S       1.6754910000     2.9057180000    -1.9657350000
   33      C       1.1859140000     2.0417290000    -4.5599720000
   34      O       0.7217490000     1.2318020000    -5.3502770000
   35      O       1.8303130000     3.1513860000    -5.0043750000
   36      F      -0.1313470000    -0.2385770000    -3.2462900000
   37      C       2.0184530000     3.4569560000    -6.3349760000
   38      H       2.5714550000     4.4135800000    -6.3702680000
   39      H       1.0521780000     3.5652440000    -6.8756090000
   40      H       2.6019500000     2.6697680000    -6.8618780000
   41      H       1.6984440000     2.9393460000     1.3215100000
   42      H      -0.4866550000    -9.1464710000    -0.7447390000
   43      H       0.8981840000    -9.1505700000     0.3990330000
   44      H      -0.8327130000    -1.4441580000    -0.6876830000
 ----------------------------------------------------------------

   11   -2755.3106294127      7.40e-07  Convergence criterion met
 Total energy in the final basis set =    -2755.3106294127
        RIMP2         total energy =     -2760.4088238559 a.u.

                    Orbital Energies (a.u.)
 --------------------------------------------------------------

 Alpha MOs
 -- Occupied --
-92.0133 -91.9975 -91.9798 -91.9581 -26.3384 -20.6132 -20.5876 -20.5869
-20.5515 -11.4118 -11.3794 -11.3107 -11.3093 -11.3084 -11.3000 -11.2991
-11.2968 -11.2892 -11.2849 -11.2849 -11.2840 -11.2824 -11.2816 -11.2738
-11.2729 -11.2584 -11.2584 -11.2497 -11.2373  -9.0121  -9.0015  -8.9819
 -8.9607  -6.6928  -6.6921  -6.6917  -6.6827  -6.6821  -6.6807  -6.6630
 -6.6622  -6.6609  -6.6420  -6.6410  -6.6400  -1.6515  -1.4730  -1.4109
 -1.4088  -1.3685  -1.2407  -1.2094  -1.1757  -1.1443  -1.1000  -1.0525
 -1.0466  -1.0299  -1.0090  -0.9986  -0.9729  -0.9599  -0.9491  -0.9413
 -0.8943  -0.8744  -0.8619  -0.8080  -0.7959  -0.7862  -0.7780  -0.7729
 -0.7618  -0.7338  -0.7211  -0.7185  -0.6982  -0.6934  -0.6860  -0.6796
 -0.6749  -0.6731  -0.6563  -0.6486  -0.6372  -0.6276  -0.6201  -0.6148
 -0.6112  -0.6076  -0.5969  -0.5944  -0.5809  -0.5685  -0.5587  -0.5549
 -0.5442  -0.5343  -0.5302  -0.5232  -0.5128  -0.5078  -0.5058  -0.5019
 -0.4871  -0.4842  -0.4755  -0.4696  -0.4625  -0.4620  -0.4608  -0.4464
 -0.4276  -0.3995  -0.3860  -0.3702  -0.3509  -0.2943  -0.2876  -0.2179

          Ground-State Mulliken Net Atomic Charges

     Atom                 Charge (a.u.)
  ----------------------------------------
      1 C                    -0.070305
      2 C                    -0.259147
      3 S                    -0.135121
      4 C                    -0.047513
      5 H                     0.193510
      6 C                    -0.052763
      7 C                     0.223430
      8 C                     0.232475
      9 C                    -0.074079
     10 C                    -0.036264
     11 O                    -0.334550
     12 O                    -0.342934
     13 C                    -0.082749
     14 H                     0.120424
     15 H                     0.092233
     16 H                     0.092524
     17 C                    -0.087362
     18 H                     0.124263
     19 H                     0.093010
     20 H                     0.089853
     21 C                    -0.307761
     22 S                    -0.087682
     23 C                     0.102986
     24 H                     0.204943
     25 C                    -0.066041
     26 S                     0.109056
     27 C                    -0.232682
     28 C                    -0.110394
     29 C                    -0.007487
     30 C                     0.370172
     31 C                    -0.142493
     32 S                     0.046797
     33 C                     0.460685
     34 O                    -0.449016
     35 O                    -0.297929
     36 F                    -0.214520
     37 C                    -0.054943
     38 H                     0.116906
     39 H                     0.084826
     40 H                     0.084772
     41 H                     0.214582
     42 H                     0.117581
     43 H                     0.115169
     44 H                     0.203538
  ----------------------------------------
  Sum of atomic charges =     0.000000

                    Cartesian Multipole Moments
 -----------------------------------------------------------------
    Charge (ESU x 10^10)
                 0.0000
    Dipole Moment (Debye)
         X       1.3117      Y       3.0627      Z       2.8326
       Tot       4.3732
    Quadrupole Moments (Debye-Ang)
        XX    -183.6976     XY       9.7005     YY    -176.9689
        XZ     -14.0499     YZ     -12.6201     ZZ    -201.0826

 Total job time:  323.75s(wall), 10504.74s(cpu)
        *  Thank you very much for using Q-Chem.  Have a nice day.  *
