 Q-Chem 5.4, Q-Chem, Inc., Pleasanton, CA (2021)
 Q-Chem 5.4.0 for Intel X86 EM64T Linux

User input:
--------------------------------------------------------------
$molecule
0 1
C	0.255459	-8.519741	0.093711
C	-0.799036	-7.635967	-0.083869
S	1.789425	-7.651740	0.345260
C	-0.418360	-6.261894	-0.018411
H	-1.834294	-7.954738	-0.259169
C	0.987769	-6.079985	0.229701
C	1.555260	-4.798382	0.302697
C	-1.294992	-5.153542	-0.196459
C	-0.726408	-3.869626	-0.127651
C	0.680716	-3.688927	0.123544
O	-2.601852	-5.481075	-0.396706
O	2.868193	-4.479871	0.502673
C	3.691495	-5.356026	1.262918
H	4.614080	-4.790496	1.494604
H	3.974195	-6.268513	0.693738
H	3.199559	-5.658187	2.212720
C	-3.490743	-4.546999	-0.997016
H	-4.416630	-5.107564	-1.226691
H	-3.073934	-4.131473	-1.939526
H	-3.746794	-3.712085	-0.309214
C	1.058247	-2.314326	0.186133
S	-1.527599	-2.295487	-0.256010
C	-0.000000	-1.435180	-0.000000
H	2.092285	-1.993211	0.363896
C	0.000000	0.000000	0.000000
S	0.690437	0.576430	1.510732
C	1.896512	1.589852	0.727629
C	0.695720	0.583817	-1.064665
C	1.758621	1.477674	-0.678287
C	0.645928	0.539878	-2.486150
C	1.614763	1.352997	-3.106916
S	2.568261	2.157430	-1.965735
C	1.812707	1.512991	-4.559972
O	1.099523	0.910662	-5.350277
O	2.797769	2.335330	-5.004375
F	-0.205024	-0.179266	-3.246290
C	3.079074	2.558124	-6.334976
H	3.925910	3.267919	-6.370268
H	2.208109	2.990367	-6.875609
H	3.358147	1.618843	-6.861878
H	2.601331	2.181180	1.321510
H	0.401636	-9.146471	-0.793825
H	0.103519	-9.150570	0.977367
H	0.179195	-1.444158	-1.064992
$end

$rem
JOBTYPE		SP
EXCHANGE	HF
CORRELATION	pRIMP2
BASIS		cc-pvtz
METHOD		rimp2
AUX_BASIS	rimp2-cc-pvtz
SOLVENT_METHOD	PCM
PURECART	11111
SYMMETRY	false
MEM_TOTAL	110000
SCF_CONVERGENCE = 6
THRESH=10
GUI = 2
$end

$solvent
dielectric 4.90
$end
--------------------------------------------------------------

             Standard Nuclear Orientation (Angstroms)
    I     Atom           X                Y                Z
 ----------------------------------------------------------------
    1      C       0.2554590000    -8.5197410000     0.0937110000
    2      C      -0.7990360000    -7.6359670000    -0.0838690000
    3      S       1.7894250000    -7.6517400000     0.3452600000
    4      C      -0.4183600000    -6.2618940000    -0.0184110000
    5      H      -1.8342940000    -7.9547380000    -0.2591690000
    6      C       0.9877690000    -6.0799850000     0.2297010000
    7      C       1.5552600000    -4.7983820000     0.3026970000
    8      C      -1.2949920000    -5.1535420000    -0.1964590000
    9      C      -0.7264080000    -3.8696260000    -0.1276510000
   10      C       0.6807160000    -3.6889270000     0.1235440000
   11      O      -2.6018520000    -5.4810750000    -0.3967060000
   12      O       2.8681930000    -4.4798710000     0.5026730000
   13      C       3.6914950000    -5.3560260000     1.2629180000
   14      H       4.6140800000    -4.7904960000     1.4946040000
   15      H       3.9741950000    -6.2685130000     0.6937380000
   16      H       3.1995590000    -5.6581870000     2.2127200000
   17      C      -3.4907430000    -4.5469990000    -0.9970160000
   18      H      -4.4166300000    -5.1075640000    -1.2266910000
   19      H      -3.0739340000    -4.1314730000    -1.9395260000
   20      H      -3.7467940000    -3.7120850000    -0.3092140000
   21      C       1.0582470000    -2.3143260000     0.1861330000
   22      S      -1.5275990000    -2.2954870000    -0.2560100000
   23      C       0.0000000000    -1.4351800000     0.0000000000
   24      H       2.0922850000    -1.9932110000     0.3638960000
   25      C       0.0000000000     0.0000000000     0.0000000000
   26      S       0.6904370000     0.5764300000     1.5107320000
   27      C       1.8965120000     1.5898520000     0.7276290000
   28      C       0.6957200000     0.5838170000    -1.0646650000
   29      C       1.7586210000     1.4776740000    -0.6782870000
   30      C       0.6459280000     0.5398780000    -2.4861500000
   31      C       1.6147630000     1.3529970000    -3.1069160000
   32      S       2.5682610000     2.1574300000    -1.9657350000
   33      C       1.8127070000     1.5129910000    -4.5599720000
   34      O       1.0995230000     0.9106620000    -5.3502770000
   35      O       2.7977690000     2.3353300000    -5.0043750000
   36      F      -0.2050240000    -0.1792660000    -3.2462900000
   37      C       3.0790740000     2.5581240000    -6.3349760000
   38      H       3.9259100000     3.2679190000    -6.3702680000
   39      H       2.2081090000     2.9903670000    -6.8756090000
   40      H       3.3581470000     1.6188430000    -6.8618780000
   41      H       2.6013310000     2.1811800000     1.3215100000
   42      H       0.4016360000    -9.1464710000    -0.7938250000
   43      H       0.1035190000    -9.1505700000     0.9773670000
   44      H       0.1791950000    -1.4441580000    -1.0649920000
 ----------------------------------------------------------------

   11   -2755.2800388875      7.24e-07  Convergence criterion met
 Total energy in the final basis set =    -2755.2800388875
        RIMP2         total energy =     -2760.3861322251 a.u.

                    Orbital Energies (a.u.)
 --------------------------------------------------------------

 Alpha MOs
 -- Occupied --
-92.0143 -92.0056 -91.9675 -91.9566 -26.3385 -20.6165 -20.5864 -20.5835
-20.5574 -11.4168 -11.3787 -11.3184 -11.3119 -11.3076 -11.3020 -11.3011
-11.2934 -11.2908 -11.2855 -11.2825 -11.2816 -11.2787 -11.2733 -11.2708
-11.2699 -11.2559 -11.2548 -11.2478 -11.2329  -9.0133  -9.0092  -8.9700
 -8.9592  -6.6939  -6.6931  -6.6929  -6.6904  -6.6898  -6.6885  -6.6511
 -6.6502  -6.6490  -6.6405  -6.6395  -6.6385  -1.6517  -1.4767  -1.4086
 -1.4065  -1.3728  -1.2472  -1.2057  -1.1741  -1.1462  -1.0983  -1.0558
 -1.0429  -1.0336  -1.0060  -0.9943  -0.9761  -0.9584  -0.9476  -0.9408
 -0.8903  -0.8783  -0.8579  -0.8109  -0.7967  -0.7841  -0.7818  -0.7690
 -0.7592  -0.7330  -0.7211  -0.7182  -0.6977  -0.6923  -0.6878  -0.6823
 -0.6782  -0.6751  -0.6535  -0.6468  -0.6307  -0.6268  -0.6183  -0.6145
 -0.6118  -0.6098  -0.6024  -0.5945  -0.5780  -0.5642  -0.5555  -0.5551
 -0.5505  -0.5325  -0.5248  -0.5218  -0.5110  -0.5061  -0.5048  -0.4989
 -0.4915  -0.4847  -0.4712  -0.4670  -0.4656  -0.4637  -0.4558  -0.4433
 -0.4209  -0.3988  -0.3816  -0.3679  -0.3489  -0.3020  -0.2860  -0.2173

          Ground-State Mulliken Net Atomic Charges

     Atom                 Charge (a.u.)
  ----------------------------------------
      1 C                    -0.069513
      2 C                    -0.270042
      3 S                    -0.139011
      4 C                    -0.040712
      5 H                     0.192257
      6 C                    -0.052410
      7 C                     0.222965
      8 C                     0.218142
      9 C                    -0.072502
     10 C                    -0.054772
     11 O                    -0.336562
     12 O                    -0.344290
     13 C                    -0.082483
     14 H                     0.119064
     15 H                     0.092149
     16 H                     0.092559
     17 C                    -0.086172
     18 H                     0.121840
     19 H                     0.092144
     20 H                     0.089948
     21 C                    -0.265458
     22 S                    -0.101238
     23 C                     0.056337
     24 H                     0.207422
     25 C                    -0.137979
     26 S                     0.111456
     27 C                    -0.174197
     28 C                    -0.050684
     29 C                    -0.015470
     30 C                     0.340368
     31 C                    -0.117884
     32 S                     0.070945
     33 C                     0.457951
     34 O                    -0.439204
     35 O                    -0.296584
     36 F                    -0.210089
     37 C                    -0.054602
     38 H                     0.117609
     39 H                     0.085751
     40 H                     0.085838
     41 H                     0.219613
     42 H                     0.116126
     43 H                     0.113556
     44 H                     0.187819
  ----------------------------------------
  Sum of atomic charges =     0.000000

                    Cartesian Multipole Moments
 -----------------------------------------------------------------
    Charge (ESU x 10^10)
                 0.0000
    Dipole Moment (Debye)
         X       4.3013      Y       4.4436      Z       2.0570
       Tot       6.5175
    Quadrupole Moments (Debye-Ang)
        XX    -176.4341     XY      12.8250     YY    -188.3995
        XZ      -2.1458     YZ      -7.6735     ZZ    -198.2761

 Total job time:  332.77s(wall), 10669.19s(cpu)
        *  Thank you very much for using Q-Chem.  Have a nice day.  *
