 Q-Chem 5.4, Q-Chem, Inc., Pleasanton, CA (2021)
 Q-Chem 5.4.0 for Intel X86 EM64T Linux

User input:
--------------------------------------------------------------
$molecule
0 1
C	0.208886	-8.519741	-0.174379
C	-0.472151	-7.635967	0.650052
S	1.193717	-7.651740	-1.377058
C	-0.225125	-6.261894	0.353105
H	-1.141594	-7.954738	1.458961
C	0.692811	-6.079985	-0.740583
C	1.039773	-4.798382	-1.195546
C	-0.817634	-5.153542	1.023267
C	-0.473754	-3.869626	0.565262
C	0.447350	-3.688927	-0.527745
O	-1.644483	-5.481075	2.054917
O	1.869424	-4.479871	-2.232592
C	2.939466	-5.356026	-2.565470
H	3.601405	-4.790496	-3.248608
H	2.587892	-6.268513	-3.094885
H	3.516052	-5.658187	-1.664539
C	-2.608813	-4.546999	2.524564
H	-3.270661	-5.107564	3.211568
H	-3.216646	-4.131473	1.692342
H	-2.141184	-3.712085	3.090211
C	0.690319	-2.314326	-0.823402
S	-0.985511	-2.295487	1.194935
C	0.000000	-1.435180	0.000000
H	1.361286	-1.993211	-1.630024
C	0.000000	0.000000	0.000000
S	0.080615	0.895811	1.510732
C	0.216842	2.465231	0.727629
C	0.079127	0.904769	-1.064665
C	0.198659	2.288406	-0.678287
C	0.074988	0.838492	-2.486150
C	0.185097	2.098524	-3.106916
S	0.290501	3.341568	-1.965735
C	0.211932	2.351623	-4.559972
O	0.133545	1.421416	-5.350277
O	0.326994	3.629649	-5.004375
F	-0.018214	-0.271734	-3.246290
C	0.368367	3.986101	-6.334976
H	0.465270	5.086806	-6.370268
H	-0.553140	3.675878	-6.875609
H	1.229874	3.519263	-6.861878
H	0.297091	3.381746	1.321510
H	-0.486655	-9.146471	-0.744739
H	0.898184	-9.150570	0.399033
H	-0.832713	-1.444158	-0.687683
$end

$rem
JOBTYPE		SP
EXCHANGE	HF
CORRELATION	pRIMP2
BASIS		cc-pvtz
METHOD		rimp2
AUX_BASIS	rimp2-cc-pvtz
SOLVENT_METHOD	PCM
PURECART	11111
SYMMETRY	false
MEM_TOTAL	110000
SCF_CONVERGENCE = 6
THRESH=10
GUI = 2
$end

$solvent
dielectric 4.90
$end
--------------------------------------------------------------

             Standard Nuclear Orientation (Angstroms)
    I     Atom           X                Y                Z
 ----------------------------------------------------------------
    1      C       0.2088860000    -8.5197410000    -0.1743790000
    2      C      -0.4721510000    -7.6359670000     0.6500520000
    3      S       1.1937170000    -7.6517400000    -1.3770580000
    4      C      -0.2251250000    -6.2618940000     0.3531050000
    5      H      -1.1415940000    -7.9547380000     1.4589610000
    6      C       0.6928110000    -6.0799850000    -0.7405830000
    7      C       1.0397730000    -4.7983820000    -1.1955460000
    8      C      -0.8176340000    -5.1535420000     1.0232670000
    9      C      -0.4737540000    -3.8696260000     0.5652620000
   10      C       0.4473500000    -3.6889270000    -0.5277450000
   11      O      -1.6444830000    -5.4810750000     2.0549170000
   12      O       1.8694240000    -4.4798710000    -2.2325920000
   13      C       2.9394660000    -5.3560260000    -2.5654700000
   14      H       3.6014050000    -4.7904960000    -3.2486080000
   15      H       2.5878920000    -6.2685130000    -3.0948850000
   16      H       3.5160520000    -5.6581870000    -1.6645390000
   17      C      -2.6088130000    -4.5469990000     2.5245640000
   18      H      -3.2706610000    -5.1075640000     3.2115680000
   19      H      -3.2166460000    -4.1314730000     1.6923420000
   20      H      -2.1411840000    -3.7120850000     3.0902110000
   21      C       0.6903190000    -2.3143260000    -0.8234020000
   22      S      -0.9855110000    -2.2954870000     1.1949350000
   23      C       0.0000000000    -1.4351800000     0.0000000000
   24      H       1.3612860000    -1.9932110000    -1.6300240000
   25      C       0.0000000000     0.0000000000     0.0000000000
   26      S       0.0806150000     0.8958110000     1.5107320000
   27      C       0.2168420000     2.4652310000     0.7276290000
   28      C       0.0791270000     0.9047690000    -1.0646650000
   29      C       0.1986590000     2.2884060000    -0.6782870000
   30      C       0.0749880000     0.8384920000    -2.4861500000
   31      C       0.1850970000     2.0985240000    -3.1069160000
   32      S       0.2905010000     3.3415680000    -1.9657350000
   33      C       0.2119320000     2.3516230000    -4.5599720000
   34      O       0.1335450000     1.4214160000    -5.3502770000
   35      O       0.3269940000     3.6296490000    -5.0043750000
   36      F      -0.0182140000    -0.2717340000    -3.2462900000
   37      C       0.3683670000     3.9861010000    -6.3349760000
   38      H       0.4652700000     5.0868060000    -6.3702680000
   39      H      -0.5531400000     3.6758780000    -6.8756090000
   40      H       1.2298740000     3.5192630000    -6.8618780000
   41      H       0.2970910000     3.3817460000     1.3215100000
   42      H      -0.4866550000    -9.1464710000    -0.7447390000
   43      H       0.8981840000    -9.1505700000     0.3990330000
   44      H      -0.8327130000    -1.4441580000    -0.6876830000
 ----------------------------------------------------------------

   11   -2755.3279610861      7.25e-07  Convergence criterion met
 Total energy in the final basis set =    -2755.3279610861
        RIMP2         total energy =     -2760.4189715110 a.u.

                    Orbital Energies (a.u.)
 --------------------------------------------------------------

 Alpha MOs
 -- Occupied --
-92.0151 -91.9943 -91.9821 -91.9592 -26.3384 -20.6119 -20.5888 -20.5872
-20.5492 -11.4097 -11.3795 -11.3222 -11.3104 -11.3097 -11.2976 -11.2952
-11.2885 -11.2871 -11.2858 -11.2856 -11.2849 -11.2826 -11.2801 -11.2744
-11.2734 -11.2604 -11.2595 -11.2507 -11.2397  -9.0135  -8.9983  -8.9842
 -8.9618  -6.6942  -6.6936  -6.6932  -6.6796  -6.6789  -6.6776  -6.6653
 -6.6644  -6.6632  -6.6430  -6.6421  -6.6410  -1.6515  -1.4715  -1.4121
 -1.4092  -1.3667  -1.2386  -1.2105  -1.1767  -1.1435  -1.1011  -1.0510
 -1.0477  -1.0286  -1.0102  -0.9997  -0.9718  -0.9603  -0.9498  -0.9410
 -0.8953  -0.8740  -0.8628  -0.8087  -0.7949  -0.7870  -0.7772  -0.7722
 -0.7625  -0.7344  -0.7202  -0.7189  -0.6988  -0.6943  -0.6861  -0.6785
 -0.6756  -0.6721  -0.6569  -0.6492  -0.6374  -0.6287  -0.6211  -0.6155
 -0.6109  -0.6060  -0.5951  -0.5927  -0.5809  -0.5691  -0.5597  -0.5523
 -0.5477  -0.5368  -0.5304  -0.5231  -0.5136  -0.5085  -0.5056  -0.5025
 -0.4860  -0.4845  -0.4780  -0.4706  -0.4631  -0.4613  -0.4602  -0.4477
 -0.4297  -0.4000  -0.3872  -0.3715  -0.3509  -0.2938  -0.2863  -0.2196

          Ground-State Mulliken Net Atomic Charges

     Atom                 Charge (a.u.)
  ----------------------------------------
      1 C                    -0.070666
      2 C                    -0.251940
      3 S                    -0.132508
      4 C                    -0.048172
      5 H                     0.194362
      6 C                    -0.051874
      7 C                     0.223006
      8 C                     0.233509
      9 C                    -0.079554
     10 C                    -0.037749
     11 O                    -0.334213
     12 O                    -0.342373
     13 C                    -0.082896
     14 H                     0.120804
     15 H                     0.092153
     16 H                     0.092521
     17 C                    -0.087333
     18 H                     0.124271
     19 H                     0.093416
     20 H                     0.090224
     21 C                    -0.295662
     22 S                    -0.083090
     23 C                     0.114391
     24 H                     0.204294
     25 C                    -0.091173
     26 S                     0.098113
     27 C                    -0.259556
     28 C                    -0.082765
     29 C                    -0.005710
     30 C                     0.399133
     31 C                    -0.149724
     32 S                     0.033943
     33 C                     0.462338
     34 O                    -0.453357
     35 O                    -0.298216
     36 F                    -0.216118
     37 C                    -0.055209
     38 H                     0.116577
     39 H                     0.084472
     40 H                     0.084307
     41 H                     0.213873
     42 H                     0.118530
     43 H                     0.116120
     44 H                     0.199502
  ----------------------------------------
  Sum of atomic charges =     0.000000

                    Cartesian Multipole Moments
 -----------------------------------------------------------------
    Charge (ESU x 10^10)
                 0.0000
    Dipole Moment (Debye)
         X      -0.3562      Y       2.3315      Z       3.1140
       Tot       3.9064
    Quadrupole Moments (Debye-Ang)
        XX    -187.6388     XY       4.1079     YY    -170.5593
        XZ      -9.4293     YZ     -13.6665     ZZ    -202.1792

 Total job time:  325.76s(wall), 10526.51s(cpu)
        *  Thank you very much for using Q-Chem.  Have a nice day.  *
