 Q-Chem 5.4, Q-Chem, Inc., Pleasanton, CA (2021)
 Q-Chem 5.4.0 for Intel X86 EM64T Linux

User input:
--------------------------------------------------------------
$molecule
0 1
C	-0.175432	-8.519741	0.208002
C	0.352097	-7.635967	-0.722164
S	-0.936458	-7.651740	1.563424
C	0.160388	-6.261894	-0.386833
H	0.870905	-7.954738	-1.635031
C	-0.553685	-6.079985	0.849637
C	-0.816372	-4.798382	1.357938
C	0.627524	-5.153542	-1.149702
C	0.368399	-3.869626	-0.638941
C	-0.348912	-3.688927	0.597409
O	1.262667	-5.481075	-2.309260
O	-1.453338	-4.479871	2.523296
C	-2.449320	-5.356026	3.036927
H	-2.982577	-4.790496	3.824632
H	-2.011155	-6.268513	3.497250
H	-3.173591	-5.658187	2.249807
C	2.130793	-4.546999	-2.939226
H	2.663289	-5.107564	-3.730721
H	2.873906	-4.131473	-2.225196
H	1.572045	-3.712085	-3.415077
C	-0.536849	-2.314326	0.930765
S	0.763041	-2.295487	-1.347913
C	-0.000000	-1.435180	-0.000000
H	-1.057554	-1.993211	1.841645
C	0.000000	0.000000	0.000000
S	0.579852	0.687566	1.510732
C	1.591625	1.895024	0.727629
C	0.583771	0.695758	-1.064665
C	1.475308	1.760606	-0.678287
C	0.542366	0.643841	-2.486150
C	1.355286	1.612843	-3.106916
S	2.154609	2.570627	-1.965735
C	1.522440	1.804778	-4.559972
O	0.924684	1.087757	-5.350277
O	2.349739	2.785679	-5.004375
F	-0.170780	-0.212144	-3.246290
C	2.588082	3.053936	-6.334976
H	3.298799	3.899999	-6.370268
H	1.655291	3.328371	-6.875609
H	3.026021	2.177385	-6.861878
H	2.183053	2.599759	1.321510
H	0.608584	-9.146471	0.648918
H	-0.953830	-9.150570	-0.237003
H	0.939477	-1.444158	0.532637
$end

$rem
JOBTYPE		SP
EXCHANGE	HF
CORRELATION	pRIMP2
BASIS		cc-pvtz
METHOD		rimp2
AUX_BASIS	rimp2-cc-pvtz
SOLVENT_METHOD	PCM
PURECART	11111
SYMMETRY	false
MEM_TOTAL	110000
SCF_CONVERGENCE = 6
THRESH=10
GUI = 2
$end

$solvent
dielectric 4.90
$end
--------------------------------------------------------------

             Standard Nuclear Orientation (Angstroms)
    I     Atom           X                Y                Z
 ----------------------------------------------------------------
    1      C      -0.1754320000    -8.5197410000     0.2080020000
    2      C       0.3520970000    -7.6359670000    -0.7221640000
    3      S      -0.9364580000    -7.6517400000     1.5634240000
    4      C       0.1603880000    -6.2618940000    -0.3868330000
    5      H       0.8709050000    -7.9547380000    -1.6350310000
    6      C      -0.5536850000    -6.0799850000     0.8496370000
    7      C      -0.8163720000    -4.7983820000     1.3579380000
    8      C       0.6275240000    -5.1535420000    -1.1497020000
    9      C       0.3683990000    -3.8696260000    -0.6389410000
   10      C      -0.3489120000    -3.6889270000     0.5974090000
   11      O       1.2626670000    -5.4810750000    -2.3092600000
   12      O      -1.4533380000    -4.4798710000     2.5232960000
   13      C      -2.4493200000    -5.3560260000     3.0369270000
   14      H      -2.9825770000    -4.7904960000     3.8246320000
   15      H      -2.0111550000    -6.2685130000     3.4972500000
   16      H      -3.1735910000    -5.6581870000     2.2498070000
   17      C       2.1307930000    -4.5469990000    -2.9392260000
   18      H       2.6632890000    -5.1075640000    -3.7307210000
   19      H       2.8739060000    -4.1314730000    -2.2251960000
   20      H       1.5720450000    -3.7120850000    -3.4150770000
   21      C      -0.5368490000    -2.3143260000     0.9307650000
   22      S       0.7630410000    -2.2954870000    -1.3479130000
   23      C       0.0000000000    -1.4351800000     0.0000000000
   24      H      -1.0575540000    -1.9932110000     1.8416450000
   25      C       0.0000000000     0.0000000000     0.0000000000
   26      S       0.5798520000     0.6875660000     1.5107320000
   27      C       1.5916250000     1.8950240000     0.7276290000
   28      C       0.5837710000     0.6957580000    -1.0646650000
   29      C       1.4753080000     1.7606060000    -0.6782870000
   30      C       0.5423660000     0.6438410000    -2.4861500000
   31      C       1.3552860000     1.6128430000    -3.1069160000
   32      S       2.1546090000     2.5706270000    -1.9657350000
   33      C       1.5224400000     1.8047780000    -4.5599720000
   34      O       0.9246840000     1.0877570000    -5.3502770000
   35      O       2.3497390000     2.7856790000    -5.0043750000
   36      F      -0.1707800000    -0.2121440000    -3.2462900000
   37      C       2.5880820000     3.0539360000    -6.3349760000
   38      H       3.2987990000     3.8999990000    -6.3702680000
   39      H       1.6552910000     3.3283710000    -6.8756090000
   40      H       3.0260210000     2.1773850000    -6.8618780000
   41      H       2.1830530000     2.5997590000     1.3215100000
   42      H       0.6085840000    -9.1464710000     0.6489180000
   43      H      -0.9538300000    -9.1505700000    -0.2370030000
   44      H       0.9394770000    -1.4441580000     0.5326370000
 ----------------------------------------------------------------

   11   -2755.2933742546      7.02e-07  Convergence criterion met
 Total energy in the final basis set =    -2755.2933742546
        RIMP2         total energy =     -2760.3950638941 a.u.

                    Orbital Energies (a.u.)
 --------------------------------------------------------------

 Alpha MOs
 -- Occupied --
-92.0086 -91.9953 -91.9759 -91.9595 -26.3342 -20.6128 -20.5875 -20.5873
-20.5509 -11.4111 -11.3789 -11.3115 -11.3090 -11.3088 -11.2990 -11.2983
-11.2972 -11.2889 -11.2839 -11.2832 -11.2831 -11.2825 -11.2811 -11.2747
-11.2687 -11.2602 -11.2590 -11.2510 -11.2401  -9.0084  -8.9994  -8.9784
 -8.9621  -6.6892  -6.6885  -6.6880  -6.6807  -6.6800  -6.6786  -6.6594
 -6.6586  -6.6572  -6.6433  -6.6424  -6.6413  -1.6482  -1.4725  -1.4108
 -1.4093  -1.3678  -1.2435  -1.2086  -1.1774  -1.1453  -1.0987  -1.0528
 -1.0459  -1.0323  -1.0073  -0.9983  -0.9729  -0.9596  -0.9494  -0.9409
 -0.8940  -0.8719  -0.8614  -0.8117  -0.7946  -0.7857  -0.7760  -0.7677
 -0.7651  -0.7331  -0.7213  -0.7160  -0.6968  -0.6947  -0.6835  -0.6790
 -0.6729  -0.6706  -0.6561  -0.6488  -0.6377  -0.6279  -0.6212  -0.6154
 -0.6113  -0.6071  -0.5977  -0.5940  -0.5784  -0.5667  -0.5630  -0.5586
 -0.5469  -0.5339  -0.5292  -0.5212  -0.5133  -0.5081  -0.5037  -0.5014
 -0.4860  -0.4834  -0.4779  -0.4652  -0.4621  -0.4614  -0.4608  -0.4474
 -0.4269  -0.4009  -0.3833  -0.3723  -0.3515  -0.2952  -0.2842  -0.2166

          Ground-State Mulliken Net Atomic Charges

     Atom                 Charge (a.u.)
  ----------------------------------------
      1 C                    -0.070822
      2 C                    -0.250393
      3 S                    -0.132562
      4 C                    -0.050711
      5 H                     0.194889
      6 C                    -0.046118
      7 C                     0.214175
      8 C                     0.227461
      9 C                    -0.074877
     10 C                    -0.012489
     11 O                    -0.334429
     12 O                    -0.343508
     13 C                    -0.082626
     14 H                     0.119882
     15 H                     0.091813
     16 H                     0.093165
     17 C                    -0.089757
     18 H                     0.124190
     19 H                     0.091900
     20 H                     0.092793
     21 C                    -0.341769
     22 S                    -0.095087
     23 C                     0.125207
     24 H                     0.201401
     25 C                    -0.006818
     26 S                     0.078686
     27 C                    -0.225774
     28 C                    -0.139375
     29 C                    -0.012334
     30 C                     0.358482
     31 C                    -0.139423
     32 S                     0.043125
     33 C                     0.458741
     34 O                    -0.448777
     35 O                    -0.298029
     36 F                    -0.207085
     37 C                    -0.054716
     38 H                     0.116773
     39 H                     0.084849
     40 H                     0.084418
     41 H                     0.215623
     42 H                     0.118732
     43 H                     0.116586
     44 H                     0.204587
  ----------------------------------------
  Sum of atomic charges =     0.000000

                    Cartesian Multipole Moments
 -----------------------------------------------------------------
    Charge (ESU x 10^10)
                -0.0000
    Dipole Moment (Debye)
         X       2.9671      Y       1.9772      Z       3.0406
       Tot       4.6860
    Quadrupole Moments (Debye-Ang)
        XX    -184.3564     XY       5.9788     YY    -175.6174
        XZ     -16.3478     YZ      -4.5003     ZZ    -197.8190

 Total job time:  337.34s(wall), 11179.58s(cpu)
        *  Thank you very much for using Q-Chem.  Have a nice day.  *
