 Q-Chem 5.4, Q-Chem, Inc., Pleasanton, CA (2021)
 Q-Chem 5.4.0 for Intel X86 EM64T Linux

User input:
--------------------------------------------------------------
$molecule
0 1
C	0.268090	-8.519741	-0.046574
C	-0.733920	-7.635967	0.326886
S	1.722318	-7.651740	-0.595708
C	-0.371516	-6.261894	0.193236
H	-1.718130	-7.954738	0.692700
C	0.970283	-6.079985	-0.294958
C	1.498243	-4.798382	-0.515487
C	-1.219725	-5.153542	0.477358
C	-0.692914	-3.869626	0.252655
C	0.651289	-3.688927	-0.233366
O	-2.451623	-5.481075	0.957369
O	2.735264	-4.479871	-0.998769
C	3.828387	-5.356026	-0.752029
H	4.743213	-4.790496	-1.012675
H	3.788623	-6.268513	-1.386303
H	3.877260	-5.658187	0.316492
C	-3.521580	-4.546999	0.881930
H	-4.438260	-5.107564	1.145969
H	-3.631868	-4.131473	-0.142712
H	-3.399425	-3.712085	1.605610
C	1.009535	-2.314326	-0.367928
S	-1.450945	-2.295487	0.542088
C	-0.000000	-1.435180	-0.000000
H	1.993920	-1.993211	-0.730999
C	0.000000	0.000000	0.000000
S	0.382139	0.814215	1.510732
C	1.046923	2.242395	0.727629
C	0.383804	0.823142	-1.064665
C	0.969360	2.082453	-0.678287
C	0.357247	0.762277	-2.486150
C	0.891671	1.908660	-3.106916
S	1.415865	3.040689	-1.965735
C	1.003453	2.137318	-4.559972
O	0.611644	1.290019	-5.350277
O	1.548687	3.298916	-5.004375
F	-0.110054	-0.249117	-3.246290
C	1.709479	3.619721	-6.334976
H	2.177001	4.620902	-6.370268
H	0.737443	3.643380	-6.875609
H	2.359363	2.886384	-6.861878
H	1.435800	3.076190	1.321510
H	-0.049086	-9.146471	-0.888291
H	0.578334	-9.150570	0.794665
H	-0.377309	-1.444158	-1.011908
$end

$rem
JOBTYPE		SP
EXCHANGE	HF
CORRELATION	pRIMP2
BASIS		cc-pvtz
METHOD		rimp2
AUX_BASIS	rimp2-cc-pvtz
SOLVENT_METHOD	PCM
PURECART	11111
SYMMETRY	false
MEM_TOTAL	110000
SCF_CONVERGENCE = 6
THRESH=10
GUI = 2
$end

$solvent
dielectric 4.90
$end
--------------------------------------------------------------

             Standard Nuclear Orientation (Angstroms)
    I     Atom           X                Y                Z
 ----------------------------------------------------------------
    1      C       0.2680900000    -8.5197410000    -0.0465740000
    2      C      -0.7339200000    -7.6359670000     0.3268860000
    3      S       1.7223180000    -7.6517400000    -0.5957080000
    4      C      -0.3715160000    -6.2618940000     0.1932360000
    5      H      -1.7181300000    -7.9547380000     0.6927000000
    6      C       0.9702830000    -6.0799850000    -0.2949580000
    7      C       1.4982430000    -4.7983820000    -0.5154870000
    8      C      -1.2197250000    -5.1535420000     0.4773580000
    9      C      -0.6929140000    -3.8696260000     0.2526550000
   10      C       0.6512890000    -3.6889270000    -0.2333660000
   11      O      -2.4516230000    -5.4810750000     0.9573690000
   12      O       2.7352640000    -4.4798710000    -0.9987690000
   13      C       3.8283870000    -5.3560260000    -0.7520290000
   14      H       4.7432130000    -4.7904960000    -1.0126750000
   15      H       3.7886230000    -6.2685130000    -1.3863030000
   16      H       3.8772600000    -5.6581870000     0.3164920000
   17      C      -3.5215800000    -4.5469990000     0.8819300000
   18      H      -4.4382600000    -5.1075640000     1.1459690000
   19      H      -3.6318680000    -4.1314730000    -0.1427120000
   20      H      -3.3994250000    -3.7120850000     1.6056100000
   21      C       1.0095350000    -2.3143260000    -0.3679280000
   22      S      -1.4509450000    -2.2954870000     0.5420880000
   23      C       0.0000000000    -1.4351800000     0.0000000000
   24      H       1.9939200000    -1.9932110000    -0.7309990000
   25      C       0.0000000000     0.0000000000     0.0000000000
   26      S       0.3821390000     0.8142150000     1.5107320000
   27      C       1.0469230000     2.2423950000     0.7276290000
   28      C       0.3838040000     0.8231420000    -1.0646650000
   29      C       0.9693600000     2.0824530000    -0.6782870000
   30      C       0.3572470000     0.7622770000    -2.4861500000
   31      C       0.8916710000     1.9086600000    -3.1069160000
   32      S       1.4158650000     3.0406890000    -1.9657350000
   33      C       1.0034530000     2.1373180000    -4.5599720000
   34      O       0.6116440000     1.2900190000    -5.3502770000
   35      O       1.5486870000     3.2989160000    -5.0043750000
   36      F      -0.1100540000    -0.2491170000    -3.2462900000
   37      C       1.7094790000     3.6197210000    -6.3349760000
   38      H       2.1770010000     4.6209020000    -6.3702680000
   39      H       0.7374430000     3.6433800000    -6.8756090000
   40      H       2.3593630000     2.8863840000    -6.8618780000
   41      H       1.4358000000     3.0761900000     1.3215100000
   42      H      -0.0490860000    -9.1464710000    -0.8882910000
   43      H       0.5783340000    -9.1505700000     0.7946650000
   44      H      -0.3773090000    -1.4441580000    -1.0119080000
 ----------------------------------------------------------------

   11   -2755.3186311777      6.86e-07  Convergence criterion met
 Total energy in the final basis set =    -2755.3186311777
        RIMP2         total energy =     -2760.4136340110 a.u.

                    Orbital Energies (a.u.)
 --------------------------------------------------------------

 Alpha MOs
 -- Occupied --
-92.0125 -91.9985 -91.9761 -91.9578 -26.3388 -20.6141 -20.5868 -20.5863
-20.5531 -11.4131 -11.3796 -11.3087 -11.3073 -11.3064 -11.3030 -11.3013
-11.2985 -11.2896 -11.2883 -11.2839 -11.2825 -11.2822 -11.2795 -11.2725
-11.2724 -11.2577 -11.2575 -11.2492 -11.2362  -9.0113  -9.0025  -8.9783
 -8.9604  -6.6920  -6.6913  -6.6910  -6.6837  -6.6831  -6.6817  -6.6595
 -6.6586  -6.6573  -6.6416  -6.6407  -6.6397  -1.6519  -1.4740  -1.4098
 -1.4085  -1.3696  -1.2406  -1.2080  -1.1748  -1.1441  -1.0996  -1.0529
 -1.0454  -1.0303  -1.0084  -0.9972  -0.9734  -0.9594  -0.9485  -0.9412
 -0.8929  -0.8750  -0.8619  -0.8087  -0.7950  -0.7848  -0.7806  -0.7720
 -0.7617  -0.7336  -0.7204  -0.7191  -0.6977  -0.6926  -0.6870  -0.6803
 -0.6761  -0.6741  -0.6552  -0.6482  -0.6334  -0.6271  -0.6196  -0.6146
 -0.6109  -0.6085  -0.5979  -0.5939  -0.5826  -0.5664  -0.5575  -0.5544
 -0.5470  -0.5328  -0.5290  -0.5226  -0.5124  -0.5072  -0.5035  -0.5014
 -0.4880  -0.4850  -0.4746  -0.4693  -0.4635  -0.4629  -0.4599  -0.4456
 -0.4217  -0.4040  -0.3846  -0.3696  -0.3504  -0.2946  -0.2886  -0.2199

          Ground-State Mulliken Net Atomic Charges

     Atom                 Charge (a.u.)
  ----------------------------------------
      1 C                    -0.070206
      2 C                    -0.261481
      3 S                    -0.135725
      4 C                    -0.045392
      5 H                     0.193152
      6 C                    -0.052788
      7 C                     0.222378
      8 C                     0.230416
      9 C                    -0.083380
     10 C                    -0.037704
     11 O                    -0.335424
     12 O                    -0.343261
     13 C                    -0.082524
     14 H                     0.119842
     15 H                     0.092182
     16 H                     0.092510
     17 C                    -0.086425
     18 H                     0.122984
     19 H                     0.092596
     20 H                     0.089922
     21 C                    -0.275434
     22 S                    -0.073024
     23 C                     0.062654
     24 H                     0.207699
     25 C                    -0.065501
     26 S                     0.100993
     27 C                    -0.218816
     28 C                    -0.121853
     29 C                    -0.003003
     30 C                     0.380984
     31 C                    -0.134648
     32 S                     0.048146
     33 C                     0.459460
     34 O                    -0.446401
     35 O                    -0.297353
     36 F                    -0.214179
     37 C                    -0.054918
     38 H                     0.117077
     39 H                     0.085087
     40 H                     0.085047
     41 H                     0.215819
     42 H                     0.117219
     43 H                     0.114700
     44 H                     0.188572
  ----------------------------------------
  Sum of atomic charges =     0.000000

                    Cartesian Multipole Moments
 -----------------------------------------------------------------
    Charge (ESU x 10^10)
                -0.0000
    Dipole Moment (Debye)
         X       1.4545      Y       3.8428      Z       2.4309
       Tot       4.7741
    Quadrupole Moments (Debye-Ang)
        XX    -179.9995     XY       9.9777     YY    -177.2680
        XZ      -5.3235     YZ     -11.7071     ZZ    -205.2939

 Total job time:  373.31s(wall), 10547.04s(cpu)
        *  Thank you very much for using Q-Chem.  Have a nice day.  *
