 Q-Chem 5.4, Q-Chem, Inc., Pleasanton, CA (2021)
 Q-Chem 5.4.0 for Intel X86 EM64T Linux

User input:
--------------------------------------------------------------
$molecule
0 1
C	0.136647	-8.519741	-0.235306
C	-0.221346	-7.635967	0.772334
S	0.650746	-7.651740	-1.702286
C	-0.090779	-6.261894	0.408807
H	-0.573754	-7.954738	1.761423
C	0.397735	-6.079985	-0.932876
C	0.568166	-4.798382	-1.479069
C	-0.418347	-5.153542	1.241204
C	-0.251852	-3.869626	0.693206
C	0.239872	-3.688927	-0.648921
O	-0.842486	-5.481075	2.493437
O	0.993092	-4.479871	-2.737331
C	1.884752	-5.356026	-3.416110
H	2.273124	-4.790496	-4.284447
H	1.373310	-6.268513	-3.793352
H	2.734702	-5.658187	-2.766716
C	-1.588030	-4.546999	3.264581
H	-1.974995	-5.107564	4.136519
H	-2.443843	-4.131473	2.690439
H	-0.955140	-3.712085	3.636177
C	0.367068	-2.314326	-1.009848
S	-0.517386	-2.295487	1.459936
C	-0.000000	-1.435180	-0.000000
H	0.721689	-1.993211	-1.997308
C	0.000000	0.000000	0.000000
S	0.382139	0.814215	1.510732
C	1.046923	2.242395	0.727629
C	0.383804	0.823142	-1.064665
C	0.969360	2.082453	-0.678287
C	0.357247	0.762277	-2.486150
C	0.891671	1.908660	-3.106916
S	1.415865	3.040689	-1.965735
C	1.003453	2.137318	-4.559972
O	0.611644	1.290019	-5.350277
O	1.548687	3.298916	-5.004375
F	-0.110054	-0.249117	-3.246290
C	1.709479	3.619721	-6.334976
H	2.177001	4.620902	-6.370268
H	0.737443	3.643380	-6.875609
H	2.359363	2.886384	-6.861878
H	1.435800	3.076190	1.321510
H	-0.712022	-9.146471	-0.533380
H	0.980494	-9.150570	0.067771
H	-1.017696	-1.444158	-0.361406
$end

$rem
JOBTYPE		SP
EXCHANGE	HF
CORRELATION	pRIMP2
BASIS		cc-pvtz
METHOD		rimp2
AUX_BASIS	rimp2-cc-pvtz
SOLVENT_METHOD	PCM
PURECART	11111
SYMMETRY	false
MEM_TOTAL	110000
SCF_CONVERGENCE = 6
THRESH=10
GUI = 2
$end

$solvent
dielectric 4.90
$end
--------------------------------------------------------------

             Standard Nuclear Orientation (Angstroms)
    I     Atom           X                Y                Z
 ----------------------------------------------------------------
    1      C       0.1366470000    -8.5197410000    -0.2353060000
    2      C      -0.2213460000    -7.6359670000     0.7723340000
    3      S       0.6507460000    -7.6517400000    -1.7022860000
    4      C      -0.0907790000    -6.2618940000     0.4088070000
    5      H      -0.5737540000    -7.9547380000     1.7614230000
    6      C       0.3977350000    -6.0799850000    -0.9328760000
    7      C       0.5681660000    -4.7983820000    -1.4790690000
    8      C      -0.4183470000    -5.1535420000     1.2412040000
    9      C      -0.2518520000    -3.8696260000     0.6932060000
   10      C       0.2398720000    -3.6889270000    -0.6489210000
   11      O      -0.8424860000    -5.4810750000     2.4934370000
   12      O       0.9930920000    -4.4798710000    -2.7373310000
   13      C       1.8847520000    -5.3560260000    -3.4161100000
   14      H       2.2731240000    -4.7904960000    -4.2844470000
   15      H       1.3733100000    -6.2685130000    -3.7933520000
   16      H       2.7347020000    -5.6581870000    -2.7667160000
   17      C      -1.5880300000    -4.5469990000     3.2645810000
   18      H      -1.9749950000    -5.1075640000     4.1365190000
   19      H      -2.4438430000    -4.1314730000     2.6904390000
   20      H      -0.9551400000    -3.7120850000     3.6361770000
   21      C       0.3670680000    -2.3143260000    -1.0098480000
   22      S      -0.5173860000    -2.2954870000     1.4599360000
   23      C       0.0000000000    -1.4351800000     0.0000000000
   24      H       0.7216890000    -1.9932110000    -1.9973080000
   25      C       0.0000000000     0.0000000000     0.0000000000
   26      S       0.3821390000     0.8142150000     1.5107320000
   27      C       1.0469230000     2.2423950000     0.7276290000
   28      C       0.3838040000     0.8231420000    -1.0646650000
   29      C       0.9693600000     2.0824530000    -0.6782870000
   30      C       0.3572470000     0.7622770000    -2.4861500000
   31      C       0.8916710000     1.9086600000    -3.1069160000
   32      S       1.4158650000     3.0406890000    -1.9657350000
   33      C       1.0034530000     2.1373180000    -4.5599720000
   34      O       0.6116440000     1.2900190000    -5.3502770000
   35      O       1.5486870000     3.2989160000    -5.0043750000
   36      F      -0.1100540000    -0.2491170000    -3.2462900000
   37      C       1.7094790000     3.6197210000    -6.3349760000
   38      H       2.1770010000     4.6209020000    -6.3702680000
   39      H       0.7374430000     3.6433800000    -6.8756090000
   40      H       2.3593630000     2.8863840000    -6.8618780000
   41      H       1.4358000000     3.0761900000     1.3215100000
   42      H      -0.7120220000    -9.1464710000    -0.5333800000
   43      H       0.9804940000    -9.1505700000     0.0677710000
   44      H      -1.0176960000    -1.4441580000    -0.3614060000
 ----------------------------------------------------------------

   11   -2755.3123044985      6.99e-07  Convergence criterion met
 Total energy in the final basis set =    -2755.3123044985
        RIMP2         total energy =     -2760.4091831487 a.u.

                    Orbital Energies (a.u.)
 --------------------------------------------------------------

 Alpha MOs
 -- Occupied --
-92.0143 -91.9948 -91.9824 -91.9592 -26.3393 -20.6118 -20.5893 -20.5871
-20.5492 -11.4097 -11.3793 -11.3183 -11.3112 -11.3098 -11.2979 -11.2955
-11.2890 -11.2885 -11.2860 -11.2854 -11.2842 -11.2823 -11.2800 -11.2742
-11.2728 -11.2602 -11.2596 -11.2509 -11.2402  -9.0130  -8.9989  -8.9846
 -8.9617  -6.6938  -6.6931  -6.6926  -6.6801  -6.6794  -6.6781  -6.6657
 -6.6649  -6.6636  -6.6430  -6.6420  -6.6410  -1.6531  -1.4715  -1.4125
 -1.4090  -1.3667  -1.2393  -1.2105  -1.1770  -1.1439  -1.1007  -1.0514
 -1.0479  -1.0290  -1.0100  -0.9999  -0.9720  -0.9601  -0.9500  -0.9411
 -0.8956  -0.8737  -0.8627  -0.8092  -0.7970  -0.7874  -0.7764  -0.7719
 -0.7626  -0.7348  -0.7225  -0.7193  -0.6987  -0.6940  -0.6851  -0.6785
 -0.6730  -0.6724  -0.6574  -0.6492  -0.6395  -0.6292  -0.6212  -0.6154
 -0.6099  -0.6060  -0.5958  -0.5935  -0.5790  -0.5702  -0.5598  -0.5540
 -0.5449  -0.5357  -0.5313  -0.5232  -0.5140  -0.5091  -0.5068  -0.5021
 -0.4852  -0.4843  -0.4782  -0.4691  -0.4624  -0.4610  -0.4596  -0.4476
 -0.4319  -0.3976  -0.3879  -0.3714  -0.3505  -0.2940  -0.2858  -0.2177

          Ground-State Mulliken Net Atomic Charges

     Atom                 Charge (a.u.)
  ----------------------------------------
      1 C                    -0.070788
      2 C                    -0.251830
      3 S                    -0.132710
      4 C                    -0.050371
      5 H                     0.194436
      6 C                    -0.050471
      7 C                     0.224050
      8 C                     0.235734
      9 C                    -0.074089
     10 C                    -0.036674
     11 O                    -0.333659
     12 O                    -0.342770
     13 C                    -0.083116
     14 H                     0.121327
     15 H                     0.092197
     16 H                     0.092579
     17 C                    -0.088285
     18 H                     0.125052
     19 H                     0.093457
     20 H                     0.090143
     21 C                    -0.318055
     22 S                    -0.095893
     23 C                     0.125058
     24 H                     0.205504
     25 C                    -0.040987
     26 S                     0.102598
     27 C                    -0.260474
     28 C                    -0.107549
     29 C                    -0.003542
     30 C                     0.361694
     31 C                    -0.145471
     32 S                     0.041953
     33 C                     0.460709
     34 O                    -0.453085
     35 O                    -0.298479
     36 F                    -0.215046
     37 C                    -0.054872
     38 H                     0.116625
     39 H                     0.084378
     40 H                     0.084251
     41 H                     0.214168
     42 H                     0.118614
     43 H                     0.116230
     44 H                     0.207459
  ----------------------------------------
  Sum of atomic charges =     0.000000

                    Cartesian Multipole Moments
 -----------------------------------------------------------------
    Charge (ESU x 10^10)
                 0.0000
    Dipole Moment (Debye)
         X       0.6353      Y       2.0621      Z       3.3567
       Tot       3.9905
    Quadrupole Moments (Debye-Ang)
        XX    -191.4425     XY       7.3568     YY    -172.4407
        XZ     -13.8086     YZ     -13.5011     ZZ    -195.6622

 Total job time:  341.15s(wall), 10504.50s(cpu)
        *  Thank you very much for using Q-Chem.  Have a nice day.  *
