 Q-Chem 5.4, Q-Chem, Inc., Pleasanton, CA (2021)
 Q-Chem 5.4.0 for Intel X86 EM64T Linux

User input:
--------------------------------------------------------------
$molecule
0 1
C	0.047927	-8.519741	-0.267851
C	0.056157	-7.635967	0.801461
S	0.029285	-7.651740	-1.822194
C	0.054516	-6.261894	0.415201
H	0.063290	-7.954738	1.851431
C	0.054687	-6.079985	-1.012650
C	0.028030	-4.798382	-1.584194
C	0.031399	-5.153542	1.309433
C	0.000427	-3.869626	0.737539
C	0.003462	-3.688927	-0.691828
O	0.061128	-5.481075	2.631211
O	-0.003021	-4.479871	-2.911907
C	0.602710	-5.356026	-3.854716
H	0.670671	-4.790496	-4.803517
H	-0.006913	-6.268513	-4.034285
H	1.623507	-5.658187	-3.535185
C	-0.375708	-4.546999	3.610841
H	-0.441115	-5.107564	4.562544
H	-1.376277	-4.131473	3.364029
H	0.346107	-3.712085	3.743566
C	-0.000458	-2.314326	-1.074491
S	0.013144	-2.295487	1.548848
C	-0.000000	-1.435180	-0.000000
H	-0.004953	-1.993211	-2.123688
C	0.000000	0.000000	0.000000
S	0.451648	0.777811	1.510732
C	1.238377	2.142617	0.727629
C	0.454085	0.786559	-1.064665
C	1.147169	1.990043	-0.678287
C	0.422325	0.728240	-2.486150
C	1.054629	1.823683	-3.106916
S	1.675491	2.905718	-1.965735
C	1.185914	2.041729	-4.559972
O	0.721749	1.231802	-5.350277
O	1.830313	3.151386	-5.004375
F	-0.131347	-0.238577	-3.246290
C	2.018453	3.456956	-6.334976
H	2.571455	4.413580	-6.370268
H	1.052178	3.565244	-6.875609
H	2.601950	2.669768	-6.861878
H	1.698444	2.939346	1.321510
H	-0.851509	-9.146471	-0.257688
H	0.944542	-9.150570	-0.271664
H	-1.079930	-1.444158	0.008462
$end

$rem
JOBTYPE		SP
EXCHANGE	HF
CORRELATION	pRIMP2
BASIS		cc-pvtz
METHOD		rimp2
AUX_BASIS	rimp2-cc-pvtz
SOLVENT_METHOD	PCM
PURECART	11111
SYMMETRY	false
MEM_TOTAL	110000
SCF_CONVERGENCE = 6
THRESH=10
GUI = 2
$end

$solvent
dielectric 4.90
$end
--------------------------------------------------------------

             Standard Nuclear Orientation (Angstroms)
    I     Atom           X                Y                Z
 ----------------------------------------------------------------
    1      C       0.0479270000    -8.5197410000    -0.2678510000
    2      C       0.0561570000    -7.6359670000     0.8014610000
    3      S       0.0292850000    -7.6517400000    -1.8221940000
    4      C       0.0545160000    -6.2618940000     0.4152010000
    5      H       0.0632900000    -7.9547380000     1.8514310000
    6      C       0.0546870000    -6.0799850000    -1.0126500000
    7      C       0.0280300000    -4.7983820000    -1.5841940000
    8      C       0.0313990000    -5.1535420000     1.3094330000
    9      C       0.0004270000    -3.8696260000     0.7375390000
   10      C       0.0034620000    -3.6889270000    -0.6918280000
   11      O       0.0611280000    -5.4810750000     2.6312110000
   12      O      -0.0030210000    -4.4798710000    -2.9119070000
   13      C       0.6027100000    -5.3560260000    -3.8547160000
   14      H       0.6706710000    -4.7904960000    -4.8035170000
   15      H      -0.0069130000    -6.2685130000    -4.0342850000
   16      H       1.6235070000    -5.6581870000    -3.5351850000
   17      C      -0.3757080000    -4.5469990000     3.6108410000
   18      H      -0.4411150000    -5.1075640000     4.5625440000
   19      H      -1.3762770000    -4.1314730000     3.3640290000
   20      H       0.3461070000    -3.7120850000     3.7435660000
   21      C      -0.0004580000    -2.3143260000    -1.0744910000
   22      S       0.0131440000    -2.2954870000     1.5488480000
   23      C       0.0000000000    -1.4351800000     0.0000000000
   24      H      -0.0049530000    -1.9932110000    -2.1236880000
   25      C       0.0000000000     0.0000000000     0.0000000000
   26      S       0.4516480000     0.7778110000     1.5107320000
   27      C       1.2383770000     2.1426170000     0.7276290000
   28      C       0.4540850000     0.7865590000    -1.0646650000
   29      C       1.1471690000     1.9900430000    -0.6782870000
   30      C       0.4223250000     0.7282400000    -2.4861500000
   31      C       1.0546290000     1.8236830000    -3.1069160000
   32      S       1.6754910000     2.9057180000    -1.9657350000
   33      C       1.1859140000     2.0417290000    -4.5599720000
   34      O       0.7217490000     1.2318020000    -5.3502770000
   35      O       1.8303130000     3.1513860000    -5.0043750000
   36      F      -0.1313470000    -0.2385770000    -3.2462900000
   37      C       2.0184530000     3.4569560000    -6.3349760000
   38      H       2.5714550000     4.4135800000    -6.3702680000
   39      H       1.0521780000     3.5652440000    -6.8756090000
   40      H       2.6019500000     2.6697680000    -6.8618780000
   41      H       1.6984440000     2.9393460000     1.3215100000
   42      H      -0.8515090000    -9.1464710000    -0.2576880000
   43      H       0.9445420000    -9.1505700000    -0.2716640000
   44      H      -1.0799300000    -1.4441580000     0.0084620000
 ----------------------------------------------------------------

   11   -2755.3026506650      6.70e-07  Convergence criterion met
 Total energy in the final basis set =    -2755.3026506650
        RIMP2         total energy =     -2760.4024937904 a.u.

                    Orbital Energies (a.u.)
 --------------------------------------------------------------

 Alpha MOs
 -- Occupied --
-92.0145 -91.9949 -91.9826 -91.9588 -26.3402 -20.6118 -20.5891 -20.5868
-20.5493 -11.4098 -11.3794 -11.3160 -11.3109 -11.3095 -11.2977 -11.2958
-11.2903 -11.2885 -11.2860 -11.2848 -11.2826 -11.2820 -11.2795 -11.2735
-11.2706 -11.2593 -11.2590 -11.2506 -11.2396  -9.0133  -8.9989  -8.9848
 -8.9614  -6.6941  -6.6934  -6.6930  -6.6802  -6.6795  -6.6782  -6.6659
 -6.6650  -6.6637  -6.6426  -6.6417  -6.6407  -1.6548  -1.4715  -1.4124
 -1.4087  -1.3668  -1.2395  -1.2101  -1.1768  -1.1440  -1.1000  -1.0513
 -1.0477  -1.0295  -1.0099  -0.9995  -0.9723  -0.9597  -0.9498  -0.9407
 -0.8956  -0.8732  -0.8631  -0.8104  -0.7985  -0.7874  -0.7756  -0.7711
 -0.7631  -0.7344  -0.7242  -0.7206  -0.6983  -0.6942  -0.6848  -0.6785
 -0.6730  -0.6696  -0.6575  -0.6490  -0.6401  -0.6295  -0.6209  -0.6151
 -0.6085  -0.6062  -0.5959  -0.5934  -0.5766  -0.5708  -0.5593  -0.5538
 -0.5444  -0.5361  -0.5321  -0.5229  -0.5146  -0.5097  -0.5069  -0.5012
 -0.4854  -0.4832  -0.4780  -0.4686  -0.4620  -0.4608  -0.4579  -0.4472
 -0.4333  -0.3964  -0.3881  -0.3710  -0.3500  -0.2940  -0.2851  -0.2164

          Ground-State Mulliken Net Atomic Charges

     Atom                 Charge (a.u.)
  ----------------------------------------
      1 C                    -0.070512
      2 C                    -0.253309
      3 S                    -0.133788
      4 C                    -0.049633
      5 H                     0.194340
      6 C                    -0.051833
      7 C                     0.230959
      8 C                     0.233359
      9 C                    -0.077578
     10 C                    -0.041266
     11 O                    -0.333344
     12 O                    -0.343781
     13 C                    -0.083258
     14 H                     0.121868
     15 H                     0.092142
     16 H                     0.092513
     17 C                    -0.089029
     18 H                     0.125161
     19 H                     0.093238
     20 H                     0.089960
     21 C                    -0.303932
     22 S                    -0.096930
     23 C                     0.091228
     24 H                     0.222001
     25 C                    -0.038881
     26 S                     0.093172
     27 C                    -0.249598
     28 C                    -0.094212
     29 C                    -0.012627
     30 C                     0.362032
     31 C                    -0.139326
     32 S                     0.043467
     33 C                     0.457704
     34 O                    -0.452994
     35 O                    -0.298343
     36 F                    -0.215515
     37 C                    -0.054948
     38 H                     0.116667
     39 H                     0.084329
     40 H                     0.084328
     41 H                     0.215715
     42 H                     0.118282
     43 H                     0.116020
     44 H                     0.206150
  ----------------------------------------
  Sum of atomic charges =     0.000000

                    Cartesian Multipole Moments
 -----------------------------------------------------------------
    Charge (ESU x 10^10)
                -0.0000
    Dipole Moment (Debye)
         X       0.9656      Y       2.1136      Z       3.6041
       Tot       4.2882
    Quadrupole Moments (Debye-Ang)
        XX    -195.7507     XY       6.6484     YY    -174.4477
        XZ     -11.0225     YZ     -13.3568     ZZ    -190.0586

 Total job time:  330.83s(wall), 10782.64s(cpu)
        *  Thank you very much for using Q-Chem.  Have a nice day.  *
