 Q-Chem 5.4, Q-Chem, Inc., Pleasanton, CA (2021)
 Q-Chem 5.4.0 for Intel X86 EM64T Linux

User input:
--------------------------------------------------------------
$molecule
0 1
C	0.092419	-8.519741	0.255929
C	-0.449364	-7.635967	-0.666007
S	0.885736	-7.651740	1.592708
C	-0.254813	-6.261894	-0.332317
H	-0.980526	-7.954738	-1.571741
C	0.458965	-6.079985	0.904324
C	0.767823	-4.798382	1.385968
C	-0.681909	-5.153542	-1.118303
C	-0.369139	-3.869626	-0.638514
C	0.342916	-3.688927	0.600871
O	-1.368544	-5.481075	-2.248132
O	1.458570	-4.479871	2.520275
C	1.405396	-5.356026	3.639637
H	1.820940	-4.790496	4.495304
H	2.023129	-6.268513	3.490336
H	0.361595	-5.658187	3.873314
C	-1.480048	-4.546999	-3.314934
H	-1.899255	-5.107564	-4.171837
H	-0.490123	-4.131473	-3.601473
H	-2.171521	-3.712085	-3.068969
C	0.537642	-2.314326	0.930308
S	-0.785807	-2.295487	-1.334769
C	-0.000000	-1.435180	-0.000000
H	1.066134	-1.993211	1.836691
C	0.000000	0.000000	0.000000
S	0.690437	0.576430	1.510732
C	1.896512	1.589852	0.727629
C	0.695720	0.583817	-1.064665
C	1.758621	1.477674	-0.678287
C	0.645928	0.539878	-2.486150
C	1.614763	1.352997	-3.106916
S	2.568261	2.157430	-1.965735
C	1.812707	1.512991	-4.559972
O	1.099523	0.910662	-5.350277
O	2.797769	2.335330	-5.004375
F	-0.205024	-0.179266	-3.246290
C	3.079074	2.558124	-6.334976
H	3.925910	3.267919	-6.370268
H	2.208109	2.990367	-6.875609
H	3.358147	1.618843	-6.861878
H	2.601331	2.181180	1.321510
H	0.866272	-9.146471	-0.202590
H	-0.682165	-9.150570	0.707539
H	0.931016	-1.444158	-0.547293
$end

$rem
JOBTYPE		SP
EXCHANGE	HF
CORRELATION	pRIMP2
BASIS		cc-pvtz
METHOD		rimp2
AUX_BASIS	rimp2-cc-pvtz
SOLVENT_METHOD	PCM
PURECART	11111
SYMMETRY	false
MEM_TOTAL	110000
SCF_CONVERGENCE = 6
THRESH=10
GUI = 2
$end

$solvent
dielectric 4.90
$end
--------------------------------------------------------------

             Standard Nuclear Orientation (Angstroms)
    I     Atom           X                Y                Z
 ----------------------------------------------------------------
    1      C       0.0924190000    -8.5197410000     0.2559290000
    2      C      -0.4493640000    -7.6359670000    -0.6660070000
    3      S       0.8857360000    -7.6517400000     1.5927080000
    4      C      -0.2548130000    -6.2618940000    -0.3323170000
    5      H      -0.9805260000    -7.9547380000    -1.5717410000
    6      C       0.4589650000    -6.0799850000     0.9043240000
    7      C       0.7678230000    -4.7983820000     1.3859680000
    8      C      -0.6819090000    -5.1535420000    -1.1183030000
    9      C      -0.3691390000    -3.8696260000    -0.6385140000
   10      C       0.3429160000    -3.6889270000     0.6008710000
   11      O      -1.3685440000    -5.4810750000    -2.2481320000
   12      O       1.4585700000    -4.4798710000     2.5202750000
   13      C       1.4053960000    -5.3560260000     3.6396370000
   14      H       1.8209400000    -4.7904960000     4.4953040000
   15      H       2.0231290000    -6.2685130000     3.4903360000
   16      H       0.3615950000    -5.6581870000     3.8733140000
   17      C      -1.4800480000    -4.5469990000    -3.3149340000
   18      H      -1.8992550000    -5.1075640000    -4.1718370000
   19      H      -0.4901230000    -4.1314730000    -3.6014730000
   20      H      -2.1715210000    -3.7120850000    -3.0689690000
   21      C       0.5376420000    -2.3143260000     0.9303080000
   22      S      -0.7858070000    -2.2954870000    -1.3347690000
   23      C       0.0000000000    -1.4351800000     0.0000000000
   24      H       1.0661340000    -1.9932110000     1.8366910000
   25      C       0.0000000000     0.0000000000     0.0000000000
   26      S       0.6904370000     0.5764300000     1.5107320000
   27      C       1.8965120000     1.5898520000     0.7276290000
   28      C       0.6957200000     0.5838170000    -1.0646650000
   29      C       1.7586210000     1.4776740000    -0.6782870000
   30      C       0.6459280000     0.5398780000    -2.4861500000
   31      C       1.6147630000     1.3529970000    -3.1069160000
   32      S       2.5682610000     2.1574300000    -1.9657350000
   33      C       1.8127070000     1.5129910000    -4.5599720000
   34      O       1.0995230000     0.9106620000    -5.3502770000
   35      O       2.7977690000     2.3353300000    -5.0043750000
   36      F      -0.2050240000    -0.1792660000    -3.2462900000
   37      C       3.0790740000     2.5581240000    -6.3349760000
   38      H       3.9259100000     3.2679190000    -6.3702680000
   39      H       2.2081090000     2.9903670000    -6.8756090000
   40      H       3.3581470000     1.6188430000    -6.8618780000
   41      H       2.6013310000     2.1811800000     1.3215100000
   42      H       0.8662720000    -9.1464710000    -0.2025900000
   43      H      -0.6821650000    -9.1505700000     0.7075390000
   44      H       0.9310160000    -1.4441580000    -0.5472930000
 ----------------------------------------------------------------

   11   -2755.2697931712      7.77e-07  Convergence criterion met
 Total energy in the final basis set =    -2755.2697931712
        RIMP2         total energy =     -2760.3818374766 a.u.

                    Orbital Energies (a.u.)
 --------------------------------------------------------------

 Alpha MOs
 -- Occupied --
-92.0189 -92.0018 -91.9710 -91.9569 -26.3344 -20.6139 -20.5868 -20.5843
-20.5528 -11.4129 -11.3779 -11.3081 -11.3071 -11.3038 -11.3031 -11.3015
-11.3009 -11.2896 -11.2836 -11.2827 -11.2819 -11.2803 -11.2796 -11.2712
-11.2708 -11.2565 -11.2545 -11.2482 -11.2336  -9.0177  -9.0055  -8.9738
 -8.9595  -6.6983  -6.6976  -6.6974  -6.6867  -6.6861  -6.6848  -6.6548
 -6.6539  -6.6526  -6.6407  -6.6398  -6.6388  -1.6489  -1.4738  -1.4090
 -1.4073  -1.3694  -1.2477  -1.2076  -1.1753  -1.1461  -1.0979  -1.0544
 -1.0442  -1.0327  -1.0058  -0.9965  -0.9748  -0.9584  -0.9476  -0.9407
 -0.8917  -0.8767  -0.8573  -0.8131  -0.7947  -0.7854  -0.7776  -0.7646
 -0.7591  -0.7320  -0.7202  -0.7174  -0.6988  -0.6928  -0.6879  -0.6803
 -0.6760  -0.6751  -0.6540  -0.6473  -0.6333  -0.6282  -0.6186  -0.6142
 -0.6102  -0.6088  -0.6007  -0.5946  -0.5746  -0.5647  -0.5603  -0.5564
 -0.5504  -0.5323  -0.5285  -0.5210  -0.5114  -0.5070  -0.5046  -0.4986
 -0.4879  -0.4848  -0.4756  -0.4639  -0.4634  -0.4611  -0.4559  -0.4447
 -0.4304  -0.3960  -0.3805  -0.3682  -0.3516  -0.2964  -0.2858  -0.2131

          Ground-State Mulliken Net Atomic Charges

     Atom                 Charge (a.u.)
  ----------------------------------------
      1 C                    -0.069487
      2 C                    -0.268641
      3 S                    -0.139457
      4 C                    -0.042188
      5 H                     0.192533
      6 C                    -0.050972
      7 C                     0.222826
      8 C                     0.220358
      9 C                    -0.068223
     10 C                    -0.052394
     11 O                    -0.335912
     12 O                    -0.344769
     13 C                    -0.082550
     14 H                     0.119249
     15 H                     0.092111
     16 H                     0.092868
     17 C                    -0.087049
     18 H                     0.122488
     19 H                     0.092335
     20 H                     0.090205
     21 C                    -0.274918
     22 S                    -0.089615
     23 C                     0.063218
     24 H                     0.203204
     25 C                    -0.094614
     26 S                     0.114074
     27 C                    -0.209951
     28 C                    -0.070334
     29 C                    -0.016412
     30 C                     0.351878
     31 C                    -0.128398
     32 S                     0.062410
     33 C                     0.457679
     34 O                    -0.446549
     35 O                    -0.297974
     36 F                    -0.206469
     37 C                    -0.054692
     38 H                     0.116996
     39 H                     0.084974
     40 H                     0.084909
     41 H                     0.218517
     42 H                     0.116251
     43 H                     0.113837
     44 H                     0.198649
  ----------------------------------------
  Sum of atomic charges =     0.000000

                    Cartesian Multipole Moments
 -----------------------------------------------------------------
    Charge (ESU x 10^10)
                 0.0000
    Dipole Moment (Debye)
         X       3.8931      Y       3.5110      Z       2.6917
       Tot       5.8931
    Quadrupole Moments (Debye-Ang)
        XX    -190.5115     XY      10.6966     YY    -188.5683
        XZ      -5.4703     YZ      -3.9882     ZZ    -186.8601

 Total job time:  333.52s(wall), 10853.09s(cpu)
        *  Thank you very much for using Q-Chem.  Have a nice day.  *
