 Q-Chem 5.4, Q-Chem, Inc., Pleasanton, CA (2021)
 Q-Chem 5.4.0 for Intel X86 EM64T Linux

User input:
--------------------------------------------------------------
$molecule
0 1
C	0.267851	-8.519741	0.047927
C	-0.801461	-7.635967	0.056157
S	1.822194	-7.651740	0.029285
C	-0.415201	-6.261894	0.054516
H	-1.851431	-7.954738	0.063290
C	1.012650	-6.079985	0.054687
C	1.584194	-4.798382	0.028030
C	-1.309433	-5.153542	0.031399
C	-0.737539	-3.869626	0.000427
C	0.691828	-3.688927	0.003462
O	-2.631211	-5.481075	0.061128
O	2.911907	-4.479871	-0.003021
C	3.854716	-5.356026	0.602710
H	4.803517	-4.790496	0.670671
H	4.034285	-6.268513	-0.006913
H	3.535185	-5.658187	1.623507
C	-3.610841	-4.546999	-0.375708
H	-4.562544	-5.107564	-0.441115
H	-3.364029	-4.131473	-1.376277
H	-3.743566	-3.712085	0.346107
C	1.074491	-2.314326	-0.000458
S	-1.548848	-2.295487	0.013144
C	0.000000	-1.435180	0.000000
H	2.123688	-1.993211	-0.004953
C	0.000000	0.000000	0.000000
S	0.234946	0.868203	1.510732
C	0.641630	2.390125	0.727629
C	0.235036	0.877284	-1.064665
C	0.593019	2.219143	-0.678287
C	0.219452	0.812732	-2.486150
C	0.546689	2.034501	-3.106916
S	0.866345	3.240357	-1.965735
C	0.617067	2.279095	-4.559972
O	0.378342	1.376631	-5.350277
O	0.952308	3.517725	-5.004375
F	-0.065123	-0.264443	-3.246290
C	1.054950	3.861577	-6.334976
H	1.341516	4.928732	-6.370268
H	0.093573	3.716085	-6.875609
H	1.822303	3.252232	-6.861878
H	0.879812	3.278780	1.321510
H	0.257688	-9.146471	-0.851509
H	0.271664	-9.150570	0.944542
H	-0.008462	-1.444158	-1.079930
$end

$rem
JOBTYPE		SP
EXCHANGE	HF
CORRELATION	pRIMP2
BASIS		cc-pvtz
METHOD		rimp2
AUX_BASIS	rimp2-cc-pvtz
SOLVENT_METHOD	PCM
PURECART	11111
SYMMETRY	false
MEM_TOTAL	110000
SCF_CONVERGENCE = 6
THRESH=10
GUI = 2
$end

$solvent
dielectric 4.90
$end
--------------------------------------------------------------

             Standard Nuclear Orientation (Angstroms)
    I     Atom           X                Y                Z
 ----------------------------------------------------------------
    1      C       0.2678510000    -8.5197410000     0.0479270000
    2      C      -0.8014610000    -7.6359670000     0.0561570000
    3      S       1.8221940000    -7.6517400000     0.0292850000
    4      C      -0.4152010000    -6.2618940000     0.0545160000
    5      H      -1.8514310000    -7.9547380000     0.0632900000
    6      C       1.0126500000    -6.0799850000     0.0546870000
    7      C       1.5841940000    -4.7983820000     0.0280300000
    8      C      -1.3094330000    -5.1535420000     0.0313990000
    9      C      -0.7375390000    -3.8696260000     0.0004270000
   10      C       0.6918280000    -3.6889270000     0.0034620000
   11      O      -2.6312110000    -5.4810750000     0.0611280000
   12      O       2.9119070000    -4.4798710000    -0.0030210000
   13      C       3.8547160000    -5.3560260000     0.6027100000
   14      H       4.8035170000    -4.7904960000     0.6706710000
   15      H       4.0342850000    -6.2685130000    -0.0069130000
   16      H       3.5351850000    -5.6581870000     1.6235070000
   17      C      -3.6108410000    -4.5469990000    -0.3757080000
   18      H      -4.5625440000    -5.1075640000    -0.4411150000
   19      H      -3.3640290000    -4.1314730000    -1.3762770000
   20      H      -3.7435660000    -3.7120850000     0.3461070000
   21      C       1.0744910000    -2.3143260000    -0.0004580000
   22      S      -1.5488480000    -2.2954870000     0.0131440000
   23      C       0.0000000000    -1.4351800000     0.0000000000
   24      H       2.1236880000    -1.9932110000    -0.0049530000
   25      C       0.0000000000     0.0000000000     0.0000000000
   26      S       0.2349460000     0.8682030000     1.5107320000
   27      C       0.6416300000     2.3901250000     0.7276290000
   28      C       0.2350360000     0.8772840000    -1.0646650000
   29      C       0.5930190000     2.2191430000    -0.6782870000
   30      C       0.2194520000     0.8127320000    -2.4861500000
   31      C       0.5466890000     2.0345010000    -3.1069160000
   32      S       0.8663450000     3.2403570000    -1.9657350000
   33      C       0.6170670000     2.2790950000    -4.5599720000
   34      O       0.3783420000     1.3766310000    -5.3502770000
   35      O       0.9523080000     3.5177250000    -5.0043750000
   36      F      -0.0651230000    -0.2644430000    -3.2462900000
   37      C       1.0549500000     3.8615770000    -6.3349760000
   38      H       1.3415160000     4.9287320000    -6.3702680000
   39      H       0.0935730000     3.7160850000    -6.8756090000
   40      H       1.8223030000     3.2522320000    -6.8618780000
   41      H       0.8798120000     3.2787800000     1.3215100000
   42      H       0.2576880000    -9.1464710000    -0.8515090000
   43      H       0.2716640000    -9.1505700000     0.9445420000
   44      H      -0.0084620000    -1.4441580000    -1.0799300000
 ----------------------------------------------------------------

   11   -2755.3253259401      6.84e-07  Convergence criterion met
 Total energy in the final basis set =    -2755.3253259401
        RIMP2         total energy =     -2760.4177517499 a.u.

                    Orbital Energies (a.u.)
 --------------------------------------------------------------

 Alpha MOs
 -- Occupied --
-92.0129 -91.9975 -91.9759 -91.9580 -26.3391 -20.6138 -20.5870 -20.5862
-20.5527 -11.4128 -11.3796 -11.3104 -11.3088 -11.3064 -11.3020 -11.2989
-11.2976 -11.2895 -11.2875 -11.2837 -11.2827 -11.2821 -11.2796 -11.2727
-11.2723 -11.2578 -11.2577 -11.2494 -11.2365  -9.0115  -9.0015  -8.9781
 -8.9606  -6.6922  -6.6916  -6.6913  -6.6828  -6.6821  -6.6808  -6.6592
 -6.6583  -6.6570  -6.6418  -6.6409  -6.6399  -1.6522  -1.4737  -1.4098
 -1.4086  -1.3693  -1.2397  -1.2079  -1.1748  -1.1437  -1.0997  -1.0524
 -1.0453  -1.0300  -1.0085  -0.9971  -0.9732  -0.9593  -0.9484  -0.9410
 -0.8927  -0.8747  -0.8625  -0.8096  -0.7942  -0.7847  -0.7814  -0.7705
 -0.7623  -0.7336  -0.7203  -0.7195  -0.6976  -0.6921  -0.6875  -0.6801
 -0.6761  -0.6741  -0.6550  -0.6482  -0.6316  -0.6280  -0.6198  -0.6146
 -0.6107  -0.6081  -0.5971  -0.5935  -0.5834  -0.5654  -0.5575  -0.5540
 -0.5497  -0.5324  -0.5284  -0.5221  -0.5126  -0.5072  -0.5032  -0.5010
 -0.4878  -0.4856  -0.4764  -0.4689  -0.4634  -0.4627  -0.4600  -0.4456
 -0.4215  -0.4046  -0.3849  -0.3697  -0.3500  -0.2935  -0.2890  -0.2206

          Ground-State Mulliken Net Atomic Charges

     Atom                 Charge (a.u.)
  ----------------------------------------
      1 C                    -0.070140
      2 C                    -0.260073
      3 S                    -0.135564
      4 C                    -0.044925
      5 H                     0.193449
      6 C                    -0.052357
      7 C                     0.224221
      8 C                     0.230080
      9 C                    -0.086086
     10 C                    -0.053059
     11 O                    -0.335401
     12 O                    -0.343320
     13 C                    -0.082383
     14 H                     0.119849
     15 H                     0.091967
     16 H                     0.092516
     17 C                    -0.086327
     18 H                     0.122650
     19 H                     0.092959
     20 H                     0.089866
     21 C                    -0.241453
     22 S                    -0.070319
     23 C                     0.049252
     24 H                     0.206430
     25 C                    -0.078924
     26 S                     0.098764
     27 C                    -0.226442
     28 C                    -0.092951
     29 C                    -0.005543
     30 C                     0.371567
     31 C                    -0.127979
     32 S                     0.044598
     33 C                     0.458829
     34 O                    -0.447212
     35 O                    -0.297265
     36 F                    -0.214175
     37 C                    -0.055042
     38 H                     0.117040
     39 H                     0.085033
     40 H                     0.084916
     41 H                     0.215459
     42 H                     0.117347
     43 H                     0.114790
     44 H                     0.185359
  ----------------------------------------
  Sum of atomic charges =     0.000000

                    Cartesian Multipole Moments
 -----------------------------------------------------------------
    Charge (ESU x 10^10)
                -0.0000
    Dipole Moment (Debye)
         X       0.9163      Y       3.8529      Z       2.4278
       Tot       4.6453
    Quadrupole Moments (Debye-Ang)
        XX    -183.9267     XY       7.8642     YY    -175.2000
        XZ       2.6658     YZ     -11.0839     ZZ    -203.5654

 Total job time:  326.31s(wall), 10536.45s(cpu)
        *  Thank you very much for using Q-Chem.  Have a nice day.  *
