 Q-Chem 5.4, Q-Chem, Inc., Pleasanton, CA (2021)
 Q-Chem 5.4.0 for Intel X86 EM64T Linux

User input:
--------------------------------------------------------------
$molecule
0 1
C	-0.046574	-8.519741	-0.268090
C	0.326886	-7.635967	0.733920
S	-0.595708	-7.651740	-1.722318
C	0.193236	-6.261894	0.371516
H	0.692700	-7.954738	1.718130
C	-0.294958	-6.079985	-0.970283
C	-0.515487	-4.798382	-1.498243
C	0.477358	-5.153542	1.219725
C	0.252655	-3.869626	0.692914
C	-0.233366	-3.688927	-0.651289
O	0.957369	-5.481075	2.451623
O	-0.998769	-4.479871	-2.735264
C	-0.752029	-5.356026	-3.828387
H	-1.012675	-4.790496	-4.743213
H	-1.386303	-6.268513	-3.788623
H	0.316492	-5.658187	-3.877260
C	0.881930	-4.546999	3.521580
H	1.145969	-5.107564	4.438260
H	-0.142712	-4.131473	3.631868
H	1.605610	-3.712085	3.399425
C	-0.367928	-2.314326	-1.009535
S	0.542088	-2.295487	1.450945
C	0.000000	-1.435180	0.000000
H	-0.730999	-1.993211	-1.993920
C	0.000000	0.000000	0.000000
S	0.780044	0.447780	1.510732
C	2.143774	1.236372	0.727629
C	0.786529	0.454137	-1.064665
C	1.988499	1.149844	-0.678287
C	0.729864	0.419512	-2.486150
C	1.825177	1.052041	-3.106916
S	2.903877	1.678680	-1.965735
C	2.047896	1.175232	-4.559972
O	1.240953	0.705897	-5.350277
O	3.160791	1.814024	-5.004375
F	-0.233039	-0.140940	-3.246290
C	3.476510	1.984585	-6.334976
H	4.433735	2.536545	-6.370268
H	2.693835	2.561503	-6.875609
H	3.588239	1.011113	-6.861878
H	2.940569	1.696327	1.321510
H	-0.888291	-9.146471	0.049086
H	0.794665	-9.150570	-0.578334
H	-1.011908	-1.444158	0.377309
$end

$rem
JOBTYPE		SP
EXCHANGE	HF
CORRELATION	pRIMP2
BASIS		cc-pvtz
METHOD		rimp2
AUX_BASIS	rimp2-cc-pvtz
SOLVENT_METHOD	PCM
PURECART	11111
SYMMETRY	false
MEM_TOTAL	110000
SCF_CONVERGENCE = 6
THRESH=10
GUI = 2
$end

$solvent
dielectric 4.90
$end
--------------------------------------------------------------

             Standard Nuclear Orientation (Angstroms)
    I     Atom           X                Y                Z
 ----------------------------------------------------------------
    1      C      -0.0465740000    -8.5197410000    -0.2680900000
    2      C       0.3268860000    -7.6359670000     0.7339200000
    3      S      -0.5957080000    -7.6517400000    -1.7223180000
    4      C       0.1932360000    -6.2618940000     0.3715160000
    5      H       0.6927000000    -7.9547380000     1.7181300000
    6      C      -0.2949580000    -6.0799850000    -0.9702830000
    7      C      -0.5154870000    -4.7983820000    -1.4982430000
    8      C       0.4773580000    -5.1535420000     1.2197250000
    9      C       0.2526550000    -3.8696260000     0.6929140000
   10      C      -0.2333660000    -3.6889270000    -0.6512890000
   11      O       0.9573690000    -5.4810750000     2.4516230000
   12      O      -0.9987690000    -4.4798710000    -2.7352640000
   13      C      -0.7520290000    -5.3560260000    -3.8283870000
   14      H      -1.0126750000    -4.7904960000    -4.7432130000
   15      H      -1.3863030000    -6.2685130000    -3.7886230000
   16      H       0.3164920000    -5.6581870000    -3.8772600000
   17      C       0.8819300000    -4.5469990000     3.5215800000
   18      H       1.1459690000    -5.1075640000     4.4382600000
   19      H      -0.1427120000    -4.1314730000     3.6318680000
   20      H       1.6056100000    -3.7120850000     3.3994250000
   21      C      -0.3679280000    -2.3143260000    -1.0095350000
   22      S       0.5420880000    -2.2954870000     1.4509450000
   23      C       0.0000000000    -1.4351800000     0.0000000000
   24      H      -0.7309990000    -1.9932110000    -1.9939200000
   25      C       0.0000000000     0.0000000000     0.0000000000
   26      S       0.7800440000     0.4477800000     1.5107320000
   27      C       2.1437740000     1.2363720000     0.7276290000
   28      C       0.7865290000     0.4541370000    -1.0646650000
   29      C       1.9884990000     1.1498440000    -0.6782870000
   30      C       0.7298640000     0.4195120000    -2.4861500000
   31      C       1.8251770000     1.0520410000    -3.1069160000
   32      S       2.9038770000     1.6786800000    -1.9657350000
   33      C       2.0478960000     1.1752320000    -4.5599720000
   34      O       1.2409530000     0.7058970000    -5.3502770000
   35      O       3.1607910000     1.8140240000    -5.0043750000
   36      F      -0.2330390000    -0.1409400000    -3.2462900000
   37      C       3.4765100000     1.9845850000    -6.3349760000
   38      H       4.4337350000     2.5365450000    -6.3702680000
   39      H       2.6938350000     2.5615030000    -6.8756090000
   40      H       3.5882390000     1.0111130000    -6.8618780000
   41      H       2.9405690000     1.6963270000     1.3215100000
   42      H      -0.8882910000    -9.1464710000     0.0490860000
   43      H       0.7946650000    -9.1505700000    -0.5783340000
   44      H      -1.0119080000    -1.4441580000     0.3773090000
 ----------------------------------------------------------------

   11   -2755.2383897715      8.39e-07  Convergence criterion met
 Total energy in the final basis set =    -2755.2383897715
        RIMP2         total energy =     -2760.3565754788 a.u.

                    Orbital Energies (a.u.)
 --------------------------------------------------------------

 Alpha MOs
 -- Occupied --
-92.0157 -92.0069 -91.9754 -91.9539 -26.3388 -20.6165 -20.5847 -20.5835
-20.5576 -11.4169 -11.3778 -11.3236 -11.3126 -11.3066 -11.3021 -11.3007
-11.2931 -11.2909 -11.2832 -11.2805 -11.2769 -11.2757 -11.2714 -11.2695
-11.2666 -11.2543 -11.2496 -11.2454 -11.2274  -9.0155  -9.0103  -8.9778
 -8.9566  -6.6961  -6.6952  -6.6951  -6.6915  -6.6909  -6.6896  -6.6587
 -6.6578  -6.6564  -6.6379  -6.6369  -6.6359  -1.6527  -1.4767  -1.4073
 -1.4061  -1.3730  -1.2486  -1.2071  -1.1729  -1.1465  -1.0958  -1.0560
 -1.0437  -1.0344  -1.0062  -0.9957  -0.9763  -0.9596  -0.9458  -0.9389
 -0.8931  -0.8768  -0.8581  -0.8078  -0.8015  -0.7863  -0.7752  -0.7715
 -0.7595  -0.7325  -0.7254  -0.7187  -0.6973  -0.6937  -0.6833  -0.6819
 -0.6778  -0.6653  -0.6544  -0.6463  -0.6393  -0.6269  -0.6160  -0.6124
 -0.6112  -0.6102  -0.6040  -0.5907  -0.5732  -0.5682  -0.5566  -0.5552
 -0.5404  -0.5366  -0.5300  -0.5224  -0.5173  -0.5088  -0.5053  -0.4981
 -0.4895  -0.4803  -0.4713  -0.4683  -0.4651  -0.4621  -0.4477  -0.4413
 -0.4297  -0.3893  -0.3830  -0.3650  -0.3481  -0.3016  -0.2838  -0.2093

          Ground-State Mulliken Net Atomic Charges

     Atom                 Charge (a.u.)
  ----------------------------------------
      1 C                    -0.068569
      2 C                    -0.287029
      3 S                    -0.144406
      4 C                    -0.040050
      5 H                     0.189676
      6 C                    -0.058082
      7 C                     0.229231
      8 C                     0.217132
      9 C                    -0.077442
     10 C                    -0.053664
     11 O                    -0.336166
     12 O                    -0.343725
     13 C                    -0.082736
     14 H                     0.120575
     15 H                     0.091881
     16 H                     0.091979
     17 C                    -0.087641
     18 H                     0.123257
     19 H                     0.091102
     20 H                     0.088063
     21 C                    -0.277237
     22 S                    -0.097277
     23 C                     0.043375
     24 H                     0.215918
     25 C                    -0.192796
     26 S                     0.107422
     27 C                    -0.151298
     28 C                     0.011189
     29 C                    -0.037016
     30 C                     0.352018
     31 C                    -0.111925
     32 S                     0.073726
     33 C                     0.457596
     34 O                    -0.439186
     35 O                    -0.296490
     36 F                    -0.213265
     37 C                    -0.054748
     38 H                     0.117707
     39 H                     0.085757
     40 H                     0.085797
     41 H                     0.221951
     42 H                     0.113621
     43 H                     0.111156
     44 H                     0.210619
  ----------------------------------------
  Sum of atomic charges =     0.000000

                    Cartesian Multipole Moments
 -----------------------------------------------------------------
    Charge (ESU x 10^10)
                -0.0000
    Dipole Moment (Debye)
         X       4.5360      Y       4.8428      Z       2.8990
       Tot       7.2410
    Quadrupole Moments (Debye-Ang)
        XX    -185.8019     XY       8.0484     YY    -200.7636
        XZ     -10.6281     YZ      -9.1590     ZZ    -183.9024

 Total job time:  369.26s(wall), 12989.77s(cpu)
        *  Thank you very much for using Q-Chem.  Have a nice day.  *
