 Q-Chem 5.4, Q-Chem, Inc., Pleasanton, CA (2021)
 Q-Chem 5.4.0 for Intel X86 EM64T Linux

User input:
--------------------------------------------------------------
$molecule
0 1
C	0.268090	-8.519741	-0.046574
C	-0.733920	-7.635967	0.326886
S	1.722318	-7.651740	-0.595708
C	-0.371516	-6.261894	0.193236
H	-1.718130	-7.954738	0.692700
C	0.970283	-6.079985	-0.294958
C	1.498243	-4.798382	-0.515487
C	-1.219725	-5.153542	0.477358
C	-0.692914	-3.869626	0.252655
C	0.651289	-3.688927	-0.233366
O	-2.451623	-5.481075	0.957369
O	2.735264	-4.479871	-0.998769
C	3.828387	-5.356026	-0.752029
H	4.743213	-4.790496	-1.012675
H	3.788623	-6.268513	-1.386303
H	3.877260	-5.658187	0.316492
C	-3.521580	-4.546999	0.881930
H	-4.438260	-5.107564	1.145969
H	-3.631868	-4.131473	-0.142712
H	-3.399425	-3.712085	1.605610
C	1.009535	-2.314326	-0.367928
S	-1.450945	-2.295487	0.542088
C	-0.000000	-1.435180	-0.000000
H	1.993920	-1.993211	-0.730999
C	0.000000	0.000000	0.000000
S	0.690437	0.576430	1.510732
C	1.896512	1.589852	0.727629
C	0.695720	0.583817	-1.064665
C	1.758621	1.477674	-0.678287
C	0.645928	0.539878	-2.486150
C	1.614763	1.352997	-3.106916
S	2.568261	2.157430	-1.965735
C	1.812707	1.512991	-4.559972
O	1.099523	0.910662	-5.350277
O	2.797769	2.335330	-5.004375
F	-0.205024	-0.179266	-3.246290
C	3.079074	2.558124	-6.334976
H	3.925910	3.267919	-6.370268
H	2.208109	2.990367	-6.875609
H	3.358147	1.618843	-6.861878
H	2.601331	2.181180	1.321510
H	-0.049086	-9.146471	-0.888291
H	0.578334	-9.150570	0.794665
H	-0.377309	-1.444158	-1.011908
$end

$rem
JOBTYPE		SP
EXCHANGE	HF
CORRELATION	pRIMP2
BASIS		cc-pvtz
METHOD		rimp2
AUX_BASIS	rimp2-cc-pvtz
SOLVENT_METHOD	PCM
PURECART	11111
SYMMETRY	false
MEM_TOTAL	110000
SCF_CONVERGENCE = 6
THRESH=10
GUI = 2
$end

$solvent
dielectric 4.90
$end
--------------------------------------------------------------

             Standard Nuclear Orientation (Angstroms)
    I     Atom           X                Y                Z
 ----------------------------------------------------------------
    1      C       0.2680900000    -8.5197410000    -0.0465740000
    2      C      -0.7339200000    -7.6359670000     0.3268860000
    3      S       1.7223180000    -7.6517400000    -0.5957080000
    4      C      -0.3715160000    -6.2618940000     0.1932360000
    5      H      -1.7181300000    -7.9547380000     0.6927000000
    6      C       0.9702830000    -6.0799850000    -0.2949580000
    7      C       1.4982430000    -4.7983820000    -0.5154870000
    8      C      -1.2197250000    -5.1535420000     0.4773580000
    9      C      -0.6929140000    -3.8696260000     0.2526550000
   10      C       0.6512890000    -3.6889270000    -0.2333660000
   11      O      -2.4516230000    -5.4810750000     0.9573690000
   12      O       2.7352640000    -4.4798710000    -0.9987690000
   13      C       3.8283870000    -5.3560260000    -0.7520290000
   14      H       4.7432130000    -4.7904960000    -1.0126750000
   15      H       3.7886230000    -6.2685130000    -1.3863030000
   16      H       3.8772600000    -5.6581870000     0.3164920000
   17      C      -3.5215800000    -4.5469990000     0.8819300000
   18      H      -4.4382600000    -5.1075640000     1.1459690000
   19      H      -3.6318680000    -4.1314730000    -0.1427120000
   20      H      -3.3994250000    -3.7120850000     1.6056100000
   21      C       1.0095350000    -2.3143260000    -0.3679280000
   22      S      -1.4509450000    -2.2954870000     0.5420880000
   23      C       0.0000000000    -1.4351800000     0.0000000000
   24      H       1.9939200000    -1.9932110000    -0.7309990000
   25      C       0.0000000000     0.0000000000     0.0000000000
   26      S       0.6904370000     0.5764300000     1.5107320000
   27      C       1.8965120000     1.5898520000     0.7276290000
   28      C       0.6957200000     0.5838170000    -1.0646650000
   29      C       1.7586210000     1.4776740000    -0.6782870000
   30      C       0.6459280000     0.5398780000    -2.4861500000
   31      C       1.6147630000     1.3529970000    -3.1069160000
   32      S       2.5682610000     2.1574300000    -1.9657350000
   33      C       1.8127070000     1.5129910000    -4.5599720000
   34      O       1.0995230000     0.9106620000    -5.3502770000
   35      O       2.7977690000     2.3353300000    -5.0043750000
   36      F      -0.2050240000    -0.1792660000    -3.2462900000
   37      C       3.0790740000     2.5581240000    -6.3349760000
   38      H       3.9259100000     3.2679190000    -6.3702680000
   39      H       2.2081090000     2.9903670000    -6.8756090000
   40      H       3.3581470000     1.6188430000    -6.8618780000
   41      H       2.6013310000     2.1811800000     1.3215100000
   42      H      -0.0490860000    -9.1464710000    -0.8882910000
   43      H       0.5783340000    -9.1505700000     0.7946650000
   44      H      -0.3773090000    -1.4441580000    -1.0119080000
 ----------------------------------------------------------------

   11   -2755.2856751816      7.02e-07  Convergence criterion met
 Total energy in the final basis set =    -2755.2856751816
        RIMP2         total energy =     -2760.3907793186 a.u.

                    Orbital Energies (a.u.)
 --------------------------------------------------------------

 Alpha MOs
 -- Occupied --
-92.0116 -92.0054 -91.9707 -91.9565 -26.3387 -20.6164 -20.5864 -20.5842
-20.5572 -11.4167 -11.3793 -11.3190 -11.3114 -11.3077 -11.3030 -11.3016
-11.2947 -11.2908 -11.2853 -11.2824 -11.2823 -11.2797 -11.2744 -11.2707
-11.2702 -11.2561 -11.2547 -11.2478 -11.2331  -9.0110  -9.0090  -8.9731
 -8.9592  -6.6916  -6.6907  -6.6906  -6.6902  -6.6896  -6.6883  -6.6542
 -6.6533  -6.6521  -6.6404  -6.6395  -6.6384  -1.6519  -1.4766  -1.4086
 -1.4072  -1.3727  -1.2466  -1.2061  -1.1740  -1.1462  -1.0984  -1.0557
 -1.0434  -1.0332  -1.0065  -0.9950  -0.9757  -0.9589  -0.9478  -0.9411
 -0.8912  -0.8776  -0.8586  -0.8089  -0.7973  -0.7833  -0.7820  -0.7718
 -0.7594  -0.7336  -0.7212  -0.7178  -0.6976  -0.6932  -0.6860  -0.6823
 -0.6785  -0.6743  -0.6540  -0.6472  -0.6336  -0.6260  -0.6183  -0.6144
 -0.6117  -0.6104  -0.6027  -0.5941  -0.5795  -0.5662  -0.5562  -0.5555
 -0.5451  -0.5328  -0.5265  -0.5226  -0.5113  -0.5064  -0.5046  -0.4998
 -0.4911  -0.4834  -0.4693  -0.4676  -0.4655  -0.4644  -0.4566  -0.4437
 -0.4175  -0.4025  -0.3817  -0.3681  -0.3506  -0.3018  -0.2868  -0.2174

          Ground-State Mulliken Net Atomic Charges

     Atom                 Charge (a.u.)
  ----------------------------------------
      1 C                    -0.069547
      2 C                    -0.269966
      3 S                    -0.138940
      4 C                    -0.041927
      5 H                     0.192117
      6 C                    -0.052513
      7 C                     0.223511
      8 C                     0.222680
      9 C                    -0.074589
     10 C                    -0.046055
     11 O                    -0.336167
     12 O                    -0.344049
     13 C                    -0.082609
     14 H                     0.119225
     15 H                     0.092279
     16 H                     0.092470
     17 C                    -0.086683
     18 H                     0.122661
     19 H                     0.091947
     20 H                     0.089974
     21 C                    -0.280163
     22 S                    -0.098335
     23 C                     0.076314
     24 H                     0.206423
     25 C                    -0.140098
     26 S                     0.108280
     27 C                    -0.166115
     28 C                    -0.103188
     29 C                    -0.012547
     30 C                     0.383205
     31 C                    -0.123239
     32 S                     0.069341
     33 C                     0.458643
     34 O                    -0.439569
     35 O                    -0.296678
     36 F                    -0.212305
     37 C                    -0.054639
     38 H                     0.117569
     39 H                     0.085738
     40 H                     0.085845
     41 H                     0.219307
     42 H                     0.116060
     43 H                     0.113520
     44 H                     0.182813
  ----------------------------------------
  Sum of atomic charges =     0.000000

                    Cartesian Multipole Moments
 -----------------------------------------------------------------
    Charge (ESU x 10^10)
                 0.0000
    Dipole Moment (Debye)
         X       3.9616      Y       4.3688      Z       2.0187
       Tot       6.2334
    Quadrupole Moments (Debye-Ang)
        XX    -171.8254     XY      12.9033     YY    -188.0960
        XZ      -9.9921     YZ      -9.1885     ZZ    -202.9518

 Total job time:  348.29s(wall), 11813.54s(cpu)
        *  Thank you very much for using Q-Chem.  Have a nice day.  *
