 Q-Chem 5.4, Q-Chem, Inc., Pleasanton, CA (2021)
 Q-Chem 5.4.0 for Intel X86 EM64T Linux

User input:
--------------------------------------------------------------
$molecule
0 1
C	-0.046574	-8.519741	-0.268090
C	0.326886	-7.635967	0.733920
S	-0.595708	-7.651740	-1.722318
C	0.193236	-6.261894	0.371516
H	0.692700	-7.954738	1.718130
C	-0.294958	-6.079985	-0.970283
C	-0.515487	-4.798382	-1.498243
C	0.477358	-5.153542	1.219725
C	0.252655	-3.869626	0.692914
C	-0.233366	-3.688927	-0.651289
O	0.957369	-5.481075	2.451623
O	-0.998769	-4.479871	-2.735264
C	-0.752029	-5.356026	-3.828387
H	-1.012675	-4.790496	-4.743213
H	-1.386303	-6.268513	-3.788623
H	0.316492	-5.658187	-3.877260
C	0.881930	-4.546999	3.521580
H	1.145969	-5.107564	4.438260
H	-0.142712	-4.131473	3.631868
H	1.605610	-3.712085	3.399425
C	-0.367928	-2.314326	-1.009535
S	0.542088	-2.295487	1.450945
C	0.000000	-1.435180	0.000000
H	-0.730999	-1.993211	-1.993920
C	0.000000	0.000000	0.000000
S	0.309721	0.844422	1.510732
C	0.847502	2.325108	0.727629
C	0.310602	0.853460	-1.064665
C	0.784173	2.159014	-0.678287
C	0.289451	0.790512	-2.486150
C	0.721927	1.979112	-3.106916
S	1.145464	3.152519	-1.965735
C	0.813355	2.216642	-4.559972
O	0.496884	1.338418	-5.350277
O	1.255274	3.421340	-5.004375
F	-0.087923	-0.257761	-3.246290
C	1.387494	3.754937	-6.334976
H	1.765978	4.793056	-6.370268
H	0.417095	3.693789	-6.875609
H	2.098820	3.081033	-6.861878
H	1.162229	3.189623	1.321510
H	-0.888291	-9.146471	0.049086
H	0.794665	-9.150570	-0.578334
H	-1.011908	-1.444158	0.377309
$end

$rem
JOBTYPE		SP
EXCHANGE	HF
CORRELATION	pRIMP2
BASIS		cc-pvtz
METHOD		rimp2
AUX_BASIS	rimp2-cc-pvtz
SOLVENT_METHOD	PCM
PURECART	11111
SYMMETRY	false
MEM_TOTAL	110000
SCF_CONVERGENCE = 6
THRESH=10
GUI = 2
$end

$solvent
dielectric 4.90
$end
--------------------------------------------------------------

             Standard Nuclear Orientation (Angstroms)
    I     Atom           X                Y                Z
 ----------------------------------------------------------------
    1      C      -0.0465740000    -8.5197410000    -0.2680900000
    2      C       0.3268860000    -7.6359670000     0.7339200000
    3      S      -0.5957080000    -7.6517400000    -1.7223180000
    4      C       0.1932360000    -6.2618940000     0.3715160000
    5      H       0.6927000000    -7.9547380000     1.7181300000
    6      C      -0.2949580000    -6.0799850000    -0.9702830000
    7      C      -0.5154870000    -4.7983820000    -1.4982430000
    8      C       0.4773580000    -5.1535420000     1.2197250000
    9      C       0.2526550000    -3.8696260000     0.6929140000
   10      C      -0.2333660000    -3.6889270000    -0.6512890000
   11      O       0.9573690000    -5.4810750000     2.4516230000
   12      O      -0.9987690000    -4.4798710000    -2.7352640000
   13      C      -0.7520290000    -5.3560260000    -3.8283870000
   14      H      -1.0126750000    -4.7904960000    -4.7432130000
   15      H      -1.3863030000    -6.2685130000    -3.7886230000
   16      H       0.3164920000    -5.6581870000    -3.8772600000
   17      C       0.8819300000    -4.5469990000     3.5215800000
   18      H       1.1459690000    -5.1075640000     4.4382600000
   19      H      -0.1427120000    -4.1314730000     3.6318680000
   20      H       1.6056100000    -3.7120850000     3.3994250000
   21      C      -0.3679280000    -2.3143260000    -1.0095350000
   22      S       0.5420880000    -2.2954870000     1.4509450000
   23      C       0.0000000000    -1.4351800000     0.0000000000
   24      H      -0.7309990000    -1.9932110000    -1.9939200000
   25      C       0.0000000000     0.0000000000     0.0000000000
   26      S       0.3097210000     0.8444220000     1.5107320000
   27      C       0.8475020000     2.3251080000     0.7276290000
   28      C       0.3106020000     0.8534600000    -1.0646650000
   29      C       0.7841730000     2.1590140000    -0.6782870000
   30      C       0.2894510000     0.7905120000    -2.4861500000
   31      C       0.7219270000     1.9791120000    -3.1069160000
   32      S       1.1454640000     3.1525190000    -1.9657350000
   33      C       0.8133550000     2.2166420000    -4.5599720000
   34      O       0.4968840000     1.3384180000    -5.3502770000
   35      O       1.2552740000     3.4213400000    -5.0043750000
   36      F      -0.0879230000    -0.2577610000    -3.2462900000
   37      C       1.3874940000     3.7549370000    -6.3349760000
   38      H       1.7659780000     4.7930560000    -6.3702680000
   39      H       0.4170950000     3.6937890000    -6.8756090000
   40      H       2.0988200000     3.0810330000    -6.8618780000
   41      H       1.1622290000     3.1896230000     1.3215100000
   42      H      -0.8882910000    -9.1464710000     0.0490860000
   43      H       0.7946650000    -9.1505700000    -0.5783340000
   44      H      -1.0119080000    -1.4441580000     0.3773090000
 ----------------------------------------------------------------

   11   -2755.3158792726      7.25e-07  Convergence criterion met
 Total energy in the final basis set =    -2755.3158792726
        RIMP2         total energy =     -2760.4099748383 a.u.

                    Orbital Energies (a.u.)
 --------------------------------------------------------------

 Alpha MOs
 -- Occupied --
-92.0154 -91.9935 -91.9832 -91.9590 -26.3387 -20.6116 -20.5891 -20.5869
-20.5488 -11.4094 -11.3794 -11.3201 -11.3107 -11.3096 -11.2971 -11.2947
-11.2883 -11.2883 -11.2861 -11.2848 -11.2843 -11.2820 -11.2782 -11.2740
-11.2714 -11.2597 -11.2594 -11.2506 -11.2396  -9.0141  -8.9976  -8.9853
 -8.9615  -6.6949  -6.6943  -6.6937  -6.6789  -6.6782  -6.6769  -6.6664
 -6.6655  -6.6642  -6.6428  -6.6418  -6.6408  -1.6527  -1.4712  -1.4123
 -1.4088  -1.3664  -1.2385  -1.2106  -1.1768  -1.1439  -1.1003  -1.0504
 -1.0478  -1.0295  -1.0101  -0.9996  -0.9720  -0.9599  -0.9498  -0.9406
 -0.8955  -0.8724  -0.8640  -0.8097  -0.7976  -0.7873  -0.7761  -0.7703
 -0.7643  -0.7326  -0.7233  -0.7200  -0.6983  -0.6941  -0.6844  -0.6782
 -0.6723  -0.6682  -0.6576  -0.6490  -0.6394  -0.6303  -0.6210  -0.6152
 -0.6090  -0.6058  -0.5954  -0.5926  -0.5767  -0.5706  -0.5596  -0.5523
 -0.5476  -0.5367  -0.5330  -0.5227  -0.5149  -0.5093  -0.5065  -0.5009
 -0.4847  -0.4840  -0.4792  -0.4711  -0.4620  -0.4608  -0.4582  -0.4469
 -0.4324  -0.3980  -0.3877  -0.3714  -0.3510  -0.2941  -0.2847  -0.2178

          Ground-State Mulliken Net Atomic Charges

     Atom                 Charge (a.u.)
  ----------------------------------------
      1 C                    -0.070574
      2 C                    -0.253498
      3 S                    -0.133137
      4 C                    -0.047134
      5 H                     0.194228
      6 C                    -0.052115
      7 C                     0.225806
      8 C                     0.228741
      9 C                    -0.076362
     10 C                    -0.044117
     11 O                    -0.333583
     12 O                    -0.343099
     13 C                    -0.082851
     14 H                     0.121633
     15 H                     0.091847
     16 H                     0.092774
     17 C                    -0.088623
     18 H                     0.124808
     19 H                     0.093089
     20 H                     0.089962
     21 C                    -0.288232
     22 S                    -0.085355
     23 C                     0.093662
     24 H                     0.210601
     25 C                    -0.077189
     26 S                     0.078070
     27 C                    -0.242440
     28 C                    -0.054909
     29 C                    -0.021410
     30 C                     0.383683
     31 C                    -0.146585
     32 S                     0.035086
     33 C                     0.458068
     34 O                    -0.453394
     35 O                    -0.298326
     36 F                    -0.214840
     37 C                    -0.054948
     38 H                     0.116525
     39 H                     0.084247
     40 H                     0.084264
     41 H                     0.215790
     42 H                     0.118244
     43 H                     0.116094
     44 H                     0.205501
  ----------------------------------------
  Sum of atomic charges =     0.000000

                    Cartesian Multipole Moments
 -----------------------------------------------------------------
    Charge (ESU x 10^10)
                -0.0000
    Dipole Moment (Debye)
         X       0.5154      Y       2.1906      Z       3.8178
       Tot       4.4317
    Quadrupole Moments (Debye-Ang)
        XX    -199.7651     XY       3.3231     YY    -172.6803
        XZ      -3.1203     YZ     -13.6250     ZZ    -188.3452

 Total job time:  339.54s(wall), 10653.14s(cpu)
        *  Thank you very much for using Q-Chem.  Have a nice day.  *
