 Q-Chem 5.4, Q-Chem, Inc., Pleasanton, CA (2021)
 Q-Chem 5.4.0 for Intel X86 EM64T Linux

User input:
--------------------------------------------------------------
$molecule
0 1
C	0.047927	-8.519741	-0.267851
C	0.056157	-7.635967	0.801461
S	0.029285	-7.651740	-1.822194
C	0.054516	-6.261894	0.415201
H	0.063290	-7.954738	1.851431
C	0.054687	-6.079985	-1.012650
C	0.028030	-4.798382	-1.584194
C	0.031399	-5.153542	1.309433
C	0.000427	-3.869626	0.737539
C	0.003462	-3.688927	-0.691828
O	0.061128	-5.481075	2.631211
O	-0.003021	-4.479871	-2.911907
C	0.602710	-5.356026	-3.854716
H	0.670671	-4.790496	-4.803517
H	-0.006913	-6.268513	-4.034285
H	1.623507	-5.658187	-3.535185
C	-0.375708	-4.546999	3.610841
H	-0.441115	-5.107564	4.562544
H	-1.376277	-4.131473	3.364029
H	0.346107	-3.712085	3.743566
C	-0.000458	-2.314326	-1.074491
S	0.013144	-2.295487	1.548848
C	-0.000000	-1.435180	-0.000000
H	-0.004953	-1.993211	-2.123688
C	0.000000	0.000000	0.000000
S	0.690437	0.576430	1.510732
C	1.896512	1.589852	0.727629
C	0.695720	0.583817	-1.064665
C	1.758621	1.477674	-0.678287
C	0.645928	0.539878	-2.486150
C	1.614763	1.352997	-3.106916
S	2.568261	2.157430	-1.965735
C	1.812707	1.512991	-4.559972
O	1.099523	0.910662	-5.350277
O	2.797769	2.335330	-5.004375
F	-0.205024	-0.179266	-3.246290
C	3.079074	2.558124	-6.334976
H	3.925910	3.267919	-6.370268
H	2.208109	2.990367	-6.875609
H	3.358147	1.618843	-6.861878
H	2.601331	2.181180	1.321510
H	-0.851509	-9.146471	-0.257688
H	0.944542	-9.150570	-0.271664
H	-1.079930	-1.444158	0.008462
$end

$rem
JOBTYPE		SP
EXCHANGE	HF
CORRELATION	pRIMP2
BASIS		cc-pvtz
METHOD		rimp2
AUX_BASIS	rimp2-cc-pvtz
SOLVENT_METHOD	PCM
PURECART	11111
SYMMETRY	false
MEM_TOTAL	110000
SCF_CONVERGENCE = 6
THRESH=10
GUI = 2
$end

$solvent
dielectric 4.90
$end
--------------------------------------------------------------

             Standard Nuclear Orientation (Angstroms)
    I     Atom           X                Y                Z
 ----------------------------------------------------------------
    1      C       0.0479270000    -8.5197410000    -0.2678510000
    2      C       0.0561570000    -7.6359670000     0.8014610000
    3      S       0.0292850000    -7.6517400000    -1.8221940000
    4      C       0.0545160000    -6.2618940000     0.4152010000
    5      H       0.0632900000    -7.9547380000     1.8514310000
    6      C       0.0546870000    -6.0799850000    -1.0126500000
    7      C       0.0280300000    -4.7983820000    -1.5841940000
    8      C       0.0313990000    -5.1535420000     1.3094330000
    9      C       0.0004270000    -3.8696260000     0.7375390000
   10      C       0.0034620000    -3.6889270000    -0.6918280000
   11      O       0.0611280000    -5.4810750000     2.6312110000
   12      O      -0.0030210000    -4.4798710000    -2.9119070000
   13      C       0.6027100000    -5.3560260000    -3.8547160000
   14      H       0.6706710000    -4.7904960000    -4.8035170000
   15      H      -0.0069130000    -6.2685130000    -4.0342850000
   16      H       1.6235070000    -5.6581870000    -3.5351850000
   17      C      -0.3757080000    -4.5469990000     3.6108410000
   18      H      -0.4411150000    -5.1075640000     4.5625440000
   19      H      -1.3762770000    -4.1314730000     3.3640290000
   20      H       0.3461070000    -3.7120850000     3.7435660000
   21      C      -0.0004580000    -2.3143260000    -1.0744910000
   22      S       0.0131440000    -2.2954870000     1.5488480000
   23      C       0.0000000000    -1.4351800000     0.0000000000
   24      H      -0.0049530000    -1.9932110000    -2.1236880000
   25      C       0.0000000000     0.0000000000     0.0000000000
   26      S       0.6904370000     0.5764300000     1.5107320000
   27      C       1.8965120000     1.5898520000     0.7276290000
   28      C       0.6957200000     0.5838170000    -1.0646650000
   29      C       1.7586210000     1.4776740000    -0.6782870000
   30      C       0.6459280000     0.5398780000    -2.4861500000
   31      C       1.6147630000     1.3529970000    -3.1069160000
   32      S       2.5682610000     2.1574300000    -1.9657350000
   33      C       1.8127070000     1.5129910000    -4.5599720000
   34      O       1.0995230000     0.9106620000    -5.3502770000
   35      O       2.7977690000     2.3353300000    -5.0043750000
   36      F      -0.2050240000    -0.1792660000    -3.2462900000
   37      C       3.0790740000     2.5581240000    -6.3349760000
   38      H       3.9259100000     3.2679190000    -6.3702680000
   39      H       2.2081090000     2.9903670000    -6.8756090000
   40      H       3.3581470000     1.6188430000    -6.8618780000
   41      H       2.6013310000     2.1811800000     1.3215100000
   42      H      -0.8515090000    -9.1464710000    -0.2576880000
   43      H       0.9445420000    -9.1505700000    -0.2716640000
   44      H      -1.0799300000    -1.4441580000     0.0084620000
 ----------------------------------------------------------------

   11   -2755.2646128859      7.03e-07  Convergence criterion met
 Total energy in the final basis set =    -2755.2646128859
        RIMP2         total energy =     -2760.3780634099 a.u.

                    Orbital Energies (a.u.)
 --------------------------------------------------------------

 Alpha MOs
 -- Occupied --
-92.0138 -92.0012 -91.9792 -91.9564 -26.3400 -20.6142 -20.5868 -20.5859
-20.5535 -11.4134 -11.3783 -11.3083 -11.3076 -11.3067 -11.3043 -11.2998
-11.2944 -11.2897 -11.2865 -11.2847 -11.2821 -11.2813 -11.2749 -11.2715
-11.2699 -11.2570 -11.2541 -11.2481 -11.2341  -9.0132  -9.0049  -8.9814
 -8.9590  -6.6938  -6.6930  -6.6927  -6.6861  -6.6855  -6.6842  -6.6625
 -6.6616  -6.6603  -6.6402  -6.6393  -6.6383  -1.6545  -1.4742  -1.4100
 -1.4077  -1.3699  -1.2439  -1.2081  -1.1747  -1.1454  -1.0978  -1.0539
 -1.0456  -1.0319  -1.0077  -0.9976  -0.9742  -0.9596  -0.9481  -0.9403
 -0.8942  -0.8748  -0.8604  -0.8086  -0.8002  -0.7866  -0.7753  -0.7723
 -0.7611  -0.7346  -0.7257  -0.7189  -0.6970  -0.6939  -0.6839  -0.6803
 -0.6759  -0.6675  -0.6563  -0.6478  -0.6399  -0.6275  -0.6186  -0.6134
 -0.6093  -0.6091  -0.6003  -0.5932  -0.5760  -0.5693  -0.5573  -0.5560
 -0.5400  -0.5359  -0.5301  -0.5228  -0.5146  -0.5101  -0.5064  -0.4998
 -0.4882  -0.4814  -0.4734  -0.4680  -0.4634  -0.4604  -0.4544  -0.4450
 -0.4320  -0.3925  -0.3866  -0.3682  -0.3482  -0.2964  -0.2854  -0.2120

          Ground-State Mulliken Net Atomic Charges

     Atom                 Charge (a.u.)
  ----------------------------------------
      1 C                    -0.069538
      2 C                    -0.268842
      3 S                    -0.139515
      4 C                    -0.045818
      5 H                     0.192268
      6 C                    -0.055193
      7 C                     0.232521
      8 C                     0.228515
      9 C                    -0.076738
     10 C                    -0.050888
     11 O                    -0.334297
     12 O                    -0.344171
     13 C                    -0.083304
     14 H                     0.121362
     15 H                     0.092259
     16 H                     0.092207
     17 C                    -0.088430
     18 H                     0.124362
     19 H                     0.092481
     20 H                     0.089066
     21 C                    -0.273046
     22 S                    -0.100614
     23 C                     0.056698
     24 H                     0.220377
     25 C                    -0.107877
     26 S                     0.105989
     27 C                    -0.199252
     28 C                    -0.052234
     29 C                    -0.024996
     30 C                     0.342347
     31 C                    -0.124693
     32 S                     0.061613
     33 C                     0.458588
     34 O                    -0.446451
     35 O                    -0.297524
     36 F                    -0.214978
     37 C                    -0.054657
     38 H                     0.117160
     39 H                     0.085029
     40 H                     0.084966
     41 H                     0.218094
     42 H                     0.116125
     43 H                     0.113754
     44 H                     0.207274
  ----------------------------------------
  Sum of atomic charges =     0.000000

                    Cartesian Multipole Moments
 -----------------------------------------------------------------
    Charge (ESU x 10^10)
                 0.0000
    Dipole Moment (Debye)
         X       2.8908      Y       3.4067      Z       3.2102
       Tot       5.5017
    Quadrupole Moments (Debye-Ang)
        XX    -188.8800     XY       8.9220     YY    -187.7367
        XZ     -14.5148     YZ     -11.3150     ZZ    -188.0882

 Total job time:  332.35s(wall), 10731.16s(cpu)
        *  Thank you very much for using Q-Chem.  Have a nice day.  *
