 Q-Chem 5.4, Q-Chem, Inc., Pleasanton, CA (2021)
 Q-Chem 5.4.0 for Intel X86 EM64T Linux

User input:
--------------------------------------------------------------
$molecule
0 1
C	-0.267851	-8.519741	-0.047927
C	0.801461	-7.635967	-0.056157
S	-1.822194	-7.651740	-0.029285
C	0.415201	-6.261894	-0.054516
H	1.851431	-7.954738	-0.063290
C	-1.012650	-6.079985	-0.054687
C	-1.584194	-4.798382	-0.028030
C	1.309433	-5.153542	-0.031399
C	0.737539	-3.869626	-0.000427
C	-0.691828	-3.688927	-0.003462
O	2.631211	-5.481075	-0.061128
O	-2.911907	-4.479871	0.003021
C	-3.854716	-5.356026	-0.602710
H	-4.803517	-4.790496	-0.670671
H	-4.034285	-6.268513	0.006913
H	-3.535185	-5.658187	-1.623507
C	3.610841	-4.546999	0.375708
H	4.562544	-5.107564	0.441115
H	3.364029	-4.131473	1.376277
H	3.743566	-3.712085	-0.346107
C	-1.074491	-2.314326	0.000458
S	1.548848	-2.295487	-0.013144
C	0.000000	-1.435180	0.000000
H	-2.123688	-1.993211	0.004953
C	0.000000	0.000000	0.000000
S	0.309721	0.844422	1.510732
C	0.847502	2.325108	0.727629
C	0.310602	0.853460	-1.064665
C	0.784173	2.159014	-0.678287
C	0.289451	0.790512	-2.486150
C	0.721927	1.979112	-3.106916
S	1.145464	3.152519	-1.965735
C	0.813355	2.216642	-4.559972
O	0.496884	1.338418	-5.350277
O	1.255274	3.421340	-5.004375
F	-0.087923	-0.257761	-3.246290
C	1.387494	3.754937	-6.334976
H	1.765978	4.793056	-6.370268
H	0.417095	3.693789	-6.875609
H	2.098820	3.081033	-6.861878
H	1.162229	3.189623	1.321510
H	-0.257688	-9.146471	0.851509
H	-0.271664	-9.150570	-0.944542
H	0.008462	-1.444158	1.079930
$end

$rem
JOBTYPE		SP
EXCHANGE	HF
CORRELATION	pRIMP2
BASIS		cc-pvtz
METHOD		rimp2
AUX_BASIS	rimp2-cc-pvtz
SOLVENT_METHOD	PCM
PURECART	11111
SYMMETRY	false
MEM_TOTAL	110000
SCF_CONVERGENCE = 6
THRESH=10
GUI = 2
$end

$solvent
dielectric 4.90
$end
--------------------------------------------------------------

             Standard Nuclear Orientation (Angstroms)
    I     Atom           X                Y                Z
 ----------------------------------------------------------------
    1      C      -0.2678510000    -8.5197410000    -0.0479270000
    2      C       0.8014610000    -7.6359670000    -0.0561570000
    3      S      -1.8221940000    -7.6517400000    -0.0292850000
    4      C       0.4152010000    -6.2618940000    -0.0545160000
    5      H       1.8514310000    -7.9547380000    -0.0632900000
    6      C      -1.0126500000    -6.0799850000    -0.0546870000
    7      C      -1.5841940000    -4.7983820000    -0.0280300000
    8      C       1.3094330000    -5.1535420000    -0.0313990000
    9      C       0.7375390000    -3.8696260000    -0.0004270000
   10      C      -0.6918280000    -3.6889270000    -0.0034620000
   11      O       2.6312110000    -5.4810750000    -0.0611280000
   12      O      -2.9119070000    -4.4798710000     0.0030210000
   13      C      -3.8547160000    -5.3560260000    -0.6027100000
   14      H      -4.8035170000    -4.7904960000    -0.6706710000
   15      H      -4.0342850000    -6.2685130000     0.0069130000
   16      H      -3.5351850000    -5.6581870000    -1.6235070000
   17      C       3.6108410000    -4.5469990000     0.3757080000
   18      H       4.5625440000    -5.1075640000     0.4411150000
   19      H       3.3640290000    -4.1314730000     1.3762770000
   20      H       3.7435660000    -3.7120850000    -0.3461070000
   21      C      -1.0744910000    -2.3143260000     0.0004580000
   22      S       1.5488480000    -2.2954870000    -0.0131440000
   23      C       0.0000000000    -1.4351800000     0.0000000000
   24      H      -2.1236880000    -1.9932110000     0.0049530000
   25      C       0.0000000000     0.0000000000     0.0000000000
   26      S       0.3097210000     0.8444220000     1.5107320000
   27      C       0.8475020000     2.3251080000     0.7276290000
   28      C       0.3106020000     0.8534600000    -1.0646650000
   29      C       0.7841730000     2.1590140000    -0.6782870000
   30      C       0.2894510000     0.7905120000    -2.4861500000
   31      C       0.7219270000     1.9791120000    -3.1069160000
   32      S       1.1454640000     3.1525190000    -1.9657350000
   33      C       0.8133550000     2.2166420000    -4.5599720000
   34      O       0.4968840000     1.3384180000    -5.3502770000
   35      O       1.2552740000     3.4213400000    -5.0043750000
   36      F      -0.0879230000    -0.2577610000    -3.2462900000
   37      C       1.3874940000     3.7549370000    -6.3349760000
   38      H       1.7659780000     4.7930560000    -6.3702680000
   39      H       0.4170950000     3.6937890000    -6.8756090000
   40      H       2.0988200000     3.0810330000    -6.8618780000
   41      H       1.1622290000     3.1896230000     1.3215100000
   42      H      -0.2576880000    -9.1464710000     0.8515090000
   43      H      -0.2716640000    -9.1505700000    -0.9445420000
   44      H       0.0084620000    -1.4441580000     1.0799300000
 ----------------------------------------------------------------

   11   -2755.3196567986      7.30e-07  Convergence criterion met
 Total energy in the final basis set =    -2755.3196567986
        RIMP2         total energy =     -2760.4120426695 a.u.

                    Orbital Energies (a.u.)
 --------------------------------------------------------------

 Alpha MOs
 -- Occupied --
-92.0193 -91.9968 -91.9772 -91.9572 -26.3353 -20.6132 -20.5866 -20.5862
-20.5519 -11.4119 -11.3775 -11.3084 -11.3071 -11.3063 -11.3009 -11.3003
-11.2978 -11.2890 -11.2841 -11.2824 -11.2824 -11.2822 -11.2796 -11.2717
-11.2715 -11.2575 -11.2558 -11.2488 -11.2353  -9.0176  -9.0008  -8.9794
 -8.9599  -6.6983  -6.6977  -6.6973  -6.6821  -6.6814  -6.6801  -6.6604
 -6.6596  -6.6583  -6.6411  -6.6402  -6.6391  -1.6481  -1.4730  -1.4097
 -1.4083  -1.3685  -1.2388  -1.2083  -1.1746  -1.1444  -1.0984  -1.0506
 -1.0450  -1.0318  -1.0080  -0.9967  -0.9731  -0.9594  -0.9480  -0.9402
 -0.8927  -0.8720  -0.8638  -0.8085  -0.7936  -0.7843  -0.7770  -0.7747
 -0.7649  -0.7330  -0.7212  -0.7165  -0.6967  -0.6927  -0.6809  -0.6794
 -0.6731  -0.6639  -0.6557  -0.6480  -0.6320  -0.6295  -0.6192  -0.6142
 -0.6111  -0.6078  -0.5966  -0.5924  -0.5813  -0.5640  -0.5595  -0.5550
 -0.5474  -0.5354  -0.5282  -0.5219  -0.5124  -0.5069  -0.5038  -0.5009
 -0.4880  -0.4858  -0.4761  -0.4704  -0.4628  -0.4621  -0.4606  -0.4457
 -0.4223  -0.4031  -0.3847  -0.3695  -0.3507  -0.2932  -0.2889  -0.2202

          Ground-State Mulliken Net Atomic Charges

     Atom                 Charge (a.u.)
  ----------------------------------------
      1 C                    -0.069861
      2 C                    -0.263574
      3 S                    -0.137529
      4 C                    -0.042697
      5 H                     0.192946
      6 C                    -0.053750
      7 C                     0.226759
      8 C                     0.223412
      9 C                    -0.074203
     10 C                    -0.047773
     11 O                    -0.334757
     12 O                    -0.343262
     13 C                    -0.082308
     14 H                     0.119781
     15 H                     0.091537
     16 H                     0.093309
     17 C                    -0.086736
     18 H                     0.123113
     19 H                     0.091523
     20 H                     0.090631
     21 C                    -0.261849
     22 S                    -0.070499
     23 C                     0.043985
     24 H                     0.203450
     25 C                    -0.041943
     26 S                     0.104204
     27 C                    -0.229978
     28 C                    -0.109438
     29 C                     0.004584
     30 C                     0.377506
     31 C                    -0.151091
     32 S                     0.045204
     33 C                     0.458860
     34 O                    -0.446902
     35 O                    -0.297539
     36 F                    -0.211172
     37 C                    -0.054927
     38 H                     0.116768
     39 H                     0.084897
     40 H                     0.084909
     41 H                     0.217250
     42 H                     0.116532
     43 H                     0.114526
     44 H                     0.186104
  ----------------------------------------
  Sum of atomic charges =     0.000000

                    Cartesian Multipole Moments
 -----------------------------------------------------------------
    Charge (ESU x 10^10)
                -0.0000
    Dipole Moment (Debye)
         X       1.4787      Y       4.0989      Z       3.6500
       Tot       5.6842
    Quadrupole Moments (Debye-Ang)
        XX    -183.0601     XY       1.6586     YY    -178.0400
        XZ       1.7443     YZ     -10.2655     ZZ    -203.4301

 Total job time:  328.86s(wall), 10591.91s(cpu)
        *  Thank you very much for using Q-Chem.  Have a nice day.  *
