 Q-Chem 5.4, Q-Chem, Inc., Pleasanton, CA (2021)
 Q-Chem 5.4.0 for Intel X86 EM64T Linux

User input:
--------------------------------------------------------------
$molecule
0 1
C	-0.092419	-8.519741	-0.255929
C	0.449364	-7.635967	0.666007
S	-0.885736	-7.651740	-1.592708
C	0.254813	-6.261894	0.332317
H	0.980526	-7.954738	1.571741
C	-0.458965	-6.079985	-0.904324
C	-0.767823	-4.798382	-1.385968
C	0.681909	-5.153542	1.118303
C	0.369139	-3.869626	0.638514
C	-0.342916	-3.688927	-0.600871
O	1.368544	-5.481075	2.248132
O	-1.458570	-4.479871	-2.520275
C	-1.405396	-5.356026	-3.639637
H	-1.820940	-4.790496	-4.495304
H	-2.023129	-6.268513	-3.490336
H	-0.361595	-5.658187	-3.873314
C	1.480048	-4.546999	3.314934
H	1.899255	-5.107564	4.171837
H	0.490123	-4.131473	3.601473
H	2.171521	-3.712085	3.068969
C	-0.537642	-2.314326	-0.930308
S	0.785807	-2.295487	1.334769
C	0.000000	-1.435180	0.000000
H	-1.066134	-1.993211	-1.836691
C	0.000000	0.000000	0.000000
S	0.234946	0.868203	1.510732
C	0.641630	2.390125	0.727629
C	0.235036	0.877284	-1.064665
C	0.593019	2.219143	-0.678287
C	0.219452	0.812732	-2.486150
C	0.546689	2.034501	-3.106916
S	0.866345	3.240357	-1.965735
C	0.617067	2.279095	-4.559972
O	0.378342	1.376631	-5.350277
O	0.952308	3.517725	-5.004375
F	-0.065123	-0.264443	-3.246290
C	1.054950	3.861577	-6.334976
H	1.341516	4.928732	-6.370268
H	0.093573	3.716085	-6.875609
H	1.822303	3.252232	-6.861878
H	0.879812	3.278780	1.321510
H	-0.866272	-9.146471	0.202590
H	0.682165	-9.150570	-0.707539
H	-0.931016	-1.444158	0.547293
$end

$rem
JOBTYPE		SP
EXCHANGE	HF
CORRELATION	pRIMP2
BASIS		cc-pvtz
METHOD		rimp2
AUX_BASIS	rimp2-cc-pvtz
SOLVENT_METHOD	PCM
PURECART	11111
SYMMETRY	false
MEM_TOTAL	110000
SCF_CONVERGENCE = 6
THRESH=10
GUI = 2
$end

$solvent
dielectric 4.90
$end
--------------------------------------------------------------

             Standard Nuclear Orientation (Angstroms)
    I     Atom           X                Y                Z
 ----------------------------------------------------------------
    1      C      -0.0924190000    -8.5197410000    -0.2559290000
    2      C       0.4493640000    -7.6359670000     0.6660070000
    3      S      -0.8857360000    -7.6517400000    -1.5927080000
    4      C       0.2548130000    -6.2618940000     0.3323170000
    5      H       0.9805260000    -7.9547380000     1.5717410000
    6      C      -0.4589650000    -6.0799850000    -0.9043240000
    7      C      -0.7678230000    -4.7983820000    -1.3859680000
    8      C       0.6819090000    -5.1535420000     1.1183030000
    9      C       0.3691390000    -3.8696260000     0.6385140000
   10      C      -0.3429160000    -3.6889270000    -0.6008710000
   11      O       1.3685440000    -5.4810750000     2.2481320000
   12      O      -1.4585700000    -4.4798710000    -2.5202750000
   13      C      -1.4053960000    -5.3560260000    -3.6396370000
   14      H      -1.8209400000    -4.7904960000    -4.4953040000
   15      H      -2.0231290000    -6.2685130000    -3.4903360000
   16      H      -0.3615950000    -5.6581870000    -3.8733140000
   17      C       1.4800480000    -4.5469990000     3.3149340000
   18      H       1.8992550000    -5.1075640000     4.1718370000
   19      H       0.4901230000    -4.1314730000     3.6014730000
   20      H       2.1715210000    -3.7120850000     3.0689690000
   21      C      -0.5376420000    -2.3143260000    -0.9303080000
   22      S       0.7858070000    -2.2954870000     1.3347690000
   23      C       0.0000000000    -1.4351800000     0.0000000000
   24      H      -1.0661340000    -1.9932110000    -1.8366910000
   25      C       0.0000000000     0.0000000000     0.0000000000
   26      S       0.2349460000     0.8682030000     1.5107320000
   27      C       0.6416300000     2.3901250000     0.7276290000
   28      C       0.2350360000     0.8772840000    -1.0646650000
   29      C       0.5930190000     2.2191430000    -0.6782870000
   30      C       0.2194520000     0.8127320000    -2.4861500000
   31      C       0.5466890000     2.0345010000    -3.1069160000
   32      S       0.8663450000     3.2403570000    -1.9657350000
   33      C       0.6170670000     2.2790950000    -4.5599720000
   34      O       0.3783420000     1.3766310000    -5.3502770000
   35      O       0.9523080000     3.5177250000    -5.0043750000
   36      F      -0.0651230000    -0.2644430000    -3.2462900000
   37      C       1.0549500000     3.8615770000    -6.3349760000
   38      H       1.3415160000     4.9287320000    -6.3702680000
   39      H       0.0935730000     3.7160850000    -6.8756090000
   40      H       1.8223030000     3.2522320000    -6.8618780000
   41      H       0.8798120000     3.2787800000     1.3215100000
   42      H      -0.8662720000    -9.1464710000     0.2025900000
   43      H       0.6821650000    -9.1505700000    -0.7075390000
   44      H      -0.9310160000    -1.4441580000     0.5472930000
 ----------------------------------------------------------------

   11   -2755.3213184279      7.58e-07  Convergence criterion met
 Total energy in the final basis set =    -2755.3213184279
        RIMP2         total energy =     -2760.4132351598 a.u.

                    Orbital Energies (a.u.)
 --------------------------------------------------------------

 Alpha MOs
 -- Occupied --
-92.0157 -91.9934 -91.9826 -91.9588 -26.3376 -20.6117 -20.5887 -20.5869
-20.5491 -11.4096 -11.3791 -11.3201 -11.3100 -11.3095 -11.2970 -11.2951
-11.2891 -11.2884 -11.2859 -11.2847 -11.2843 -11.2820 -11.2785 -11.2738
-11.2724 -11.2595 -11.2592 -11.2503 -11.2389  -9.0144  -8.9976  -8.9848
 -8.9614  -6.6952  -6.6946  -6.6941  -6.6788  -6.6782  -6.6768  -6.6659
 -6.6650  -6.6637  -6.6426  -6.6417  -6.6406  -1.6510  -1.4713  -1.4119
 -1.4088  -1.3665  -1.2382  -1.2105  -1.1765  -1.1438  -1.1002  -1.0501
 -1.0475  -1.0297  -1.0098  -0.9994  -0.9720  -0.9599  -0.9495  -0.9405
 -0.8952  -0.8720  -0.8643  -0.8087  -0.7969  -0.7869  -0.7767  -0.7704
 -0.7648  -0.7326  -0.7227  -0.7186  -0.6982  -0.6932  -0.6837  -0.6783
 -0.6722  -0.6674  -0.6574  -0.6489  -0.6384  -0.6304  -0.6207  -0.6150
 -0.6098  -0.6059  -0.5951  -0.5926  -0.5779  -0.5697  -0.5595  -0.5517
 -0.5489  -0.5366  -0.5326  -0.5227  -0.5147  -0.5087  -0.5060  -0.5007
 -0.4849  -0.4845  -0.4794  -0.4721  -0.4621  -0.4610  -0.4589  -0.4467
 -0.4309  -0.3990  -0.3871  -0.3712  -0.3514  -0.2939  -0.2851  -0.2184

          Ground-State Mulliken Net Atomic Charges

     Atom                 Charge (a.u.)
  ----------------------------------------
      1 C                    -0.070476
      2 C                    -0.255143
      3 S                    -0.133472
      4 C                    -0.045921
      5 H                     0.194001
      6 C                    -0.052265
      7 C                     0.225214
      8 C                     0.226626
      9 C                    -0.076731
     10 C                    -0.048192
     11 O                    -0.333770
     12 O                    -0.343035
     13 C                    -0.082517
     14 H                     0.121282
     15 H                     0.091568
     16 H                     0.093008
     17 C                    -0.088173
     18 H                     0.124392
     19 H                     0.092831
     20 H                     0.089986
     21 C                    -0.275407
     22 S                    -0.079598
     23 C                     0.099751
     24 H                     0.204905
     25 C                    -0.102260
     26 S                     0.077728
     27 C                    -0.239867
     28 C                    -0.038931
     29 C                    -0.021234
     30 C                     0.382916
     31 C                    -0.146887
     32 S                     0.033012
     33 C                     0.458907
     34 O                    -0.452802
     35 O                    -0.298189
     36 F                    -0.213947
     37 C                    -0.055010
     38 H                     0.116527
     39 H                     0.084277
     40 H                     0.084374
     41 H                     0.215598
     42 H                     0.118019
     43 H                     0.115873
     44 H                     0.203034
  ----------------------------------------
  Sum of atomic charges =     0.000000

                    Cartesian Multipole Moments
 -----------------------------------------------------------------
    Charge (ESU x 10^10)
                -0.0000
    Dipole Moment (Debye)
         X       0.3530      Y       2.4562      Z       3.8491
       Tot       4.5796
    Quadrupole Moments (Debye-Ang)
        XX    -199.7929     XY       1.6591     YY    -172.8325
        XZ       0.9115     YZ     -13.5264     ZZ    -188.9930

 Total job time:  324.25s(wall), 10541.82s(cpu)
        *  Thank you very much for using Q-Chem.  Have a nice day.  *
