 Q-Chem 5.4, Q-Chem, Inc., Pleasanton, CA (2021)
 Q-Chem 5.4.0 for Intel X86 EM64T Linux

User input:
--------------------------------------------------------------
$molecule
0 1
C	0.135457	-8.519741	0.235993
C	-0.558188	-7.635967	-0.577858
S	1.148850	-7.651740	1.414705
C	-0.308648	-6.261894	-0.283020
H	-1.238560	-7.954738	-1.377597
C	0.609026	-6.079985	0.810887
C	0.996828	-4.798382	1.231581
C	-0.865740	-5.153542	-0.982901
C	-0.474408	-3.869626	-0.564713
C	0.442046	-3.688927	0.532196
O	-1.738137	-5.481075	-1.976332
O	1.874052	-4.479871	2.228709
C	2.016062	-5.356026	3.340298
H	2.573877	-4.790496	4.110807
H	2.598484	-6.268513	3.085998
H	1.028695	-5.658187	3.751679
C	-2.033195	-4.546999	-3.007565
H	-2.594833	-5.107564	-3.778655
H	-1.108067	-4.131473	-3.461650
H	-2.671451	-3.712085	-2.645264
C	0.691020	-2.314326	0.822814
S	-1.005649	-2.295487	-1.178037
C	-0.000000	-1.435180	-0.000000
H	1.368875	-1.993211	1.623656
C	0.000000	0.000000	0.000000
S	0.579852	0.687566	1.510732
C	1.591625	1.895024	0.727629
C	0.583771	0.695758	-1.064665
C	1.475308	1.760606	-0.678287
C	0.542366	0.643841	-2.486150
C	1.355286	1.612843	-3.106916
S	2.154609	2.570627	-1.965735
C	1.522440	1.804778	-4.559972
O	0.924684	1.087757	-5.350277
O	2.349739	2.785679	-5.004375
F	-0.170780	-0.212144	-3.246290
C	2.588082	3.053936	-6.334976
H	3.298799	3.899999	-6.370268
H	1.655291	3.328371	-6.875609
H	3.026021	2.177385	-6.861878
H	2.183053	2.599759	1.321510
H	0.817932	-9.146471	-0.349939
H	-0.548939	-9.150570	0.815247
H	0.821835	-1.444158	-0.700647
$end

$rem
JOBTYPE		SP
EXCHANGE	HF
CORRELATION	pRIMP2
BASIS		cc-pvtz
METHOD		rimp2
AUX_BASIS	rimp2-cc-pvtz
SOLVENT_METHOD	PCM
PURECART	11111
SYMMETRY	false
MEM_TOTAL	110000
SCF_CONVERGENCE = 6
THRESH=10
GUI = 2
$end

$solvent
dielectric 4.90
$end
--------------------------------------------------------------

             Standard Nuclear Orientation (Angstroms)
    I     Atom           X                Y                Z
 ----------------------------------------------------------------
    1      C       0.1354570000    -8.5197410000     0.2359930000
    2      C      -0.5581880000    -7.6359670000    -0.5778580000
    3      S       1.1488500000    -7.6517400000     1.4147050000
    4      C      -0.3086480000    -6.2618940000    -0.2830200000
    5      H      -1.2385600000    -7.9547380000    -1.3775970000
    6      C       0.6090260000    -6.0799850000     0.8108870000
    7      C       0.9968280000    -4.7983820000     1.2315810000
    8      C      -0.8657400000    -5.1535420000    -0.9829010000
    9      C      -0.4744080000    -3.8696260000    -0.5647130000
   10      C       0.4420460000    -3.6889270000     0.5321960000
   11      O      -1.7381370000    -5.4810750000    -1.9763320000
   12      O       1.8740520000    -4.4798710000     2.2287090000
   13      C       2.0160620000    -5.3560260000     3.3402980000
   14      H       2.5738770000    -4.7904960000     4.1108070000
   15      H       2.5984840000    -6.2685130000     3.0859980000
   16      H       1.0286950000    -5.6581870000     3.7516790000
   17      C      -2.0331950000    -4.5469990000    -3.0075650000
   18      H      -2.5948330000    -5.1075640000    -3.7786550000
   19      H      -1.1080670000    -4.1314730000    -3.4616500000
   20      H      -2.6714510000    -3.7120850000    -2.6452640000
   21      C       0.6910200000    -2.3143260000     0.8228140000
   22      S      -1.0056490000    -2.2954870000    -1.1780370000
   23      C       0.0000000000    -1.4351800000     0.0000000000
   24      H       1.3688750000    -1.9932110000     1.6236560000
   25      C       0.0000000000     0.0000000000     0.0000000000
   26      S       0.5798520000     0.6875660000     1.5107320000
   27      C       1.5916250000     1.8950240000     0.7276290000
   28      C       0.5837710000     0.6957580000    -1.0646650000
   29      C       1.4753080000     1.7606060000    -0.6782870000
   30      C       0.5423660000     0.6438410000    -2.4861500000
   31      C       1.3552860000     1.6128430000    -3.1069160000
   32      S       2.1546090000     2.5706270000    -1.9657350000
   33      C       1.5224400000     1.8047780000    -4.5599720000
   34      O       0.9246840000     1.0877570000    -5.3502770000
   35      O       2.3497390000     2.7856790000    -5.0043750000
   36      F      -0.1707800000    -0.2121440000    -3.2462900000
   37      C       2.5880820000     3.0539360000    -6.3349760000
   38      H       3.2987990000     3.8999990000    -6.3702680000
   39      H       1.6552910000     3.3283710000    -6.8756090000
   40      H       3.0260210000     2.1773850000    -6.8618780000
   41      H       2.1830530000     2.5997590000     1.3215100000
   42      H       0.8179320000    -9.1464710000    -0.3499390000
   43      H      -0.5489390000    -9.1505700000     0.8152470000
   44      H       0.8218350000    -1.4441580000    -0.7006470000
 ----------------------------------------------------------------

   11   -2755.2913324945      7.56e-07  Convergence criterion met
 Total energy in the final basis set =    -2755.2913324945
        RIMP2         total energy =     -2760.3957853530 a.u.

                    Orbital Energies (a.u.)
 --------------------------------------------------------------

 Alpha MOs
 -- Occupied --
-92.0182 -91.9994 -91.9722 -91.9575 -26.3350 -20.6135 -20.5871 -20.5848
-20.5520 -11.4122 -11.3781 -11.3085 -11.3078 -11.3045 -11.3012 -11.3005
-11.2994 -11.2894 -11.2829 -11.2824 -11.2823 -11.2813 -11.2804 -11.2722
-11.2720 -11.2570 -11.2564 -11.2487 -11.2348  -9.0167  -9.0032  -8.9748
 -8.9601  -6.6973  -6.6967  -6.6964  -6.6845  -6.6838  -6.6825  -6.6559
 -6.6550  -6.6537  -6.6413  -6.6404  -6.6394  -1.6489  -1.4733  -1.4093
 -1.4078  -1.3688  -1.2438  -1.2078  -1.1752  -1.1452  -1.0985  -1.0532
 -1.0446  -1.0313  -1.0066  -0.9969  -0.9739  -0.9587  -0.9478  -0.9407
 -0.8920  -0.8754  -0.8592  -0.8121  -0.7934  -0.7852  -0.7783  -0.7657
 -0.7603  -0.7323  -0.7193  -0.7176  -0.6979  -0.6926  -0.6876  -0.6798
 -0.6758  -0.6740  -0.6544  -0.6477  -0.6322  -0.6288  -0.6191  -0.6144
 -0.6102  -0.6080  -0.5983  -0.5947  -0.5765  -0.5645  -0.5591  -0.5567
 -0.5517  -0.5310  -0.5286  -0.5206  -0.5120  -0.5072  -0.5044  -0.4992
 -0.4882  -0.4853  -0.4763  -0.4649  -0.4629  -0.4621  -0.4581  -0.4451
 -0.4299  -0.3967  -0.3823  -0.3687  -0.3511  -0.2946  -0.2862  -0.2153

          Ground-State Mulliken Net Atomic Charges

     Atom                 Charge (a.u.)
  ----------------------------------------
      1 C                    -0.069711
      2 C                    -0.265497
      3 S                    -0.137497
      4 C                    -0.043060
      5 H                     0.192992
      6 C                    -0.051189
      7 C                     0.222851
      8 C                     0.223280
      9 C                    -0.071677
     10 C                    -0.049404
     11 O                    -0.335941
     12 O                    -0.344387
     13 C                    -0.082558
     14 H                     0.119439
     15 H                     0.092236
     16 H                     0.092733
     17 C                    -0.087158
     18 H                     0.122518
     19 H                     0.092916
     20 H                     0.089849
     21 C                    -0.279867
     22 S                    -0.079013
     23 C                     0.056830
     24 H                     0.206385
     25 C                    -0.067170
     26 S                     0.106086
     27 C                    -0.222531
     28 C                    -0.081527
     29 C                    -0.008069
     30 C                     0.348734
     31 C                    -0.132388
     32 S                     0.054773
     33 C                     0.457767
     34 O                    -0.447956
     35 O                    -0.298015
     36 F                    -0.206821
     37 C                    -0.054735
     38 H                     0.116908
     39 H                     0.084873
     40 H                     0.084723
     41 H                     0.216497
     42 H                     0.116775
     43 H                     0.114212
     44 H                     0.202791
  ----------------------------------------
  Sum of atomic charges =     0.000000

                    Cartesian Multipole Moments
 -----------------------------------------------------------------
    Charge (ESU x 10^10)
                -0.0000
    Dipole Moment (Debye)
         X       3.0048      Y       3.4479      Z       2.6321
       Tot       5.2768
    Quadrupole Moments (Debye-Ang)
        XX    -192.3066     XY      10.5623     YY    -183.8145
        XZ      -1.2114     YZ      -5.6650     ZZ    -189.1755

 Total job time:  331.13s(wall), 10839.01s(cpu)
        *  Thank you very much for using Q-Chem.  Have a nice day.  *
