 Q-Chem 5.4, Q-Chem, Inc., Pleasanton, CA (2021)
 Q-Chem 5.4.0 for Intel X86 EM64T Linux

User input:
--------------------------------------------------------------
$molecule
0 1
C	-0.235993	-8.519741	0.135457
C	0.577858	-7.635967	-0.558188
S	-1.414705	-7.651740	1.148850
C	0.283020	-6.261894	-0.308648
H	1.377597	-7.954738	-1.238560
C	-0.810887	-6.079985	0.609026
C	-1.231581	-4.798382	0.996828
C	0.982901	-5.153542	-0.865740
C	0.564713	-3.869626	-0.474408
C	-0.532196	-3.688927	0.442046
O	1.976332	-5.481075	-1.738137
O	-2.228709	-4.479871	1.874052
C	-3.340298	-5.356026	2.016062
H	-4.110807	-4.790496	2.573877
H	-3.085998	-6.268513	2.598484
H	-3.751679	-5.658187	1.028695
C	3.007565	-4.546999	-2.033195
H	3.778655	-5.107564	-2.594833
H	3.461650	-4.131473	-1.108067
H	2.645264	-3.712085	-2.671451
C	-0.822814	-2.314326	0.691020
S	1.178037	-2.295487	-1.005649
C	-0.000000	-1.435180	-0.000000
H	-1.623656	-1.993211	1.368875
C	0.000000	0.000000	0.000000
S	0.579852	0.687566	1.510732
C	1.591625	1.895024	0.727629
C	0.583771	0.695758	-1.064665
C	1.475308	1.760606	-0.678287
C	0.542366	0.643841	-2.486150
C	1.355286	1.612843	-3.106916
S	2.154609	2.570627	-1.965735
C	1.522440	1.804778	-4.559972
O	0.924684	1.087757	-5.350277
O	2.349739	2.785679	-5.004375
F	-0.170780	-0.212144	-3.246290
C	2.588082	3.053936	-6.334976
H	3.298799	3.899999	-6.370268
H	1.655291	3.328371	-6.875609
H	3.026021	2.177385	-6.861878
H	2.183053	2.599759	1.321510
H	0.349939	-9.146471	0.817932
H	-0.815247	-9.150570	-0.548939
H	0.700647	-1.444158	0.821835
$end

$rem
JOBTYPE		SP
EXCHANGE	HF
CORRELATION	pRIMP2
BASIS		cc-pvtz
METHOD		rimp2
AUX_BASIS	rimp2-cc-pvtz
SOLVENT_METHOD	PCM
PURECART	11111
SYMMETRY	false
MEM_TOTAL	110000
SCF_CONVERGENCE = 6
THRESH=10
GUI = 2
$end

$solvent
dielectric 4.90
$end
--------------------------------------------------------------

             Standard Nuclear Orientation (Angstroms)
    I     Atom           X                Y                Z
 ----------------------------------------------------------------
    1      C      -0.2359930000    -8.5197410000     0.1354570000
    2      C       0.5778580000    -7.6359670000    -0.5581880000
    3      S      -1.4147050000    -7.6517400000     1.1488500000
    4      C       0.2830200000    -6.2618940000    -0.3086480000
    5      H       1.3775970000    -7.9547380000    -1.2385600000
    6      C      -0.8108870000    -6.0799850000     0.6090260000
    7      C      -1.2315810000    -4.7983820000     0.9968280000
    8      C       0.9829010000    -5.1535420000    -0.8657400000
    9      C       0.5647130000    -3.8696260000    -0.4744080000
   10      C      -0.5321960000    -3.6889270000     0.4420460000
   11      O       1.9763320000    -5.4810750000    -1.7381370000
   12      O      -2.2287090000    -4.4798710000     1.8740520000
   13      C      -3.3402980000    -5.3560260000     2.0160620000
   14      H      -4.1108070000    -4.7904960000     2.5738770000
   15      H      -3.0859980000    -6.2685130000     2.5984840000
   16      H      -3.7516790000    -5.6581870000     1.0286950000
   17      C       3.0075650000    -4.5469990000    -2.0331950000
   18      H       3.7786550000    -5.1075640000    -2.5948330000
   19      H       3.4616500000    -4.1314730000    -1.1080670000
   20      H       2.6452640000    -3.7120850000    -2.6714510000
   21      C      -0.8228140000    -2.3143260000     0.6910200000
   22      S       1.1780370000    -2.2954870000    -1.0056490000
   23      C       0.0000000000    -1.4351800000     0.0000000000
   24      H      -1.6236560000    -1.9932110000     1.3688750000
   25      C       0.0000000000     0.0000000000     0.0000000000
   26      S       0.5798520000     0.6875660000     1.5107320000
   27      C       1.5916250000     1.8950240000     0.7276290000
   28      C       0.5837710000     0.6957580000    -1.0646650000
   29      C       1.4753080000     1.7606060000    -0.6782870000
   30      C       0.5423660000     0.6438410000    -2.4861500000
   31      C       1.3552860000     1.6128430000    -3.1069160000
   32      S       2.1546090000     2.5706270000    -1.9657350000
   33      C       1.5224400000     1.8047780000    -4.5599720000
   34      O       0.9246840000     1.0877570000    -5.3502770000
   35      O       2.3497390000     2.7856790000    -5.0043750000
   36      F      -0.1707800000    -0.2121440000    -3.2462900000
   37      C       2.5880820000     3.0539360000    -6.3349760000
   38      H       3.2987990000     3.8999990000    -6.3702680000
   39      H       1.6552910000     3.3283710000    -6.8756090000
   40      H       3.0260210000     2.1773850000    -6.8618780000
   41      H       2.1830530000     2.5997590000     1.3215100000
   42      H       0.3499390000    -9.1464710000     0.8179320000
   43      H      -0.8152470000    -9.1505700000    -0.5489390000
   44      H       0.7006470000    -1.4441580000     0.8218350000
 ----------------------------------------------------------------

   11   -2755.2920523565      8.23e-07  Convergence criterion met
 Total energy in the final basis set =    -2755.2920523565
        RIMP2         total energy =     -2760.3927675751 a.u.

                    Orbital Energies (a.u.)
 --------------------------------------------------------------

 Alpha MOs
 -- Occupied --
-92.0116 -91.9980 -91.9771 -91.9572 -26.3348 -20.6141 -20.5868 -20.5857
-20.5533 -11.4131 -11.3786 -11.3083 -11.3056 -11.3050 -11.3046 -11.3039
-11.2984 -11.2895 -11.2869 -11.2837 -11.2825 -11.2820 -11.2773 -11.2714
-11.2703 -11.2572 -11.2557 -11.2486 -11.2345  -9.0113  -9.0020  -8.9793
 -8.9598  -6.6920  -6.6913  -6.6909  -6.6833  -6.6826  -6.6813  -6.6604
 -6.6595  -6.6582  -6.6410  -6.6401  -6.6391  -1.6480  -1.4740  -1.4094
 -1.4083  -1.3696  -1.2440  -1.2084  -1.1753  -1.1457  -1.0978  -1.0530
 -1.0446  -1.0336  -1.0072  -0.9966  -0.9741  -0.9594  -0.9481  -0.9406
 -0.8927  -0.8733  -0.8611  -0.8108  -0.7941  -0.7849  -0.7760  -0.7720
 -0.7641  -0.7333  -0.7209  -0.7163  -0.6963  -0.6942  -0.6816  -0.6801
 -0.6741  -0.6673  -0.6555  -0.6480  -0.6366  -0.6275  -0.6190  -0.6145
 -0.6112  -0.6088  -0.5989  -0.5930  -0.5796  -0.5655  -0.5621  -0.5566
 -0.5463  -0.5340  -0.5294  -0.5213  -0.5122  -0.5070  -0.5042  -0.5007
 -0.4882  -0.4833  -0.4757  -0.4673  -0.4634  -0.4628  -0.4601  -0.4457
 -0.4245  -0.4012  -0.3843  -0.3704  -0.3512  -0.2952  -0.2864  -0.2159

          Ground-State Mulliken Net Atomic Charges

     Atom                 Charge (a.u.)
  ----------------------------------------
      1 C                    -0.069758
      2 C                    -0.266578
      3 S                    -0.137964
      4 C                    -0.045152
      5 H                     0.192704
      6 C                    -0.048181
      7 C                     0.216394
      8 C                     0.221660
      9 C                    -0.071517
     10 C                    -0.030367
     11 O                    -0.334945
     12 O                    -0.343658
     13 C                    -0.082643
     14 H                     0.119556
     15 H                     0.092023
     16 H                     0.093103
     17 C                    -0.088524
     18 H                     0.123597
     19 H                     0.091402
     20 H                     0.090976
     21 C                    -0.303972
     22 S                    -0.094757
     23 C                     0.092826
     24 H                     0.203588
     25 C                    -0.047711
     26 S                     0.092115
     27 C                    -0.204637
     28 C                    -0.131982
     29 C                    -0.009165
     30 C                     0.385197
     31 C                    -0.138749
     32 S                     0.048153
     33 C                     0.459517
     34 O                    -0.444445
     35 O                    -0.297375
     36 F                    -0.209076
     37 C                    -0.054718
     38 H                     0.117032
     39 H                     0.085251
     40 H                     0.085026
     41 H                     0.216777
     42 H                     0.116414
     43 H                     0.114252
     44 H                     0.198312
  ----------------------------------------
  Sum of atomic charges =     0.000000

                    Cartesian Multipole Moments
 -----------------------------------------------------------------
    Charge (ESU x 10^10)
                -0.0000
    Dipole Moment (Debye)
         X       3.1769      Y       3.6084      Z       3.2064
       Tot       5.7787
    Quadrupole Moments (Debye-Ang)
        XX    -178.3613     XY       5.7270     YY    -183.7509
        XZ     -13.7138     YZ      -6.2865     ZZ    -202.1666

 Total job time:  340.21s(wall), 11421.41s(cpu)
        *  Thank you very much for using Q-Chem.  Have a nice day.  *
