 Q-Chem 5.4, Q-Chem, Inc., Pleasanton, CA (2021)
 Q-Chem 5.4.0 for Intel X86 EM64T Linux

User input:
--------------------------------------------------------------
$molecule
0 1
C	0.208002	-8.519741	0.175432
C	-0.722164	-7.635967	-0.352097
S	1.563424	-7.651740	0.936458
C	-0.386833	-6.261894	-0.160388
H	-1.635031	-7.954738	-0.870905
C	0.849637	-6.079985	0.553685
C	1.357938	-4.798382	0.816372
C	-1.149702	-5.153542	-0.627524
C	-0.638941	-3.869626	-0.368399
C	0.597409	-3.688927	0.348912
O	-2.309260	-5.481075	-1.262667
O	2.523296	-4.479871	1.453338
C	3.036927	-5.356026	2.449320
H	3.824632	-4.790496	2.982577
H	3.497250	-6.268513	2.011155
H	2.249807	-5.658187	3.173591
C	-2.939226	-4.546999	-2.130793
H	-3.730721	-5.107564	-2.663289
H	-2.225196	-4.131473	-2.873906
H	-3.415077	-3.712085	-1.572045
C	0.930765	-2.314326	0.536849
S	-1.347913	-2.295487	-0.763041
C	0.000000	-1.435180	0.000000
H	1.841645	-1.993211	1.057554
C	0.000000	0.000000	0.000000
S	0.002233	0.899428	1.510732
C	0.001157	2.474749	0.727629
C	-0.000030	0.908223	-1.064665
C	-0.001545	2.297013	-0.678287
C	0.001624	0.841837	-2.486150
C	0.001494	2.106670	-3.106916
S	-0.001841	3.354171	-1.965735
C	0.006168	2.361146	-4.559972
O	0.009152	1.427646	-5.350277
O	0.009405	3.644337	-5.004375
F	0.005539	-0.272288	-3.246290
C	0.019554	4.003038	-6.334976
H	0.020155	5.108000	-6.370268
H	-0.871409	3.613681	-6.875609
H	0.918470	3.613062	-6.861878
H	0.001222	3.394771	1.321510
H	0.648918	-9.146471	-0.608584
H	-0.237003	-9.150570	0.953830
H	0.532637	-1.444158	-0.939477
$end

$rem
JOBTYPE		SP
EXCHANGE	HF
CORRELATION	pRIMP2
BASIS		cc-pvtz
METHOD		rimp2
AUX_BASIS	rimp2-cc-pvtz
SOLVENT_METHOD	PCM
PURECART	11111
SYMMETRY	false
MEM_TOTAL	110000
SCF_CONVERGENCE = 6
THRESH=10
GUI = 2
$end

$solvent
dielectric 4.90
$end
--------------------------------------------------------------

             Standard Nuclear Orientation (Angstroms)
    I     Atom           X                Y                Z
 ----------------------------------------------------------------
    1      C       0.2080020000    -8.5197410000     0.1754320000
    2      C      -0.7221640000    -7.6359670000    -0.3520970000
    3      S       1.5634240000    -7.6517400000     0.9364580000
    4      C      -0.3868330000    -6.2618940000    -0.1603880000
    5      H      -1.6350310000    -7.9547380000    -0.8709050000
    6      C       0.8496370000    -6.0799850000     0.5536850000
    7      C       1.3579380000    -4.7983820000     0.8163720000
    8      C      -1.1497020000    -5.1535420000    -0.6275240000
    9      C      -0.6389410000    -3.8696260000    -0.3683990000
   10      C       0.5974090000    -3.6889270000     0.3489120000
   11      O      -2.3092600000    -5.4810750000    -1.2626670000
   12      O       2.5232960000    -4.4798710000     1.4533380000
   13      C       3.0369270000    -5.3560260000     2.4493200000
   14      H       3.8246320000    -4.7904960000     2.9825770000
   15      H       3.4972500000    -6.2685130000     2.0111550000
   16      H       2.2498070000    -5.6581870000     3.1735910000
   17      C      -2.9392260000    -4.5469990000    -2.1307930000
   18      H      -3.7307210000    -5.1075640000    -2.6632890000
   19      H      -2.2251960000    -4.1314730000    -2.8739060000
   20      H      -3.4150770000    -3.7120850000    -1.5720450000
   21      C       0.9307650000    -2.3143260000     0.5368490000
   22      S      -1.3479130000    -2.2954870000    -0.7630410000
   23      C       0.0000000000    -1.4351800000     0.0000000000
   24      H       1.8416450000    -1.9932110000     1.0575540000
   25      C       0.0000000000     0.0000000000     0.0000000000
   26      S       0.0022330000     0.8994280000     1.5107320000
   27      C       0.0011570000     2.4747490000     0.7276290000
   28      C      -0.0000300000     0.9082230000    -1.0646650000
   29      C      -0.0015450000     2.2970130000    -0.6782870000
   30      C       0.0016240000     0.8418370000    -2.4861500000
   31      C       0.0014940000     2.1066700000    -3.1069160000
   32      S      -0.0018410000     3.3541710000    -1.9657350000
   33      C       0.0061680000     2.3611460000    -4.5599720000
   34      O       0.0091520000     1.4276460000    -5.3502770000
   35      O       0.0094050000     3.6443370000    -5.0043750000
   36      F       0.0055390000    -0.2722880000    -3.2462900000
   37      C       0.0195540000     4.0030380000    -6.3349760000
   38      H       0.0201550000     5.1080000000    -6.3702680000
   39      H      -0.8714090000     3.6136810000    -6.8756090000
   40      H       0.9184700000     3.6130620000    -6.8618780000
   41      H       0.0012220000     3.3947710000     1.3215100000
   42      H       0.6489180000    -9.1464710000    -0.6085840000
   43      H      -0.2370030000    -9.1505700000     0.9538300000
   44      H       0.5326370000    -1.4441580000    -0.9394770000
 ----------------------------------------------------------------

   11   -2755.3290608826      7.32e-07  Convergence criterion met
 Total energy in the final basis set =    -2755.3290608826
        RIMP2         total energy =     -2760.4203410141 a.u.

                    Orbital Energies (a.u.)
 --------------------------------------------------------------

 Alpha MOs
 -- Occupied --
-92.0141 -91.9958 -91.9776 -91.9587 -26.3376 -20.6128 -20.5875 -20.5869
-20.5509 -11.4112 -11.3793 -11.3168 -11.3093 -11.3078 -11.2985 -11.2977
-11.2926 -11.2890 -11.2839 -11.2837 -11.2832 -11.2831 -11.2821 -11.2738
-11.2726 -11.2592 -11.2585 -11.2501 -11.2381  -9.0125  -8.9998  -8.9799
 -8.9613  -6.6933  -6.6927  -6.6923  -6.6811  -6.6804  -6.6790  -6.6610
 -6.6601  -6.6588  -6.6426  -6.6416  -6.6406  -1.6508  -1.4726  -1.4104
 -1.4092  -1.3679  -1.2387  -1.2090  -1.1756  -1.1433  -1.1003  -1.0516
 -1.0461  -1.0294  -1.0090  -0.9982  -0.9724  -0.9598  -0.9488  -0.9409
 -0.8935  -0.8741  -0.8630  -0.8109  -0.7925  -0.7857  -0.7805  -0.7682
 -0.7630  -0.7338  -0.7193  -0.7187  -0.6977  -0.6926  -0.6871  -0.6792
 -0.6762  -0.6728  -0.6555  -0.6486  -0.6318  -0.6300  -0.6204  -0.6151
 -0.6108  -0.6070  -0.5958  -0.5933  -0.5828  -0.5651  -0.5586  -0.5573
 -0.5501  -0.5324  -0.5282  -0.5213  -0.5134  -0.5079  -0.5037  -0.5006
 -0.4881  -0.4847  -0.4791  -0.4692  -0.4623  -0.4619  -0.4606  -0.4463
 -0.4262  -0.4018  -0.3857  -0.3705  -0.3504  -0.2927  -0.2878  -0.2203

          Ground-State Mulliken Net Atomic Charges

     Atom                 Charge (a.u.)
  ----------------------------------------
      1 C                    -0.070408
      2 C                    -0.255400
      3 S                    -0.134025
      4 C                    -0.045386
      5 H                     0.194033
      6 C                    -0.050415
      7 C                     0.224653
      8 C                     0.229595
      9 C                    -0.080881
     10 C                    -0.056741
     11 O                    -0.335053
     12 O                    -0.343836
     13 C                    -0.082565
     14 H                     0.119934
     15 H                     0.092124
     16 H                     0.092726
     17 C                    -0.087245
     18 H                     0.123027
     19 H                     0.094186
     20 H                     0.089745
     21 C                    -0.249734
     22 S                    -0.068239
     23 C                     0.073860
     24 H                     0.207709
     25 C                    -0.087862
     26 S                     0.098580
     27 C                    -0.241444
     28 C                    -0.097353
     29 C                    -0.006301
     30 C                     0.383333
     31 C                    -0.138018
     32 S                     0.038443
     33 C                     0.459928
     34 O                    -0.450321
     35 O                    -0.297712
     36 F                    -0.214049
     37 C                    -0.055109
     38 H                     0.116820
     39 H                     0.084683
     40 H                     0.084591
     41 H                     0.214538
     42 H                     0.118031
     43 H                     0.115504
     44 H                     0.192055
  ----------------------------------------
  Sum of atomic charges =     0.000000

                    Cartesian Multipole Moments
 -----------------------------------------------------------------
    Charge (ESU x 10^10)
                -0.0000
    Dipole Moment (Debye)
         X       0.1466      Y       3.1622      Z       2.5572
       Tot       4.0694
    Quadrupole Moments (Debye-Ang)
        XX    -193.4802     XY       3.4237     YY    -172.2921
        XZ       9.2930     YZ      -9.0150     ZZ    -195.7982

 Total job time:  338.86s(wall), 11164.37s(cpu)
        *  Thank you very much for using Q-Chem.  Have a nice day.  *
