 Q-Chem 5.4, Q-Chem, Inc., Pleasanton, CA (2021)
 Q-Chem 5.4.0 for Intel X86 EM64T Linux

User input:
--------------------------------------------------------------
$molecule
0 1
C	1.432238	-8.398629	0.267851
C	1.270668	-7.529711	-0.801461
S	1.299871	-7.540578	1.822194
C	1.033679	-6.176229	-0.415201
H	1.318997	-7.844878	-1.851431
C	1.001923	-5.997113	1.012650
C	0.805626	-4.730351	1.584194
C	0.863981	-5.080701	-1.309433
C	0.671533	-3.810912	-0.737539
C	0.637166	-3.633485	0.691828
O	0.891580	-5.408420	-2.631211
O	0.780896	-4.411287	2.911907
C	0.336511	-5.379315	3.854716
H	0.171379	-4.834178	4.803517
H	1.095324	-6.172080	4.034285
H	-0.616308	-5.854145	3.535185
C	1.159578	-4.412679	-3.610841
H	1.321333	-4.953370	-4.562544
H	2.072791	-3.829719	-3.364029
H	0.303747	-3.715791	-3.743566
C	0.402329	-2.279087	1.074491
S	0.385663	-2.262896	-1.548848
C	0.249216	-1.413377	0.000000
H	0.350996	-1.962069	2.123688
C	0.000000	0.000000	0.000000
S	0.158383	0.885376	1.510732
C	0.430876	2.436951	0.727629
C	0.157682	0.894430	-1.064665
C	0.397351	2.262384	-0.678287
C	0.147783	0.828765	-2.486150
C	0.367291	2.074406	-3.106916
S	0.580633	3.303533	-1.965735
C	0.416083	2.324204	-4.559972
O	0.256921	1.404367	-5.350277
O	0.642094	3.587338	-5.004375
F	-0.041828	-0.269113	-3.246290
C	0.714377	3.938827	-6.334976
H	0.906844	5.026898	-6.370268
H	-0.230661	3.710099	-6.875609
H	1.531918	3.398681	-6.861878
H	0.590699	3.342984	1.321510
H	2.426840	-8.859653	0.257688
H	0.658787	-9.175570	0.271664
H	1.314298	-1.234691	-0.008462
$end

$rem
JOBTYPE		SP
EXCHANGE	HF
CORRELATION	pRIMP2
BASIS		cc-pvtz
METHOD		rimp2
AUX_BASIS	rimp2-cc-pvtz
SOLVENT_METHOD	PCM
PURECART	11111
SYMMETRY	false
MEM_TOTAL	110000
SCF_CONVERGENCE = 6
THRESH=10
GUI = 2
$end

$solvent
dielectric 4.90
$end
--------------------------------------------------------------

             Standard Nuclear Orientation (Angstroms)
    I     Atom           X                Y                Z
 ----------------------------------------------------------------
    1      C       1.4322380000    -8.3986290000     0.2678510000
    2      C       1.2706680000    -7.5297110000    -0.8014610000
    3      S       1.2998710000    -7.5405780000     1.8221940000
    4      C       1.0336790000    -6.1762290000    -0.4152010000
    5      H       1.3189970000    -7.8448780000    -1.8514310000
    6      C       1.0019230000    -5.9971130000     1.0126500000
    7      C       0.8056260000    -4.7303510000     1.5841940000
    8      C       0.8639810000    -5.0807010000    -1.3094330000
    9      C       0.6715330000    -3.8109120000    -0.7375390000
   10      C       0.6371660000    -3.6334850000     0.6918280000
   11      O       0.8915800000    -5.4084200000    -2.6312110000
   12      O       0.7808960000    -4.4112870000     2.9119070000
   13      C       0.3365110000    -5.3793150000     3.8547160000
   14      H       0.1713790000    -4.8341780000     4.8035170000
   15      H       1.0953240000    -6.1720800000     4.0342850000
   16      H      -0.6163080000    -5.8541450000     3.5351850000
   17      C       1.1595780000    -4.4126790000    -3.6108410000
   18      H       1.3213330000    -4.9533700000    -4.5625440000
   19      H       2.0727910000    -3.8297190000    -3.3640290000
   20      H       0.3037470000    -3.7157910000    -3.7435660000
   21      C       0.4023290000    -2.2790870000     1.0744910000
   22      S       0.3856630000    -2.2628960000    -1.5488480000
   23      C       0.2492160000    -1.4133770000     0.0000000000
   24      H       0.3509960000    -1.9620690000     2.1236880000
   25      C       0.0000000000     0.0000000000     0.0000000000
   26      S       0.1583830000     0.8853760000     1.5107320000
   27      C       0.4308760000     2.4369510000     0.7276290000
   28      C       0.1576820000     0.8944300000    -1.0646650000
   29      C       0.3973510000     2.2623840000    -0.6782870000
   30      C       0.1477830000     0.8287650000    -2.4861500000
   31      C       0.3672910000     2.0744060000    -3.1069160000
   32      S       0.5806330000     3.3035330000    -1.9657350000
   33      C       0.4160830000     2.3242040000    -4.5599720000
   34      O       0.2569210000     1.4043670000    -5.3502770000
   35      O       0.6420940000     3.5873380000    -5.0043750000
   36      F      -0.0418280000    -0.2691130000    -3.2462900000
   37      C       0.7143770000     3.9388270000    -6.3349760000
   38      H       0.9068440000     5.0268980000    -6.3702680000
   39      H      -0.2306610000     3.7100990000    -6.8756090000
   40      H       1.5319180000     3.3986810000    -6.8618780000
   41      H       0.5906990000     3.3429840000     1.3215100000
   42      H       2.4268400000    -8.8596530000     0.2576880000
   43      H       0.6587870000    -9.1755700000     0.2716640000
   44      H       1.3142980000    -1.2346910000    -0.0084620000
 ----------------------------------------------------------------

   11   -2755.3164791155      6.48e-07  Convergence criterion met
 Total energy in the final basis set =    -2755.3164791155
        RIMP2         total energy =     -2760.4100263862 a.u.

                    Orbital Energies (a.u.)
 --------------------------------------------------------------

 Alpha MOs
 -- Occupied --
-92.0125 -91.9915 -91.9757 -91.9613 -26.3354 -20.6105 -20.5888 -20.5883
-20.5468 -11.4077 -11.3792 -11.3257 -11.3116 -11.3099 -11.2965 -11.2911
-11.2878 -11.2874 -11.2842 -11.2838 -11.2826 -11.2818 -11.2773 -11.2754
-11.2703 -11.2636 -11.2605 -11.2529 -11.2444  -9.0113  -8.9957  -8.9784
 -8.9639  -6.6922  -6.6915  -6.6910  -6.6770  -6.6763  -6.6750  -6.6593
 -6.6586  -6.6570  -6.6451  -6.6442  -6.6431  -1.6514  -1.4700  -1.4121
 -1.4102  -1.3649  -1.2388  -1.2098  -1.1787  -1.1434  -1.1006  -1.0509
 -1.0473  -1.0293  -1.0082  -1.0006  -0.9713  -0.9601  -0.9500  -0.9403
 -0.8953  -0.8719  -0.8631  -0.8133  -0.7960  -0.7863  -0.7764  -0.7661
 -0.7623  -0.7340  -0.7213  -0.7179  -0.6984  -0.6958  -0.6845  -0.6773
 -0.6736  -0.6720  -0.6568  -0.6496  -0.6376  -0.6299  -0.6230  -0.6160
 -0.6110  -0.6043  -0.5975  -0.5914  -0.5767  -0.5683  -0.5644  -0.5596
 -0.5491  -0.5332  -0.5290  -0.5210  -0.5138  -0.5090  -0.5047  -0.4997
 -0.4839  -0.4826  -0.4798  -0.4659  -0.4602  -0.4599  -0.4583  -0.4487
 -0.4318  -0.4001  -0.3851  -0.3731  -0.3510  -0.2936  -0.2832  -0.2192

          Ground-State Mulliken Net Atomic Charges

     Atom                 Charge (a.u.)
  ----------------------------------------
      1 C                    -0.071476
      2 C                    -0.237315
      3 S                    -0.128840
      4 C                    -0.052659
      5 H                     0.196532
      6 C                    -0.045690
      7 C                     0.216318
      8 C                     0.236534
      9 C                    -0.079177
     10 C                    -0.019836
     11 O                    -0.334204
     12 O                    -0.344033
     13 C                    -0.082722
     14 H                     0.120250
     15 H                     0.091922
     16 H                     0.093097
     17 C                    -0.089004
     18 H                     0.124732
     19 H                     0.093071
     20 H                     0.093031
     21 C                    -0.337034
     22 S                    -0.091369
     23 C                     0.113567
     24 H                     0.197229
     25 C                     0.044052
     26 S                     0.077821
     27 C                    -0.270374
     28 C                    -0.153913
     29 C                    -0.017286
     30 C                     0.373859
     31 C                    -0.144080
     32 S                     0.032851
     33 C                     0.458756
     34 O                    -0.456486
     35 O                    -0.298865
     36 F                    -0.208571
     37 C                    -0.055007
     38 H                     0.116298
     39 H                     0.084028
     40 H                     0.083738
     41 H                     0.214109
     42 H                     0.120518
     43 H                     0.118239
     44 H                     0.217390
  ----------------------------------------
  Sum of atomic charges =     0.000000

                    Cartesian Multipole Moments
 -----------------------------------------------------------------
    Charge (ESU x 10^10)
                 0.0000
    Dipole Moment (Debye)
         X       1.3839      Y       1.0734      Z       2.9429
       Tot       3.4246
    Quadrupole Moments (Debye-Ang)
        XX    -198.6279     XY      -1.1726     YY    -165.6327
        XZ      -8.2092     YZ      -5.9314     ZZ    -190.8830

 Total job time:  428.60s(wall), 10706.87s(cpu)
        *  Thank you very much for using Q-Chem.  Have a nice day.  *
