 Q-Chem 5.4, Q-Chem, Inc., Pleasanton, CA (2021)
 Q-Chem 5.4.0 for Intel X86 EM64T Linux

User input:
--------------------------------------------------------------
$molecule
0 1
C	-0.235993	-8.519741	0.135457
C	0.577858	-7.635967	-0.558188
S	-1.414705	-7.651740	1.148850
C	0.283020	-6.261894	-0.308648
H	1.377597	-7.954738	-1.238560
C	-0.810887	-6.079985	0.609026
C	-1.231581	-4.798382	0.996828
C	0.982901	-5.153542	-0.865740
C	0.564713	-3.869626	-0.474408
C	-0.532196	-3.688927	0.442046
O	1.976332	-5.481075	-1.738137
O	-2.228709	-4.479871	1.874052
C	-3.340298	-5.356026	2.016062
H	-4.110807	-4.790496	2.573877
H	-3.085998	-6.268513	2.598484
H	-3.751679	-5.658187	1.028695
C	3.007565	-4.546999	-2.033195
H	3.778655	-5.107564	-2.594833
H	3.461650	-4.131473	-1.108067
H	2.645264	-3.712085	-2.671451
C	-0.822814	-2.314326	0.691020
S	1.178037	-2.295487	-1.005649
C	0.000000	-1.435180	0.000000
H	-1.623656	-1.993211	1.368875
C	0.000000	0.000000	0.000000
S	0.234946	0.868203	1.510732
C	0.641630	2.390125	0.727629
C	0.235036	0.877284	-1.064665
C	0.593019	2.219143	-0.678287
C	0.219452	0.812732	-2.486150
C	0.546689	2.034501	-3.106916
S	0.866345	3.240357	-1.965735
C	0.617067	2.279095	-4.559972
O	0.378342	1.376631	-5.350277
O	0.952308	3.517725	-5.004375
F	-0.065123	-0.264443	-3.246290
C	1.054950	3.861577	-6.334976
H	1.341516	4.928732	-6.370268
H	0.093573	3.716085	-6.875609
H	1.822303	3.252232	-6.861878
H	0.879812	3.278780	1.321510
H	0.349939	-9.146471	0.817932
H	-0.815247	-9.150570	-0.548939
H	0.700647	-1.444158	0.821835
$end

$rem
JOBTYPE		SP
EXCHANGE	HF
CORRELATION	pRIMP2
BASIS		cc-pvtz
METHOD		rimp2
AUX_BASIS	rimp2-cc-pvtz
SOLVENT_METHOD	PCM
PURECART	11111
SYMMETRY	false
MEM_TOTAL	110000
SCF_CONVERGENCE = 6
THRESH=10
GUI = 2
$end

$solvent
dielectric 4.90
$end
--------------------------------------------------------------

             Standard Nuclear Orientation (Angstroms)
    I     Atom           X                Y                Z
 ----------------------------------------------------------------
    1      C      -0.2359930000    -8.5197410000     0.1354570000
    2      C       0.5778580000    -7.6359670000    -0.5581880000
    3      S      -1.4147050000    -7.6517400000     1.1488500000
    4      C       0.2830200000    -6.2618940000    -0.3086480000
    5      H       1.3775970000    -7.9547380000    -1.2385600000
    6      C      -0.8108870000    -6.0799850000     0.6090260000
    7      C      -1.2315810000    -4.7983820000     0.9968280000
    8      C       0.9829010000    -5.1535420000    -0.8657400000
    9      C       0.5647130000    -3.8696260000    -0.4744080000
   10      C      -0.5321960000    -3.6889270000     0.4420460000
   11      O       1.9763320000    -5.4810750000    -1.7381370000
   12      O      -2.2287090000    -4.4798710000     1.8740520000
   13      C      -3.3402980000    -5.3560260000     2.0160620000
   14      H      -4.1108070000    -4.7904960000     2.5738770000
   15      H      -3.0859980000    -6.2685130000     2.5984840000
   16      H      -3.7516790000    -5.6581870000     1.0286950000
   17      C       3.0075650000    -4.5469990000    -2.0331950000
   18      H       3.7786550000    -5.1075640000    -2.5948330000
   19      H       3.4616500000    -4.1314730000    -1.1080670000
   20      H       2.6452640000    -3.7120850000    -2.6714510000
   21      C      -0.8228140000    -2.3143260000     0.6910200000
   22      S       1.1780370000    -2.2954870000    -1.0056490000
   23      C       0.0000000000    -1.4351800000     0.0000000000
   24      H      -1.6236560000    -1.9932110000     1.3688750000
   25      C       0.0000000000     0.0000000000     0.0000000000
   26      S       0.2349460000     0.8682030000     1.5107320000
   27      C       0.6416300000     2.3901250000     0.7276290000
   28      C       0.2350360000     0.8772840000    -1.0646650000
   29      C       0.5930190000     2.2191430000    -0.6782870000
   30      C       0.2194520000     0.8127320000    -2.4861500000
   31      C       0.5466890000     2.0345010000    -3.1069160000
   32      S       0.8663450000     3.2403570000    -1.9657350000
   33      C       0.6170670000     2.2790950000    -4.5599720000
   34      O       0.3783420000     1.3766310000    -5.3502770000
   35      O       0.9523080000     3.5177250000    -5.0043750000
   36      F      -0.0651230000    -0.2644430000    -3.2462900000
   37      C       1.0549500000     3.8615770000    -6.3349760000
   38      H       1.3415160000     4.9287320000    -6.3702680000
   39      H       0.0935730000     3.7160850000    -6.8756090000
   40      H       1.8223030000     3.2522320000    -6.8618780000
   41      H       0.8798120000     3.2787800000     1.3215100000
   42      H       0.3499390000    -9.1464710000     0.8179320000
   43      H      -0.8152470000    -9.1505700000    -0.5489390000
   44      H       0.7006470000    -1.4441580000     0.8218350000
 ----------------------------------------------------------------

   11   -2755.3216414579      8.09e-07  Convergence criterion met
 Total energy in the final basis set =    -2755.3216414579
        RIMP2         total energy =     -2760.4124886262 a.u.

                    Orbital Energies (a.u.)
 --------------------------------------------------------------

 Alpha MOs
 -- Occupied --
-92.0151 -91.9939 -91.9783 -91.9587 -26.3342 -20.6121 -20.5875 -20.5869
-20.5498 -11.4102 -11.3784 -11.3179 -11.3093 -11.3078 -11.2970 -11.2969
-11.2925 -11.2885 -11.2842 -11.2834 -11.2831 -11.2828 -11.2807 -11.2737
-11.2726 -11.2592 -11.2585 -11.2500 -11.2378  -9.0139  -8.9980  -8.9805
 -8.9613  -6.6947  -6.6941  -6.6935  -6.6793  -6.6787  -6.6773  -6.6616
 -6.6607  -6.6594  -6.6425  -6.6416  -6.6405  -1.6475  -1.4717  -1.4105
 -1.4092  -1.3670  -1.2388  -1.2096  -1.1761  -1.1441  -1.0996  -1.0505
 -1.0460  -1.0311  -1.0083  -0.9983  -0.9721  -0.9599  -0.9488  -0.9406
 -0.8938  -0.8710  -0.8644  -0.8104  -0.7925  -0.7856  -0.7763  -0.7709
 -0.7657  -0.7331  -0.7209  -0.7155  -0.6971  -0.6926  -0.6827  -0.6785
 -0.6716  -0.6667  -0.6565  -0.6487  -0.6375  -0.6286  -0.6204  -0.6150
 -0.6109  -0.6063  -0.5956  -0.5929  -0.5810  -0.5651  -0.5634  -0.5576
 -0.5491  -0.5343  -0.5280  -0.5214  -0.5129  -0.5079  -0.5032  -0.5017
 -0.4861  -0.4845  -0.4778  -0.4695  -0.4618  -0.4611  -0.4609  -0.4470
 -0.4265  -0.4016  -0.3856  -0.3711  -0.3515  -0.2932  -0.2864  -0.2190

          Ground-State Mulliken Net Atomic Charges

     Atom                 Charge (a.u.)
  ----------------------------------------
      1 C                    -0.070160
      2 C                    -0.256907
      3 S                    -0.134697
      4 C                    -0.046424
      5 H                     0.193986
      6 C                    -0.047678
      7 C                     0.219181
      8 C                     0.225801
      9 C                    -0.072846
     10 C                    -0.022024
     11 O                    -0.334705
     12 O                    -0.343767
     13 C                    -0.082700
     14 H                     0.119862
     15 H                     0.092136
     16 H                     0.093210
     17 C                    -0.087830
     18 H                     0.123721
     19 H                     0.091956
     20 H                     0.091654
     21 C                    -0.306691
     22 S                    -0.080084
     23 C                     0.107128
     24 H                     0.202958
     25 C                    -0.040540
     26 S                     0.095117
     27 C                    -0.244428
     28 C                    -0.142121
     29 C                    -0.002225
     30 C                     0.396378
     31 C                    -0.151878
     32 S                     0.034737
     33 C                     0.461205
     34 O                    -0.450267
     35 O                    -0.298037
     36 F                    -0.209758
     37 C                    -0.055012
     38 H                     0.116538
     39 H                     0.084676
     40 H                     0.084435
     41 H                     0.214921
     42 H                     0.117724
     43 H                     0.115585
     44 H                     0.197870
  ----------------------------------------
  Sum of atomic charges =     0.000000

                    Cartesian Multipole Moments
 -----------------------------------------------------------------
    Charge (ESU x 10^10)
                -0.0000
    Dipole Moment (Debye)
         X       1.4061      Y       2.9281      Z       3.5003
       Tot       4.7753
    Quadrupole Moments (Debye-Ang)
        XX    -184.3529     XY       0.8681     YY    -174.1049
        XZ      -9.1946     YZ      -7.5202     ZZ    -203.9530

 Total job time:  320.74s(wall), 10367.99s(cpu)
        *  Thank you very much for using Q-Chem.  Have a nice day.  *
