 Q-Chem 5.4, Q-Chem, Inc., Pleasanton, CA (2021)
 Q-Chem 5.4.0 for Intel X86 EM64T Linux

User input:
--------------------------------------------------------------
$molecule
0 1
C	-0.255459	-8.519741	-0.093711
C	0.799036	-7.635967	0.083869
S	-1.789425	-7.651740	-0.345260
C	0.418360	-6.261894	0.018411
H	1.834294	-7.954738	0.259169
C	-0.987769	-6.079985	-0.229701
C	-1.555260	-4.798382	-0.302697
C	1.294992	-5.153542	0.196459
C	0.726408	-3.869626	0.127651
C	-0.680716	-3.688927	-0.123544
O	2.601852	-5.481075	0.396706
O	-2.868193	-4.479871	-0.502673
C	-3.691495	-5.356026	-1.262918
H	-4.614080	-4.790496	-1.494604
H	-3.974195	-6.268513	-0.693738
H	-3.199559	-5.658187	-2.212720
C	3.490743	-4.546999	0.997016
H	4.416630	-5.107564	1.226691
H	3.073934	-4.131473	1.939526
H	3.746794	-3.712085	0.309214
C	-1.058247	-2.314326	-0.186133
S	1.527599	-2.295487	0.256010
C	-0.000000	-1.435180	-0.000000
H	-2.092285	-1.993211	-0.363896
C	0.000000	0.000000	0.000000
S	0.579852	0.687566	1.510732
C	1.591625	1.895024	0.727629
C	0.583771	0.695758	-1.064665
C	1.475308	1.760606	-0.678287
C	0.542366	0.643841	-2.486150
C	1.355286	1.612843	-3.106916
S	2.154609	2.570627	-1.965735
C	1.522440	1.804778	-4.559972
O	0.924684	1.087757	-5.350277
O	2.349739	2.785679	-5.004375
F	-0.170780	-0.212144	-3.246290
C	2.588082	3.053936	-6.334976
H	3.298799	3.899999	-6.370268
H	1.655291	3.328371	-6.875609
H	3.026021	2.177385	-6.861878
H	2.183053	2.599759	1.321510
H	-0.401636	-9.146471	0.793825
H	-0.103519	-9.150570	-0.977367
H	-0.179195	-1.444158	1.064992
$end

$rem
JOBTYPE		SP
EXCHANGE	HF
CORRELATION	pRIMP2
BASIS		cc-pvtz
METHOD		rimp2
AUX_BASIS	rimp2-cc-pvtz
SOLVENT_METHOD	PCM
PURECART	11111
SYMMETRY	false
MEM_TOTAL	110000
SCF_CONVERGENCE = 6
THRESH=10
GUI = 2
$end

$solvent
dielectric 4.90
$end
--------------------------------------------------------------

             Standard Nuclear Orientation (Angstroms)
    I     Atom           X                Y                Z
 ----------------------------------------------------------------
    1      C      -0.2554590000    -8.5197410000    -0.0937110000
    2      C       0.7990360000    -7.6359670000     0.0838690000
    3      S      -1.7894250000    -7.6517400000    -0.3452600000
    4      C       0.4183600000    -6.2618940000     0.0184110000
    5      H       1.8342940000    -7.9547380000     0.2591690000
    6      C      -0.9877690000    -6.0799850000    -0.2297010000
    7      C      -1.5552600000    -4.7983820000    -0.3026970000
    8      C       1.2949920000    -5.1535420000     0.1964590000
    9      C       0.7264080000    -3.8696260000     0.1276510000
   10      C      -0.6807160000    -3.6889270000    -0.1235440000
   11      O       2.6018520000    -5.4810750000     0.3967060000
   12      O      -2.8681930000    -4.4798710000    -0.5026730000
   13      C      -3.6914950000    -5.3560260000    -1.2629180000
   14      H      -4.6140800000    -4.7904960000    -1.4946040000
   15      H      -3.9741950000    -6.2685130000    -0.6937380000
   16      H      -3.1995590000    -5.6581870000    -2.2127200000
   17      C       3.4907430000    -4.5469990000     0.9970160000
   18      H       4.4166300000    -5.1075640000     1.2266910000
   19      H       3.0739340000    -4.1314730000     1.9395260000
   20      H       3.7467940000    -3.7120850000     0.3092140000
   21      C      -1.0582470000    -2.3143260000    -0.1861330000
   22      S       1.5275990000    -2.2954870000     0.2560100000
   23      C       0.0000000000    -1.4351800000     0.0000000000
   24      H      -2.0922850000    -1.9932110000    -0.3638960000
   25      C       0.0000000000     0.0000000000     0.0000000000
   26      S       0.5798520000     0.6875660000     1.5107320000
   27      C       1.5916250000     1.8950240000     0.7276290000
   28      C       0.5837710000     0.6957580000    -1.0646650000
   29      C       1.4753080000     1.7606060000    -0.6782870000
   30      C       0.5423660000     0.6438410000    -2.4861500000
   31      C       1.3552860000     1.6128430000    -3.1069160000
   32      S       2.1546090000     2.5706270000    -1.9657350000
   33      C       1.5224400000     1.8047780000    -4.5599720000
   34      O       0.9246840000     1.0877570000    -5.3502770000
   35      O       2.3497390000     2.7856790000    -5.0043750000
   36      F      -0.1707800000    -0.2121440000    -3.2462900000
   37      C       2.5880820000     3.0539360000    -6.3349760000
   38      H       3.2987990000     3.8999990000    -6.3702680000
   39      H       1.6552910000     3.3283710000    -6.8756090000
   40      H       3.0260210000     2.1773850000    -6.8618780000
   41      H       2.1830530000     2.5997590000     1.3215100000
   42      H      -0.4016360000    -9.1464710000     0.7938250000
   43      H      -0.1035190000    -9.1505700000    -0.9773670000
   44      H      -0.1791950000    -1.4441580000     1.0649920000
 ----------------------------------------------------------------

   11   -2755.2973541358      7.14e-07  Convergence criterion met
 Total energy in the final basis set =    -2755.2973541358
        RIMP2         total energy =     -2760.3973929502 a.u.

                    Orbital Energies (a.u.)
 --------------------------------------------------------------

 Alpha MOs
 -- Occupied --
-92.0182 -92.0007 -91.9743 -91.9559 -26.3354 -20.6146 -20.5859 -20.5852
-20.5545 -11.4141 -11.3769 -11.3114 -11.3076 -11.3062 -11.3043 -11.2991
-11.2930 -11.2898 -11.2863 -11.2837 -11.2816 -11.2812 -11.2762 -11.2701
-11.2695 -11.2563 -11.2527 -11.2475 -11.2328  -9.0170  -9.0045  -8.9767
 -8.9586  -6.6976  -6.6969  -6.6966  -6.6857  -6.6851  -6.6838  -6.6578
 -6.6569  -6.6556  -6.6398  -6.6389  -6.6378  -1.6483  -1.4746  -1.4088
 -1.4075  -1.3705  -1.2421  -1.2071  -1.1738  -1.1454  -1.0970  -1.0524
 -1.0437  -1.0332  -1.0069  -0.9952  -0.9746  -0.9594  -0.9472  -0.9396
 -0.8917  -0.8741  -0.8610  -0.8081  -0.7951  -0.7831  -0.7784  -0.7737
 -0.7634  -0.7331  -0.7208  -0.7170  -0.6961  -0.6938  -0.6806  -0.6797
 -0.6751  -0.6637  -0.6548  -0.6473  -0.6301  -0.6298  -0.6180  -0.6136
 -0.6114  -0.6095  -0.5998  -0.5920  -0.5772  -0.5629  -0.5590  -0.5541
 -0.5434  -0.5358  -0.5289  -0.5220  -0.5117  -0.5061  -0.5048  -0.4995
 -0.4894  -0.4849  -0.4727  -0.4705  -0.4649  -0.4631  -0.4590  -0.4445
 -0.4211  -0.4018  -0.3836  -0.3681  -0.3493  -0.2970  -0.2874  -0.2183

          Ground-State Mulliken Net Atomic Charges

     Atom                 Charge (a.u.)
  ----------------------------------------
      1 C                    -0.069636
      2 C                    -0.270809
      3 S                    -0.140165
      4 C                    -0.041405
      5 H                     0.191825
      6 C                    -0.055021
      7 C                     0.223854
      8 C                     0.222093
      9 C                    -0.074798
     10 C                    -0.051849
     11 O                    -0.335406
     12 O                    -0.343138
     13 C                    -0.082265
     14 H                     0.119628
     15 H                     0.091508
     16 H                     0.093138
     17 C                    -0.086671
     18 H                     0.122953
     19 H                     0.090995
     20 H                     0.089875
     21 C                    -0.257841
     22 S                    -0.077771
     23 C                     0.010198
     24 H                     0.205235
     25 C                    -0.067972
     26 S                     0.111378
     27 C                    -0.193564
     28 C                    -0.076534
     29 C                    -0.003326
     30 C                     0.360256
     31 C                    -0.136849
     32 S                     0.057594
     33 C                     0.457386
     34 O                    -0.442722
     35 O                    -0.297095
     36 F                    -0.210129
     37 C                    -0.054720
     38 H                     0.117132
     39 H                     0.085256
     40 H                     0.085396
     41 H                     0.219360
     42 H                     0.115564
     43 H                     0.113539
     44 H                     0.185522
  ----------------------------------------
  Sum of atomic charges =     0.000000

                    Cartesian Multipole Moments
 -----------------------------------------------------------------
    Charge (ESU x 10^10)
                -0.0000
    Dipole Moment (Debye)
         X       3.0457      Y       4.6085      Z       3.4182
       Tot       6.4961
    Quadrupole Moments (Debye-Ang)
        XX    -180.0088     XY       5.7384     YY    -186.3614
        XZ       0.0889     YZ      -9.3798     ZZ    -199.5012

 Total job time:  331.21s(wall), 10889.21s(cpu)
        *  Thank you very much for using Q-Chem.  Have a nice day.  *
