 Q-Chem 5.4, Q-Chem, Inc., Pleasanton, CA (2021)
 Q-Chem 5.4.0 for Intel X86 EM64T Linux

User input:
--------------------------------------------------------------
$molecule
0 1
C	0.175432	-8.519741	-0.208002
C	-0.352097	-7.635967	0.722164
S	0.936458	-7.651740	-1.563424
C	-0.160388	-6.261894	0.386833
H	-0.870905	-7.954738	1.635031
C	0.553685	-6.079985	-0.849637
C	0.816372	-4.798382	-1.357938
C	-0.627524	-5.153542	1.149702
C	-0.368399	-3.869626	0.638941
C	0.348912	-3.688927	-0.597409
O	-1.262667	-5.481075	2.309260
O	1.453338	-4.479871	-2.523296
C	2.449320	-5.356026	-3.036927
H	2.982577	-4.790496	-3.824632
H	2.011155	-6.268513	-3.497250
H	3.173591	-5.658187	-2.249807
C	-2.130793	-4.546999	2.939226
H	-2.663289	-5.107564	3.730721
H	-2.873906	-4.131473	2.225196
H	-1.572045	-3.712085	3.415077
C	0.536849	-2.314326	-0.930765
S	-0.763041	-2.295487	1.347913
C	0.000000	-1.435180	0.000000
H	1.057554	-1.993211	-1.841645
C	0.000000	0.000000	0.000000
S	0.780044	0.447780	1.510732
C	2.143774	1.236372	0.727629
C	0.786529	0.454137	-1.064665
C	1.988499	1.149844	-0.678287
C	0.729864	0.419512	-2.486150
C	1.825177	1.052041	-3.106916
S	2.903877	1.678680	-1.965735
C	2.047896	1.175232	-4.559972
O	1.240953	0.705897	-5.350277
O	3.160791	1.814024	-5.004375
F	-0.233039	-0.140940	-3.246290
C	3.476510	1.984585	-6.334976
H	4.433735	2.536545	-6.370268
H	2.693835	2.561503	-6.875609
H	3.588239	1.011113	-6.861878
H	2.940569	1.696327	1.321510
H	-0.608584	-9.146471	-0.648918
H	0.953830	-9.150570	0.237003
H	-0.939477	-1.444158	-0.532637
$end

$rem
JOBTYPE		SP
EXCHANGE	HF
CORRELATION	pRIMP2
BASIS		cc-pvtz
METHOD		rimp2
AUX_BASIS	rimp2-cc-pvtz
SOLVENT_METHOD	PCM
PURECART	11111
SYMMETRY	false
MEM_TOTAL	110000
SCF_CONVERGENCE = 6
THRESH=10
GUI = 2
$end

$solvent
dielectric 4.90
$end
--------------------------------------------------------------

             Standard Nuclear Orientation (Angstroms)
    I     Atom           X                Y                Z
 ----------------------------------------------------------------
    1      C       0.1754320000    -8.5197410000    -0.2080020000
    2      C      -0.3520970000    -7.6359670000     0.7221640000
    3      S       0.9364580000    -7.6517400000    -1.5634240000
    4      C      -0.1603880000    -6.2618940000     0.3868330000
    5      H      -0.8709050000    -7.9547380000     1.6350310000
    6      C       0.5536850000    -6.0799850000    -0.8496370000
    7      C       0.8163720000    -4.7983820000    -1.3579380000
    8      C      -0.6275240000    -5.1535420000     1.1497020000
    9      C      -0.3683990000    -3.8696260000     0.6389410000
   10      C       0.3489120000    -3.6889270000    -0.5974090000
   11      O      -1.2626670000    -5.4810750000     2.3092600000
   12      O       1.4533380000    -4.4798710000    -2.5232960000
   13      C       2.4493200000    -5.3560260000    -3.0369270000
   14      H       2.9825770000    -4.7904960000    -3.8246320000
   15      H       2.0111550000    -6.2685130000    -3.4972500000
   16      H       3.1735910000    -5.6581870000    -2.2498070000
   17      C      -2.1307930000    -4.5469990000     2.9392260000
   18      H      -2.6632890000    -5.1075640000     3.7307210000
   19      H      -2.8739060000    -4.1314730000     2.2251960000
   20      H      -1.5720450000    -3.7120850000     3.4150770000
   21      C       0.5368490000    -2.3143260000    -0.9307650000
   22      S      -0.7630410000    -2.2954870000     1.3479130000
   23      C       0.0000000000    -1.4351800000     0.0000000000
   24      H       1.0575540000    -1.9932110000    -1.8416450000
   25      C       0.0000000000     0.0000000000     0.0000000000
   26      S       0.7800440000     0.4477800000     1.5107320000
   27      C       2.1437740000     1.2363720000     0.7276290000
   28      C       0.7865290000     0.4541370000    -1.0646650000
   29      C       1.9884990000     1.1498440000    -0.6782870000
   30      C       0.7298640000     0.4195120000    -2.4861500000
   31      C       1.8251770000     1.0520410000    -3.1069160000
   32      S       2.9038770000     1.6786800000    -1.9657350000
   33      C       2.0478960000     1.1752320000    -4.5599720000
   34      O       1.2409530000     0.7058970000    -5.3502770000
   35      O       3.1607910000     1.8140240000    -5.0043750000
   36      F      -0.2330390000    -0.1409400000    -3.2462900000
   37      C       3.4765100000     1.9845850000    -6.3349760000
   38      H       4.4337350000     2.5365450000    -6.3702680000
   39      H       2.6938350000     2.5615030000    -6.8756090000
   40      H       3.5882390000     1.0111130000    -6.8618780000
   41      H       2.9405690000     1.6963270000     1.3215100000
   42      H      -0.6085840000    -9.1464710000    -0.6489180000
   43      H       0.9538300000    -9.1505700000     0.2370030000
   44      H      -0.9394770000    -1.4441580000    -0.5326370000
 ----------------------------------------------------------------

   11   -2755.2512451493      7.75e-07  Convergence criterion met
 Total energy in the final basis set =    -2755.2512451493
        RIMP2         total energy =     -2760.3671091227 a.u.

                    Orbital Energies (a.u.)
 --------------------------------------------------------------

 Alpha MOs
 -- Occupied --
-92.0120 -92.0081 -91.9754 -91.9549 -26.3388 -20.6167 -20.5859 -20.5846
-20.5578 -11.4172 -11.3786 -11.3236 -11.3129 -11.3077 -11.3033 -11.3031
-11.2953 -11.2911 -11.2832 -11.2817 -11.2815 -11.2772 -11.2740 -11.2727
-11.2679 -11.2555 -11.2515 -11.2465 -11.2300  -9.0116  -9.0115  -8.9776
 -8.9576  -6.6926  -6.6922  -6.6920  -6.6912  -6.6911  -6.6908  -6.6587
 -6.6579  -6.6567  -6.6388  -6.6379  -6.6369  -1.6521  -1.4770  -1.4084
 -1.4073  -1.3732  -1.2497  -1.2074  -1.1737  -1.1471  -1.0980  -1.0568
 -1.0441  -1.0342  -1.0065  -0.9962  -0.9762  -0.9601  -0.9473  -0.9409
 -0.8928  -0.8779  -0.8577  -0.8076  -0.8001  -0.7855  -0.7776  -0.7743
 -0.7588  -0.7347  -0.7239  -0.7168  -0.6977  -0.6944  -0.6840  -0.6826
 -0.6794  -0.6709  -0.6549  -0.6472  -0.6390  -0.6268  -0.6171  -0.6137
 -0.6124  -0.6110  -0.6046  -0.5930  -0.5786  -0.5681  -0.5575  -0.5556
 -0.5396  -0.5343  -0.5283  -0.5226  -0.5112  -0.5094  -0.5062  -0.4998
 -0.4909  -0.4812  -0.4708  -0.4687  -0.4651  -0.4618  -0.4544  -0.4431
 -0.4256  -0.3929  -0.3841  -0.3664  -0.3498  -0.3022  -0.2860  -0.2118

          Ground-State Mulliken Net Atomic Charges

     Atom                 Charge (a.u.)
  ----------------------------------------
      1 C                    -0.068782
      2 C                    -0.279788
      3 S                    -0.143384
      4 C                    -0.041407
      5 H                     0.190789
      6 C                    -0.055519
      7 C                     0.232901
      8 C                     0.226640
      9 C                    -0.071842
     10 C                    -0.057756
     11 O                    -0.335587
     12 O                    -0.344718
     13 C                    -0.082803
     14 H                     0.119653
     15 H                     0.092729
     16 H                     0.092227
     17 C                    -0.086922
     18 H                     0.123502
     19 H                     0.092167
     20 H                     0.088880
     21 C                    -0.274484
     22 S                    -0.109271
     23 C                     0.084774
     24 H                     0.195701
     25 C                    -0.186065
     26 S                     0.122810
     27 C                    -0.156398
     28 C                    -0.043665
     29 C                    -0.028302
     30 C                     0.350238
     31 C                    -0.121123
     32 S                     0.079312
     33 C                     0.460036
     34 O                    -0.439248
     35 O                    -0.296759
     36 F                    -0.216854
     37 C                    -0.054767
     38 H                     0.117691
     39 H                     0.085954
     40 H                     0.085788
     41 H                     0.219980
     42 H                     0.114734
     43 H                     0.112200
     44 H                     0.206737
  ----------------------------------------
  Sum of atomic charges =     0.000000

                    Cartesian Multipole Moments
 -----------------------------------------------------------------
    Charge (ESU x 10^10)
                 0.0000
    Dipole Moment (Debye)
         X       4.4755      Y       4.2486      Z       2.3214
       Tot       6.5931
    Quadrupole Moments (Debye-Ang)
        XX    -175.4945     XY      10.9106     YY    -196.0900
        XZ     -20.1608     YZ      -9.3779     ZZ    -194.6723

 Total job time:  330.44s(wall), 10767.49s(cpu)
        *  Thank you very much for using Q-Chem.  Have a nice day.  *
