 Q-Chem 5.4, Q-Chem, Inc., Pleasanton, CA (2021)
 Q-Chem 5.4.0 for Intel X86 EM64T Linux

User input:
--------------------------------------------------------------
$molecule
0 1
C	-0.092419	-8.519741	-0.255929
C	0.449364	-7.635967	0.666007
S	-0.885736	-7.651740	-1.592708
C	0.254813	-6.261894	0.332317
H	0.980526	-7.954738	1.571741
C	-0.458965	-6.079985	-0.904324
C	-0.767823	-4.798382	-1.385968
C	0.681909	-5.153542	1.118303
C	0.369139	-3.869626	0.638514
C	-0.342916	-3.688927	-0.600871
O	1.368544	-5.481075	2.248132
O	-1.458570	-4.479871	-2.520275
C	-1.405396	-5.356026	-3.639637
H	-1.820940	-4.790496	-4.495304
H	-2.023129	-6.268513	-3.490336
H	-0.361595	-5.658187	-3.873314
C	1.480048	-4.546999	3.314934
H	1.899255	-5.107564	4.171837
H	0.490123	-4.131473	3.601473
H	2.171521	-3.712085	3.068969
C	-0.537642	-2.314326	-0.930308
S	0.785807	-2.295487	1.334769
C	-0.000000	-1.435180	-0.000000
H	-1.066134	-1.993211	-1.836691
C	0.000000	0.000000	0.000000
S	0.579852	0.687566	1.510732
C	1.591625	1.895024	0.727629
C	0.583771	0.695758	-1.064665
C	1.475308	1.760606	-0.678287
C	0.542366	0.643841	-2.486150
C	1.355286	1.612843	-3.106916
S	2.154609	2.570627	-1.965735
C	1.522440	1.804778	-4.559972
O	0.924684	1.087757	-5.350277
O	2.349739	2.785679	-5.004375
F	-0.170780	-0.212144	-3.246290
C	2.588082	3.053936	-6.334976
H	3.298799	3.899999	-6.370268
H	1.655291	3.328371	-6.875609
H	3.026021	2.177385	-6.861878
H	2.183053	2.599759	1.321510
H	-0.866272	-9.146471	0.202590
H	0.682165	-9.150570	-0.707539
H	-0.931016	-1.444158	0.547293
$end

$rem
JOBTYPE		SP
EXCHANGE	HF
CORRELATION	pRIMP2
BASIS		cc-pvtz
METHOD		rimp2
AUX_BASIS	rimp2-cc-pvtz
SOLVENT_METHOD	PCM
PURECART	11111
SYMMETRY	false
MEM_TOTAL	110000
SCF_CONVERGENCE = 6
THRESH=10
GUI = 2
$end

$solvent
dielectric 4.90
$end
--------------------------------------------------------------

             Standard Nuclear Orientation (Angstroms)
    I     Atom           X                Y                Z
 ----------------------------------------------------------------
    1      C      -0.0924190000    -8.5197410000    -0.2559290000
    2      C       0.4493640000    -7.6359670000     0.6660070000
    3      S      -0.8857360000    -7.6517400000    -1.5927080000
    4      C       0.2548130000    -6.2618940000     0.3323170000
    5      H       0.9805260000    -7.9547380000     1.5717410000
    6      C      -0.4589650000    -6.0799850000    -0.9043240000
    7      C      -0.7678230000    -4.7983820000    -1.3859680000
    8      C       0.6819090000    -5.1535420000     1.1183030000
    9      C       0.3691390000    -3.8696260000     0.6385140000
   10      C      -0.3429160000    -3.6889270000    -0.6008710000
   11      O       1.3685440000    -5.4810750000     2.2481320000
   12      O      -1.4585700000    -4.4798710000    -2.5202750000
   13      C      -1.4053960000    -5.3560260000    -3.6396370000
   14      H      -1.8209400000    -4.7904960000    -4.4953040000
   15      H      -2.0231290000    -6.2685130000    -3.4903360000
   16      H      -0.3615950000    -5.6581870000    -3.8733140000
   17      C       1.4800480000    -4.5469990000     3.3149340000
   18      H       1.8992550000    -5.1075640000     4.1718370000
   19      H       0.4901230000    -4.1314730000     3.6014730000
   20      H       2.1715210000    -3.7120850000     3.0689690000
   21      C      -0.5376420000    -2.3143260000    -0.9303080000
   22      S       0.7858070000    -2.2954870000     1.3347690000
   23      C       0.0000000000    -1.4351800000     0.0000000000
   24      H      -1.0661340000    -1.9932110000    -1.8366910000
   25      C       0.0000000000     0.0000000000     0.0000000000
   26      S       0.5798520000     0.6875660000     1.5107320000
   27      C       1.5916250000     1.8950240000     0.7276290000
   28      C       0.5837710000     0.6957580000    -1.0646650000
   29      C       1.4753080000     1.7606060000    -0.6782870000
   30      C       0.5423660000     0.6438410000    -2.4861500000
   31      C       1.3552860000     1.6128430000    -3.1069160000
   32      S       2.1546090000     2.5706270000    -1.9657350000
   33      C       1.5224400000     1.8047780000    -4.5599720000
   34      O       0.9246840000     1.0877570000    -5.3502770000
   35      O       2.3497390000     2.7856790000    -5.0043750000
   36      F      -0.1707800000    -0.2121440000    -3.2462900000
   37      C       2.5880820000     3.0539360000    -6.3349760000
   38      H       3.2987990000     3.8999990000    -6.3702680000
   39      H       1.6552910000     3.3283710000    -6.8756090000
   40      H       3.0260210000     2.1773850000    -6.8618780000
   41      H       2.1830530000     2.5997590000     1.3215100000
   42      H      -0.8662720000    -9.1464710000     0.2025900000
   43      H       0.6821650000    -9.1505700000    -0.7075390000
   44      H      -0.9310160000    -1.4441580000     0.5472930000
 ----------------------------------------------------------------

   11   -2755.2892739657      7.21e-07  Convergence criterion met
 Total energy in the final basis set =    -2755.2892739657
        RIMP2         total energy =     -2760.3932264893 a.u.

                    Orbital Energies (a.u.)
 --------------------------------------------------------------

 Alpha MOs
 -- Occupied --
-92.0163 -91.9985 -91.9792 -91.9565 -26.3377 -20.6137 -20.5861 -20.5858
-20.5527 -11.4126 -11.3783 -11.3081 -11.3054 -11.3038 -11.3024 -11.3020
-11.2989 -11.2894 -11.2845 -11.2841 -11.2813 -11.2813 -11.2772 -11.2719
-11.2705 -11.2569 -11.2549 -11.2480 -11.2334  -9.0153  -9.0024  -8.9814
 -8.9591  -6.6960  -6.6954  -6.6950  -6.6837  -6.6830  -6.6817  -6.6624
 -6.6615  -6.6602  -6.6404  -6.6394  -6.6384  -1.6512  -1.4736  -1.4095
 -1.4076  -1.3692  -1.2416  -1.2084  -1.1744  -1.1450  -1.0977  -1.0522
 -1.0453  -1.0316  -1.0080  -0.9971  -0.9738  -0.9594  -0.9477  -0.9398
 -0.8936  -0.8734  -0.8621  -0.8078  -0.7981  -0.7856  -0.7761  -0.7712
 -0.7626  -0.7315  -0.7232  -0.7193  -0.6966  -0.6937  -0.6830  -0.6800
 -0.6746  -0.6653  -0.6558  -0.6476  -0.6373  -0.6284  -0.6184  -0.6133
 -0.6100  -0.6085  -0.5985  -0.5927  -0.5746  -0.5682  -0.5576  -0.5542
 -0.5433  -0.5371  -0.5313  -0.5228  -0.5143  -0.5086  -0.5061  -0.4992
 -0.4875  -0.4829  -0.4739  -0.4717  -0.4633  -0.4624  -0.4553  -0.4444
 -0.4292  -0.3959  -0.3846  -0.3684  -0.3510  -0.2954  -0.2856  -0.2146

          Ground-State Mulliken Net Atomic Charges

     Atom                 Charge (a.u.)
  ----------------------------------------
      1 C                    -0.069628
      2 C                    -0.270365
      3 S                    -0.138435
      4 C                    -0.042425
      5 H                     0.191950
      6 C                    -0.054738
      7 C                     0.224256
      8 C                     0.219553
      9 C                    -0.078753
     10 C                    -0.050587
     11 O                    -0.334961
     12 O                    -0.343256
     13 C                    -0.082337
     14 H                     0.120798
     15 H                     0.091483
     16 H                     0.092666
     17 C                    -0.088036
     18 H                     0.123829
     19 H                     0.091819
     20 H                     0.089098
     21 C                    -0.273865
     22 S                    -0.081488
     23 C                     0.055914
     24 H                     0.208223
     25 C                    -0.112101
     26 S                     0.091064
     27 C                    -0.199181
     28 C                    -0.028653
     29 C                    -0.024247
     30 C                     0.367418
     31 C                    -0.131735
     32 S                     0.049957
     33 C                     0.457196
     34 O                    -0.446915
     35 O                    -0.297568
     36 F                    -0.212317
     37 C                    -0.054737
     38 H                     0.117026
     39 H                     0.084879
     40 H                     0.084958
     41 H                     0.218196
     42 H                     0.115923
     43 H                     0.113654
     44 H                     0.206469
  ----------------------------------------
  Sum of atomic charges =     0.000000

                    Cartesian Multipole Moments
 -----------------------------------------------------------------
    Charge (ESU x 10^10)
                 0.0000
    Dipole Moment (Debye)
         X       2.2640      Y       3.8616      Z       3.4719
       Tot       5.6649
    Quadrupole Moments (Debye-Ang)
        XX    -193.6520     XY       6.7134     YY    -185.6655
        XZ      -3.8059     YZ     -11.5914     ZZ    -187.1804

 Total job time:  331.46s(wall), 10908.76s(cpu)
        *  Thank you very much for using Q-Chem.  Have a nice day.  *
