 Q-Chem 5.4, Q-Chem, Inc., Pleasanton, CA (2021)
 Q-Chem 5.4.0 for Intel X86 EM64T Linux

User input:
--------------------------------------------------------------
$molecule
0 1
C	0.255929	-8.519741	-0.092419
C	-0.666007	-7.635967	0.449364
S	1.592708	-7.651740	-0.885736
C	-0.332317	-6.261894	0.254813
H	-1.571741	-7.954738	0.980526
C	0.904324	-6.079985	-0.458965
C	1.385968	-4.798382	-0.767823
C	-1.118303	-5.153542	0.681909
C	-0.638514	-3.869626	0.369139
C	0.600871	-3.688927	-0.342916
O	-2.248132	-5.481075	1.368544
O	2.520275	-4.479871	-1.458570
C	3.639637	-5.356026	-1.405396
H	4.495304	-4.790496	-1.820940
H	3.490336	-6.268513	-2.023129
H	3.873314	-5.658187	-0.361595
C	-3.314934	-4.546999	1.480048
H	-4.171837	-5.107564	1.899255
H	-3.601473	-4.131473	0.490123
H	-3.068969	-3.712085	2.171521
C	0.930308	-2.314326	-0.537642
S	-1.334769	-2.295487	0.785807
C	-0.000000	-1.435180	-0.000000
H	1.836691	-1.993211	-1.066134
C	0.000000	0.000000	0.000000
S	0.451648	0.777811	1.510732
C	1.238377	2.142617	0.727629
C	0.454085	0.786559	-1.064665
C	1.147169	1.990043	-0.678287
C	0.422325	0.728240	-2.486150
C	1.054629	1.823683	-3.106916
S	1.675491	2.905718	-1.965735
C	1.185914	2.041729	-4.559972
O	0.721749	1.231802	-5.350277
O	1.830313	3.151386	-5.004375
F	-0.131347	-0.238577	-3.246290
C	2.018453	3.456956	-6.334976
H	2.571455	4.413580	-6.370268
H	1.052178	3.565244	-6.875609
H	2.601950	2.669768	-6.861878
H	1.698444	2.939346	1.321510
H	-0.202590	-9.146471	-0.866272
H	0.707539	-9.150570	0.682165
H	-0.547293	-1.444158	-0.931016
$end

$rem
JOBTYPE		SP
EXCHANGE	HF
CORRELATION	pRIMP2
BASIS		cc-pvtz
METHOD		rimp2
AUX_BASIS	rimp2-cc-pvtz
SOLVENT_METHOD	PCM
PURECART	11111
SYMMETRY	false
MEM_TOTAL	110000
SCF_CONVERGENCE = 6
THRESH=10
GUI = 2
$end

$solvent
dielectric 4.90
$end
--------------------------------------------------------------

             Standard Nuclear Orientation (Angstroms)
    I     Atom           X                Y                Z
 ----------------------------------------------------------------
    1      C       0.2559290000    -8.5197410000    -0.0924190000
    2      C      -0.6660070000    -7.6359670000     0.4493640000
    3      S       1.5927080000    -7.6517400000    -0.8857360000
    4      C      -0.3323170000    -6.2618940000     0.2548130000
    5      H      -1.5717410000    -7.9547380000     0.9805260000
    6      C       0.9043240000    -6.0799850000    -0.4589650000
    7      C       1.3859680000    -4.7983820000    -0.7678230000
    8      C      -1.1183030000    -5.1535420000     0.6819090000
    9      C      -0.6385140000    -3.8696260000     0.3691390000
   10      C       0.6008710000    -3.6889270000    -0.3429160000
   11      O      -2.2481320000    -5.4810750000     1.3685440000
   12      O       2.5202750000    -4.4798710000    -1.4585700000
   13      C       3.6396370000    -5.3560260000    -1.4053960000
   14      H       4.4953040000    -4.7904960000    -1.8209400000
   15      H       3.4903360000    -6.2685130000    -2.0231290000
   16      H       3.8733140000    -5.6581870000    -0.3615950000
   17      C      -3.3149340000    -4.5469990000     1.4800480000
   18      H      -4.1718370000    -5.1075640000     1.8992550000
   19      H      -3.6014730000    -4.1314730000     0.4901230000
   20      H      -3.0689690000    -3.7120850000     2.1715210000
   21      C       0.9303080000    -2.3143260000    -0.5376420000
   22      S      -1.3347690000    -2.2954870000     0.7858070000
   23      C       0.0000000000    -1.4351800000     0.0000000000
   24      H       1.8366910000    -1.9932110000    -1.0661340000
   25      C       0.0000000000     0.0000000000     0.0000000000
   26      S       0.4516480000     0.7778110000     1.5107320000
   27      C       1.2383770000     2.1426170000     0.7276290000
   28      C       0.4540850000     0.7865590000    -1.0646650000
   29      C       1.1471690000     1.9900430000    -0.6782870000
   30      C       0.4223250000     0.7282400000    -2.4861500000
   31      C       1.0546290000     1.8236830000    -3.1069160000
   32      S       1.6754910000     2.9057180000    -1.9657350000
   33      C       1.1859140000     2.0417290000    -4.5599720000
   34      O       0.7217490000     1.2318020000    -5.3502770000
   35      O       1.8303130000     3.1513860000    -5.0043750000
   36      F      -0.1313470000    -0.2385770000    -3.2462900000
   37      C       2.0184530000     3.4569560000    -6.3349760000
   38      H       2.5714550000     4.4135800000    -6.3702680000
   39      H       1.0521780000     3.5652440000    -6.8756090000
   40      H       2.6019500000     2.6697680000    -6.8618780000
   41      H       1.6984440000     2.9393460000     1.3215100000
   42      H      -0.2025900000    -9.1464710000    -0.8662720000
   43      H       0.7075390000    -9.1505700000     0.6821650000
   44      H      -0.5472930000    -1.4441580000    -0.9310160000
 ----------------------------------------------------------------

   11   -2755.3133948918      7.01e-07  Convergence criterion met
 Total energy in the final basis set =    -2755.3133948918
        RIMP2         total energy =     -2760.4104447527 a.u.

                    Orbital Energies (a.u.)
 --------------------------------------------------------------

 Alpha MOs
 -- Occupied --
-92.0124 -91.9990 -91.9767 -91.9577 -26.3386 -20.6142 -20.5868 -20.5864
-20.5532 -11.4132 -11.3796 -11.3087 -11.3064 -11.3058 -11.3032 -11.3022
-11.2991 -11.2897 -11.2883 -11.2840 -11.2825 -11.2824 -11.2795 -11.2727
-11.2723 -11.2577 -11.2573 -11.2491 -11.2359  -9.0113  -9.0029  -8.9789
 -8.9603  -6.6920  -6.6913  -6.6910  -6.6842  -6.6835  -6.6822  -6.6600
 -6.6591  -6.6579  -6.6415  -6.6406  -6.6395  -1.6517  -1.4740  -1.4099
 -1.4085  -1.3697  -1.2412  -1.2082  -1.1748  -1.1444  -1.0995  -1.0531
 -1.0455  -1.0305  -1.0083  -0.9973  -0.9735  -0.9595  -0.9485  -0.9413
 -0.8931  -0.8750  -0.8616  -0.8083  -0.7954  -0.7850  -0.7799  -0.7726
 -0.7614  -0.7336  -0.7205  -0.7188  -0.6977  -0.6929  -0.6866  -0.6804
 -0.6760  -0.6739  -0.6553  -0.6482  -0.6345  -0.6269  -0.6195  -0.6146
 -0.6111  -0.6086  -0.5982  -0.5941  -0.5820  -0.5670  -0.5576  -0.5549
 -0.5455  -0.5330  -0.5294  -0.5228  -0.5123  -0.5072  -0.5042  -0.5015
 -0.4881  -0.4845  -0.4739  -0.4694  -0.4635  -0.4630  -0.4599  -0.4456
 -0.4230  -0.4026  -0.3846  -0.3695  -0.3507  -0.2951  -0.2884  -0.2190

          Ground-State Mulliken Net Atomic Charges

     Atom                 Charge (a.u.)
  ----------------------------------------
      1 C                    -0.070182
      2 C                    -0.262158
      3 S                    -0.136029
      4 C                    -0.045718
      5 H                     0.193050
      6 C                    -0.053037
      7 C                     0.222356
      8 C                     0.229995
      9 C                    -0.078546
     10 C                    -0.035384
     11 O                    -0.335221
     12 O                    -0.343233
     13 C                    -0.082500
     14 H                     0.119893
     15 H                     0.092148
     16 H                     0.092516
     17 C                    -0.086825
     18 H                     0.123347
     19 H                     0.092593
     20 H                     0.089860
     21 C                    -0.292431
     22 S                    -0.077390
     23 C                     0.073671
     24 H                     0.208381
     25 C                    -0.068609
     26 S                     0.104558
     27 C                    -0.215169
     28 C                    -0.126817
     29 C                    -0.006199
     30 C                     0.384911
     31 C                    -0.136614
     32 S                     0.049801
     33 C                     0.459959
     34 O                    -0.446274
     35 O                    -0.297446
     36 F                    -0.214203
     37 C                    -0.054958
     38 H                     0.117097
     39 H                     0.085105
     40 H                     0.085117
     41 H                     0.215803
     42 H                     0.117168
     43 H                     0.114628
     44 H                     0.192986
  ----------------------------------------
  Sum of atomic charges =     0.000000

                    Cartesian Multipole Moments
 -----------------------------------------------------------------
    Charge (ESU x 10^10)
                -0.0000
    Dipole Moment (Debye)
         X       1.7102      Y       3.7541      Z       2.4747
       Tot       4.8106
    Quadrupole Moments (Debye-Ang)
        XX    -179.3690     XY      10.6642     YY    -178.6381
        XZ      -9.4117     YZ     -11.8299     ZZ    -204.5926

 Total job time:  325.01s(wall), 10439.43s(cpu)
        *  Thank you very much for using Q-Chem.  Have a nice day.  *
