 Q-Chem 5.4, Q-Chem, Inc., Pleasanton, CA (2021)
 Q-Chem 5.4.0 for Intel X86 EM64T Linux

User input:
--------------------------------------------------------------
$molecule
0 1
C	0.047927	-8.519741	-0.267851
C	0.056157	-7.635967	0.801461
S	0.029285	-7.651740	-1.822194
C	0.054516	-6.261894	0.415201
H	0.063290	-7.954738	1.851431
C	0.054687	-6.079985	-1.012650
C	0.028030	-4.798382	-1.584194
C	0.031399	-5.153542	1.309433
C	0.000427	-3.869626	0.737539
C	0.003462	-3.688927	-0.691828
O	0.061128	-5.481075	2.631211
O	-0.003021	-4.479871	-2.911907
C	0.602710	-5.356026	-3.854716
H	0.670671	-4.790496	-4.803517
H	-0.006913	-6.268513	-4.034285
H	1.623507	-5.658187	-3.535185
C	-0.375708	-4.546999	3.610841
H	-0.441115	-5.107564	4.562544
H	-1.376277	-4.131473	3.364029
H	0.346107	-3.712085	3.743566
C	-0.000458	-2.314326	-1.074491
S	0.013144	-2.295487	1.548848
C	0.000000	-1.435180	0.000000
H	-0.004953	-1.993211	-2.123688
C	0.000000	0.000000	0.000000
S	0.780044	0.447780	1.510732
C	2.143774	1.236372	0.727629
C	0.786529	0.454137	-1.064665
C	1.988499	1.149844	-0.678287
C	0.729864	0.419512	-2.486150
C	1.825177	1.052041	-3.106916
S	2.903877	1.678680	-1.965735
C	2.047896	1.175232	-4.559972
O	1.240953	0.705897	-5.350277
O	3.160791	1.814024	-5.004375
F	-0.233039	-0.140940	-3.246290
C	3.476510	1.984585	-6.334976
H	4.433735	2.536545	-6.370268
H	2.693835	2.561503	-6.875609
H	3.588239	1.011113	-6.861878
H	2.940569	1.696327	1.321510
H	-0.851509	-9.146471	-0.257688
H	0.944542	-9.150570	-0.271664
H	-1.079930	-1.444158	0.008462
$end

$rem
JOBTYPE		SP
EXCHANGE	HF
CORRELATION	pRIMP2
BASIS		cc-pvtz
METHOD		rimp2
AUX_BASIS	rimp2-cc-pvtz
SOLVENT_METHOD	PCM
PURECART	11111
SYMMETRY	false
MEM_TOTAL	110000
SCF_CONVERGENCE = 6
THRESH=10
GUI = 2
$end

$solvent
dielectric 4.90
$end
--------------------------------------------------------------

             Standard Nuclear Orientation (Angstroms)
    I     Atom           X                Y                Z
 ----------------------------------------------------------------
    1      C       0.0479270000    -8.5197410000    -0.2678510000
    2      C       0.0561570000    -7.6359670000     0.8014610000
    3      S       0.0292850000    -7.6517400000    -1.8221940000
    4      C       0.0545160000    -6.2618940000     0.4152010000
    5      H       0.0632900000    -7.9547380000     1.8514310000
    6      C       0.0546870000    -6.0799850000    -1.0126500000
    7      C       0.0280300000    -4.7983820000    -1.5841940000
    8      C       0.0313990000    -5.1535420000     1.3094330000
    9      C       0.0004270000    -3.8696260000     0.7375390000
   10      C       0.0034620000    -3.6889270000    -0.6918280000
   11      O       0.0611280000    -5.4810750000     2.6312110000
   12      O      -0.0030210000    -4.4798710000    -2.9119070000
   13      C       0.6027100000    -5.3560260000    -3.8547160000
   14      H       0.6706710000    -4.7904960000    -4.8035170000
   15      H      -0.0069130000    -6.2685130000    -4.0342850000
   16      H       1.6235070000    -5.6581870000    -3.5351850000
   17      C      -0.3757080000    -4.5469990000     3.6108410000
   18      H      -0.4411150000    -5.1075640000     4.5625440000
   19      H      -1.3762770000    -4.1314730000     3.3640290000
   20      H       0.3461070000    -3.7120850000     3.7435660000
   21      C      -0.0004580000    -2.3143260000    -1.0744910000
   22      S       0.0131440000    -2.2954870000     1.5488480000
   23      C       0.0000000000    -1.4351800000     0.0000000000
   24      H      -0.0049530000    -1.9932110000    -2.1236880000
   25      C       0.0000000000     0.0000000000     0.0000000000
   26      S       0.7800440000     0.4477800000     1.5107320000
   27      C       2.1437740000     1.2363720000     0.7276290000
   28      C       0.7865290000     0.4541370000    -1.0646650000
   29      C       1.9884990000     1.1498440000    -0.6782870000
   30      C       0.7298640000     0.4195120000    -2.4861500000
   31      C       1.8251770000     1.0520410000    -3.1069160000
   32      S       2.9038770000     1.6786800000    -1.9657350000
   33      C       2.0478960000     1.1752320000    -4.5599720000
   34      O       1.2409530000     0.7058970000    -5.3502770000
   35      O       3.1607910000     1.8140240000    -5.0043750000
   36      F      -0.2330390000    -0.1409400000    -3.2462900000
   37      C       3.4765100000     1.9845850000    -6.3349760000
   38      H       4.4337350000     2.5365450000    -6.3702680000
   39      H       2.6938350000     2.5615030000    -6.8756090000
   40      H       3.5882390000     1.0111130000    -6.8618780000
   41      H       2.9405690000     1.6963270000     1.3215100000
   42      H      -0.8515090000    -9.1464710000    -0.2576880000
   43      H       0.9445420000    -9.1505700000    -0.2716640000
   44      H      -1.0799300000    -1.4441580000     0.0084620000
 ----------------------------------------------------------------

   11   -2755.2376338754      8.85e-07  Convergence criterion met
 Total energy in the final basis set =    -2755.2376338754
        RIMP2         total energy =     -2760.3578561382 a.u.

                    Orbital Energies (a.u.)
 --------------------------------------------------------------

 Alpha MOs
 -- Occupied --
-92.0138 -92.0063 -91.9770 -91.9547 -26.3400 -20.6159 -20.5853 -20.5851
-20.5566 -11.4160 -11.3777 -11.3202 -11.3105 -11.3074 -11.3037 -11.3015
-11.2920 -11.2906 -11.2838 -11.2810 -11.2802 -11.2783 -11.2723 -11.2705
-11.2673 -11.2554 -11.2507 -11.2464 -11.2300  -9.0136  -9.0097  -8.9793
 -8.9573  -6.6941  -6.6931  -6.6931  -6.6909  -6.6903  -6.6890  -6.6603
 -6.6594  -6.6582  -6.6386  -6.6377  -6.6366  -1.6543  -1.4761  -1.4085
 -1.4070  -1.3722  -1.2481  -1.2074  -1.1736  -1.1464  -1.0968  -1.0559
 -1.0446  -1.0337  -1.0065  -0.9966  -0.9757  -0.9599  -0.9469  -0.9398
 -0.8937  -0.8767  -0.8582  -0.8080  -0.8017  -0.7866  -0.7750  -0.7732
 -0.7596  -0.7350  -0.7266  -0.7177  -0.6971  -0.6942  -0.6834  -0.6814
 -0.6780  -0.6668  -0.6555  -0.6471  -0.6406  -0.6269  -0.6169  -0.6124
 -0.6114  -0.6097  -0.6038  -0.5920  -0.5757  -0.5688  -0.5570  -0.5558
 -0.5394  -0.5356  -0.5291  -0.5222  -0.5158  -0.5101  -0.5058  -0.4991
 -0.4895  -0.4803  -0.4709  -0.4690  -0.4646  -0.4587  -0.4509  -0.4434
 -0.4315  -0.3892  -0.3858  -0.3662  -0.3464  -0.3003  -0.2843  -0.2094

          Ground-State Mulliken Net Atomic Charges

     Atom                 Charge (a.u.)
  ----------------------------------------
      1 C                    -0.068805
      2 C                    -0.280107
      3 S                    -0.143592
      4 C                    -0.042946
      5 H                     0.190762
      6 C                    -0.057157
      7 C                     0.233672
      8 C                     0.224825
      9 C                    -0.075936
     10 C                    -0.055826
     11 O                    -0.335002
     12 O                    -0.344521
     13 C                    -0.083380
     14 H                     0.120989
     15 H                     0.092415
     16 H                     0.091960
     17 C                    -0.088040
     18 H                     0.123846
     19 H                     0.092014
     20 H                     0.088406
     21 C                    -0.265741
     22 S                    -0.102946
     23 C                     0.045352
     24 H                     0.218338
     25 C                    -0.169223
     26 S                     0.114754
     27 C                    -0.163952
     28 C                    -0.018828
     29 C                    -0.033640
     30 C                     0.332541
     31 C                    -0.112809
     32 S                     0.075259
     33 C                     0.459490
     34 O                    -0.441568
     35 O                    -0.296879
     36 F                    -0.215389
     37 C                    -0.054752
     38 H                     0.117558
     39 H                     0.085637
     40 H                     0.085483
     41 H                     0.220117
     42 H                     0.114578
     43 H                     0.112105
     44 H                     0.210938
  ----------------------------------------
  Sum of atomic charges =     0.000000

                    Cartesian Multipole Moments
 -----------------------------------------------------------------
    Charge (ESU x 10^10)
                -0.0000
    Dipole Moment (Debye)
         X       4.2376      Y       4.1009      Z       2.9120
       Tot       6.5769
    Quadrupole Moments (Debye-Ang)
        XX    -184.2621     XY       8.8363     YY    -196.8112
        XZ     -16.2770     YZ      -9.8429     ZZ    -186.4971

 Total job time:  336.40s(wall), 10938.09s(cpu)
        *  Thank you very much for using Q-Chem.  Have a nice day.  *
