 Q-Chem 5.4, Q-Chem, Inc., Pleasanton, CA (2021)
 Q-Chem 5.4.0 for Intel X86 EM64T Linux

User input:
--------------------------------------------------------------
$molecule
0 1
C	0.235993	-8.519741	-0.135457
C	-0.577858	-7.635967	0.558188
S	1.414705	-7.651740	-1.148850
C	-0.283020	-6.261894	0.308648
H	-1.377597	-7.954738	1.238560
C	0.810887	-6.079985	-0.609026
C	1.231581	-4.798382	-0.996828
C	-0.982901	-5.153542	0.865740
C	-0.564713	-3.869626	0.474408
C	0.532196	-3.688927	-0.442046
O	-1.976332	-5.481075	1.738137
O	2.228709	-4.479871	-1.874052
C	3.340298	-5.356026	-2.016062
H	4.110807	-4.790496	-2.573877
H	3.085998	-6.268513	-2.598484
H	3.751679	-5.658187	-1.028695
C	-3.007565	-4.546999	2.033195
H	-3.778655	-5.107564	2.594833
H	-3.461650	-4.131473	1.108067
H	-2.645264	-3.712085	2.671451
C	0.822814	-2.314326	-0.691020
S	-1.178037	-2.295487	1.005649
C	-0.000000	-1.435180	-0.000000
H	1.623656	-1.993211	-1.368875
C	0.000000	0.000000	0.000000
S	0.158383	0.885376	1.510732
C	0.430876	2.436951	0.727629
C	0.157682	0.894430	-1.064665
C	0.397351	2.262384	-0.678287
C	0.147783	0.828765	-2.486150
C	0.367291	2.074406	-3.106916
S	0.580633	3.303533	-1.965735
C	0.416083	2.324204	-4.559972
O	0.256921	1.404367	-5.350277
O	0.642094	3.587338	-5.004375
F	-0.041828	-0.269113	-3.246290
C	0.714377	3.938827	-6.334976
H	0.906844	5.026898	-6.370268
H	-0.230661	3.710099	-6.875609
H	1.531918	3.398681	-6.861878
H	0.590699	3.342984	1.321510
H	-0.349939	-9.146471	-0.817932
H	0.815247	-9.150570	0.548939
H	-0.700647	-1.444158	-0.821835
$end

$rem
JOBTYPE		SP
EXCHANGE	HF
CORRELATION	pRIMP2
BASIS		cc-pvtz
METHOD		rimp2
AUX_BASIS	rimp2-cc-pvtz
SOLVENT_METHOD	PCM
PURECART	11111
SYMMETRY	false
MEM_TOTAL	110000
SCF_CONVERGENCE = 6
THRESH=10
GUI = 2
$end

$solvent
dielectric 4.90
$end
--------------------------------------------------------------

             Standard Nuclear Orientation (Angstroms)
    I     Atom           X                Y                Z
 ----------------------------------------------------------------
    1      C       0.2359930000    -8.5197410000    -0.1354570000
    2      C      -0.5778580000    -7.6359670000     0.5581880000
    3      S       1.4147050000    -7.6517400000    -1.1488500000
    4      C      -0.2830200000    -6.2618940000     0.3086480000
    5      H      -1.3775970000    -7.9547380000     1.2385600000
    6      C       0.8108870000    -6.0799850000    -0.6090260000
    7      C       1.2315810000    -4.7983820000    -0.9968280000
    8      C      -0.9829010000    -5.1535420000     0.8657400000
    9      C      -0.5647130000    -3.8696260000     0.4744080000
   10      C       0.5321960000    -3.6889270000    -0.4420460000
   11      O      -1.9763320000    -5.4810750000     1.7381370000
   12      O       2.2287090000    -4.4798710000    -1.8740520000
   13      C       3.3402980000    -5.3560260000    -2.0160620000
   14      H       4.1108070000    -4.7904960000    -2.5738770000
   15      H       3.0859980000    -6.2685130000    -2.5984840000
   16      H       3.7516790000    -5.6581870000    -1.0286950000
   17      C      -3.0075650000    -4.5469990000     2.0331950000
   18      H      -3.7786550000    -5.1075640000     2.5948330000
   19      H      -3.4616500000    -4.1314730000     1.1080670000
   20      H      -2.6452640000    -3.7120850000     2.6714510000
   21      C       0.8228140000    -2.3143260000    -0.6910200000
   22      S      -1.1780370000    -2.2954870000     1.0056490000
   23      C       0.0000000000    -1.4351800000     0.0000000000
   24      H       1.6236560000    -1.9932110000    -1.3688750000
   25      C       0.0000000000     0.0000000000     0.0000000000
   26      S       0.1583830000     0.8853760000     1.5107320000
   27      C       0.4308760000     2.4369510000     0.7276290000
   28      C       0.1576820000     0.8944300000    -1.0646650000
   29      C       0.3973510000     2.2623840000    -0.6782870000
   30      C       0.1477830000     0.8287650000    -2.4861500000
   31      C       0.3672910000     2.0744060000    -3.1069160000
   32      S       0.5806330000     3.3035330000    -1.9657350000
   33      C       0.4160830000     2.3242040000    -4.5599720000
   34      O       0.2569210000     1.4043670000    -5.3502770000
   35      O       0.6420940000     3.5873380000    -5.0043750000
   36      F      -0.0418280000    -0.2691130000    -3.2462900000
   37      C       0.7143770000     3.9388270000    -6.3349760000
   38      H       0.9068440000     5.0268980000    -6.3702680000
   39      H      -0.2306610000     3.7100990000    -6.8756090000
   40      H       1.5319180000     3.3986810000    -6.8618780000
   41      H       0.5906990000     3.3429840000     1.3215100000
   42      H      -0.3499390000    -9.1464710000    -0.8179320000
   43      H       0.8152470000    -9.1505700000     0.5489390000
   44      H      -0.7006470000    -1.4441580000    -0.8218350000
 ----------------------------------------------------------------

   11   -2755.3270165319      7.34e-07  Convergence criterion met
 Total energy in the final basis set =    -2755.3270165319
        RIMP2         total energy =     -2760.4187006559 a.u.

                    Orbital Energies (a.u.)
 --------------------------------------------------------------

 Alpha MOs
 -- Occupied --
-92.0142 -91.9954 -91.9807 -91.9586 -26.3385 -20.6125 -20.5880 -20.5871
-20.5504 -11.4108 -11.3796 -11.3184 -11.3094 -11.3091 -11.2979 -11.2976
-11.2911 -11.2888 -11.2852 -11.2842 -11.2838 -11.2828 -11.2826 -11.2737
-11.2735 -11.2594 -11.2589 -11.2502 -11.2384  -9.0127  -8.9995  -8.9828
 -8.9612  -6.6935  -6.6929  -6.6924  -6.6807  -6.6801  -6.6787  -6.6639
 -6.6630  -6.6617  -6.6425  -6.6415  -6.6405  -1.6515  -1.4722  -1.4113
 -1.4090  -1.3676  -1.2389  -1.2099  -1.1760  -1.1436  -1.1007  -1.0515
 -1.0470  -1.0290  -1.0097  -0.9990  -0.9722  -0.9601  -0.9493  -0.9411
 -0.8946  -0.8742  -0.8627  -0.8084  -0.7946  -0.7863  -0.7784  -0.7724
 -0.7624  -0.7341  -0.7201  -0.7190  -0.6985  -0.6935  -0.6866  -0.6790
 -0.6759  -0.6727  -0.6563  -0.6488  -0.6361  -0.6280  -0.6205  -0.6151
 -0.6112  -0.6067  -0.5953  -0.5935  -0.5820  -0.5681  -0.5590  -0.5530
 -0.5470  -0.5359  -0.5300  -0.5230  -0.5132  -0.5080  -0.5046  -0.5024
 -0.4863  -0.4849  -0.4770  -0.4708  -0.4623  -0.4616  -0.4612  -0.4470
 -0.4273  -0.4013  -0.3865  -0.3708  -0.3508  -0.2934  -0.2875  -0.2198

          Ground-State Mulliken Net Atomic Charges

     Atom                 Charge (a.u.)
  ----------------------------------------
      1 C                    -0.070497
      2 C                    -0.255451
      3 S                    -0.133565
      4 C                    -0.047238
      5 H                     0.193906
      6 C                    -0.052031
      7 C                     0.221893
      8 C                     0.232807
      9 C                    -0.081148
     10 C                    -0.041018
     11 O                    -0.334542
     12 O                    -0.342680
     13 C                    -0.082807
     14 H                     0.120429
     15 H                     0.092277
     16 H                     0.092446
     17 C                    -0.086909
     18 H                     0.123848
     19 H                     0.093141
     20 H                     0.090077
     21 C                    -0.281376
     22 S                    -0.076416
     23 C                     0.095040
     24 H                     0.207141
     25 C                    -0.090202
     26 S                     0.101557
     27 C                    -0.246704
     28 C                    -0.094547
     29 C                    -0.006926
     30 C                     0.396893
     31 C                    -0.145840
     32 S                     0.037454
     33 C                     0.461602
     34 O                    -0.451178
     35 O                    -0.297923
     36 F                    -0.215694
     37 C                    -0.055077
     38 H                     0.116710
     39 H                     0.084643
     40 H                     0.084530
     41 H                     0.214254
     42 H                     0.118074
     43 H                     0.115513
     44 H                     0.195535
  ----------------------------------------
  Sum of atomic charges =     0.000000

                    Cartesian Multipole Moments
 -----------------------------------------------------------------
    Charge (ESU x 10^10)
                 0.0000
    Dipole Moment (Debye)
         X       0.0589      Y       2.8812      Z       2.8723
       Tot       4.0688
    Quadrupole Moments (Debye-Ang)
        XX    -184.7347     XY       5.8281     YY    -172.4227
        XZ      -8.3636     YZ     -13.2414     ZZ    -204.2383

 Total job time:  325.67s(wall), 10421.74s(cpu)
        *  Thank you very much for using Q-Chem.  Have a nice day.  *
