 Q-Chem 5.4, Q-Chem, Inc., Pleasanton, CA (2021)
 Q-Chem 5.4.0 for Intel X86 EM64T Linux

User input:
--------------------------------------------------------------
$molecule
0 1
C	-0.255459	-8.519741	-0.093711
C	0.799036	-7.635967	0.083869
S	-1.789425	-7.651740	-0.345260
C	0.418360	-6.261894	0.018411
H	1.834294	-7.954738	0.259169
C	-0.987769	-6.079985	-0.229701
C	-1.555260	-4.798382	-0.302697
C	1.294992	-5.153542	0.196459
C	0.726408	-3.869626	0.127651
C	-0.680716	-3.688927	-0.123544
O	2.601852	-5.481075	0.396706
O	-2.868193	-4.479871	-0.502673
C	-3.691495	-5.356026	-1.262918
H	-4.614080	-4.790496	-1.494604
H	-3.974195	-6.268513	-0.693738
H	-3.199559	-5.658187	-2.212720
C	3.490743	-4.546999	0.997016
H	4.416630	-5.107564	1.226691
H	3.073934	-4.131473	1.939526
H	3.746794	-3.712085	0.309214
C	-1.058247	-2.314326	-0.186133
S	1.527599	-2.295487	0.256010
C	0.000000	-1.435180	0.000000
H	-2.092285	-1.993211	-0.363896
C	0.000000	0.000000	0.000000
S	0.234946	0.868203	1.510732
C	0.641630	2.390125	0.727629
C	0.235036	0.877284	-1.064665
C	0.593019	2.219143	-0.678287
C	0.219452	0.812732	-2.486150
C	0.546689	2.034501	-3.106916
S	0.866345	3.240357	-1.965735
C	0.617067	2.279095	-4.559972
O	0.378342	1.376631	-5.350277
O	0.952308	3.517725	-5.004375
F	-0.065123	-0.264443	-3.246290
C	1.054950	3.861577	-6.334976
H	1.341516	4.928732	-6.370268
H	0.093573	3.716085	-6.875609
H	1.822303	3.252232	-6.861878
H	0.879812	3.278780	1.321510
H	-0.401636	-9.146471	0.793825
H	-0.103519	-9.150570	-0.977367
H	-0.179195	-1.444158	1.064992
$end

$rem
JOBTYPE		SP
EXCHANGE	HF
CORRELATION	pRIMP2
BASIS		cc-pvtz
METHOD		rimp2
AUX_BASIS	rimp2-cc-pvtz
SOLVENT_METHOD	PCM
PURECART	11111
SYMMETRY	false
MEM_TOTAL	110000
SCF_CONVERGENCE = 6
THRESH=10
GUI = 2
$end

$solvent
dielectric 4.90
$end
--------------------------------------------------------------

             Standard Nuclear Orientation (Angstroms)
    I     Atom           X                Y                Z
 ----------------------------------------------------------------
    1      C      -0.2554590000    -8.5197410000    -0.0937110000
    2      C       0.7990360000    -7.6359670000     0.0838690000
    3      S      -1.7894250000    -7.6517400000    -0.3452600000
    4      C       0.4183600000    -6.2618940000     0.0184110000
    5      H       1.8342940000    -7.9547380000     0.2591690000
    6      C      -0.9877690000    -6.0799850000    -0.2297010000
    7      C      -1.5552600000    -4.7983820000    -0.3026970000
    8      C       1.2949920000    -5.1535420000     0.1964590000
    9      C       0.7264080000    -3.8696260000     0.1276510000
   10      C      -0.6807160000    -3.6889270000    -0.1235440000
   11      O       2.6018520000    -5.4810750000     0.3967060000
   12      O      -2.8681930000    -4.4798710000    -0.5026730000
   13      C      -3.6914950000    -5.3560260000    -1.2629180000
   14      H      -4.6140800000    -4.7904960000    -1.4946040000
   15      H      -3.9741950000    -6.2685130000    -0.6937380000
   16      H      -3.1995590000    -5.6581870000    -2.2127200000
   17      C       3.4907430000    -4.5469990000     0.9970160000
   18      H       4.4166300000    -5.1075640000     1.2266910000
   19      H       3.0739340000    -4.1314730000     1.9395260000
   20      H       3.7467940000    -3.7120850000     0.3092140000
   21      C      -1.0582470000    -2.3143260000    -0.1861330000
   22      S       1.5275990000    -2.2954870000     0.2560100000
   23      C       0.0000000000    -1.4351800000     0.0000000000
   24      H      -2.0922850000    -1.9932110000    -0.3638960000
   25      C       0.0000000000     0.0000000000     0.0000000000
   26      S       0.2349460000     0.8682030000     1.5107320000
   27      C       0.6416300000     2.3901250000     0.7276290000
   28      C       0.2350360000     0.8772840000    -1.0646650000
   29      C       0.5930190000     2.2191430000    -0.6782870000
   30      C       0.2194520000     0.8127320000    -2.4861500000
   31      C       0.5466890000     2.0345010000    -3.1069160000
   32      S       0.8663450000     3.2403570000    -1.9657350000
   33      C       0.6170670000     2.2790950000    -4.5599720000
   34      O       0.3783420000     1.3766310000    -5.3502770000
   35      O       0.9523080000     3.5177250000    -5.0043750000
   36      F      -0.0651230000    -0.2644430000    -3.2462900000
   37      C       1.0549500000     3.8615770000    -6.3349760000
   38      H       1.3415160000     4.9287320000    -6.3702680000
   39      H       0.0935730000     3.7160850000    -6.8756090000
   40      H       1.8223030000     3.2522320000    -6.8618780000
   41      H       0.8798120000     3.2787800000     1.3215100000
   42      H      -0.4016360000    -9.1464710000     0.7938250000
   43      H      -0.1035190000    -9.1505700000    -0.9773670000
   44      H      -0.1791950000    -1.4441580000     1.0649920000
 ----------------------------------------------------------------

   11   -2755.3230948301      7.35e-07  Convergence criterion met
 Total energy in the final basis set =    -2755.3230948301
        RIMP2         total energy =     -2760.4144567895 a.u.

                    Orbital Energies (a.u.)
 --------------------------------------------------------------

 Alpha MOs
 -- Occupied --
-92.0195 -91.9963 -91.9774 -91.9575 -26.3354 -20.6130 -20.5867 -20.5865
-20.5515 -11.4116 -11.3775 -11.3090 -11.3086 -11.3066 -11.3000 -11.2989
-11.2975 -11.2889 -11.2843 -11.2826 -11.2822 -11.2817 -11.2802 -11.2720
-11.2720 -11.2577 -11.2566 -11.2490 -11.2359  -9.0178  -9.0003  -8.9796
 -8.9601  -6.6985  -6.6980  -6.6975  -6.6815  -6.6809  -6.6795  -6.6607
 -6.6598  -6.6585  -6.6414  -6.6404  -6.6394  -1.6483  -1.4728  -1.4100
 -1.4084  -1.3683  -1.2383  -1.2086  -1.1748  -1.1442  -1.0988  -1.0503
 -1.0453  -1.0314  -1.0082  -0.9971  -0.9729  -0.9595  -0.9482  -0.9402
 -0.8929  -0.8718  -0.8642  -0.8081  -0.7940  -0.7846  -0.7776  -0.7741
 -0.7651  -0.7330  -0.7214  -0.7165  -0.6969  -0.6925  -0.6812  -0.6793
 -0.6729  -0.6639  -0.6559  -0.6481  -0.6315  -0.6305  -0.6194  -0.6143
 -0.6111  -0.6075  -0.5962  -0.5925  -0.5815  -0.5648  -0.5589  -0.5542
 -0.5480  -0.5357  -0.5283  -0.5224  -0.5128  -0.5071  -0.5037  -0.5010
 -0.4878  -0.4859  -0.4770  -0.4708  -0.4626  -0.4620  -0.4607  -0.4458
 -0.4229  -0.4029  -0.3849  -0.3697  -0.3509  -0.2928  -0.2889  -0.2205

          Ground-State Mulliken Net Atomic Charges

     Atom                 Charge (a.u.)
  ----------------------------------------
      1 C                    -0.070087
      2 C                    -0.262063
      3 S                    -0.136593
      4 C                    -0.042806
      5 H                     0.193078
      6 C                    -0.052903
      7 C                     0.227073
      8 C                     0.223392
      9 C                    -0.075707
     10 C                    -0.050644
     11 O                    -0.334872
     12 O                    -0.343443
     13 C                    -0.082318
     14 H                     0.119899
     15 H                     0.091591
     16 H                     0.093337
     17 C                    -0.086619
     18 H                     0.123105
     19 H                     0.091613
     20 H                     0.090547
     21 C                    -0.254811
     22 S                    -0.070086
     23 C                     0.051279
     24 H                     0.203913
     25 C                    -0.065859
     26 S                     0.104280
     27 C                    -0.233907
     28 C                    -0.087677
     29 C                     0.001627
     30 C                     0.378218
     31 C                    -0.152128
     32 S                     0.042794
     33 C                     0.459164
     34 O                    -0.447763
     35 O                    -0.297560
     36 F                    -0.211642
     37 C                    -0.054999
     38 H                     0.116727
     39 H                     0.084795
     40 H                     0.084863
     41 H                     0.217002
     42 H                     0.116841
     43 H                     0.114829
     44 H                     0.184521
  ----------------------------------------
  Sum of atomic charges =     0.000000

                    Cartesian Multipole Moments
 -----------------------------------------------------------------
    Charge (ESU x 10^10)
                -0.0000
    Dipole Moment (Debye)
         X       1.0187      Y       3.9709      Z       3.7100
       Tot       5.5290
    Quadrupole Moments (Debye-Ang)
        XX    -186.2516     XY       0.4922     YY    -176.4375
        XZ       4.9002     YZ     -11.1000     ZZ    -201.3187

 Total job time:  325.74s(wall), 10439.32s(cpu)
        *  Thank you very much for using Q-Chem.  Have a nice day.  *
