 Q-Chem 5.4, Q-Chem, Inc., Pleasanton, CA (2021)
 Q-Chem 5.4.0 for Intel X86 EM64T Linux

User input:
--------------------------------------------------------------
$molecule
0 1
C	0.255929	-8.519741	-0.092419
C	-0.666007	-7.635967	0.449364
S	1.592708	-7.651740	-0.885736
C	-0.332317	-6.261894	0.254813
H	-1.571741	-7.954738	0.980526
C	0.904324	-6.079985	-0.458965
C	1.385968	-4.798382	-0.767823
C	-1.118303	-5.153542	0.681909
C	-0.638514	-3.869626	0.369139
C	0.600871	-3.688927	-0.342916
O	-2.248132	-5.481075	1.368544
O	2.520275	-4.479871	-1.458570
C	3.639637	-5.356026	-1.405396
H	4.495304	-4.790496	-1.820940
H	3.490336	-6.268513	-2.023129
H	3.873314	-5.658187	-0.361595
C	-3.314934	-4.546999	1.480048
H	-4.171837	-5.107564	1.899255
H	-3.601473	-4.131473	0.490123
H	-3.068969	-3.712085	2.171521
C	0.930308	-2.314326	-0.537642
S	-1.334769	-2.295487	0.785807
C	0.000000	-1.435180	0.000000
H	1.836691	-1.993211	-1.066134
C	0.000000	0.000000	0.000000
S	0.002233	0.899428	1.510732
C	0.001157	2.474749	0.727629
C	-0.000030	0.908223	-1.064665
C	-0.001545	2.297013	-0.678287
C	0.001624	0.841837	-2.486150
C	0.001494	2.106670	-3.106916
S	-0.001841	3.354171	-1.965735
C	0.006168	2.361146	-4.559972
O	0.009152	1.427646	-5.350277
O	0.009405	3.644337	-5.004375
F	0.005539	-0.272288	-3.246290
C	0.019554	4.003038	-6.334976
H	0.020155	5.108000	-6.370268
H	-0.871409	3.613681	-6.875609
H	0.918470	3.613062	-6.861878
H	0.001222	3.394771	1.321510
H	-0.202590	-9.146471	-0.866272
H	0.707539	-9.150570	0.682165
H	-0.547293	-1.444158	-0.931016
$end

$rem
JOBTYPE		SP
EXCHANGE	HF
CORRELATION	pRIMP2
BASIS		cc-pvtz
METHOD		rimp2
AUX_BASIS	rimp2-cc-pvtz
SOLVENT_METHOD	PCM
PURECART	11111
SYMMETRY	false
MEM_TOTAL	110000
SCF_CONVERGENCE = 6
THRESH=10
GUI = 2
$end

$solvent
dielectric 4.90
$end
--------------------------------------------------------------

             Standard Nuclear Orientation (Angstroms)
    I     Atom           X                Y                Z
 ----------------------------------------------------------------
    1      C       0.2559290000    -8.5197410000    -0.0924190000
    2      C      -0.6660070000    -7.6359670000     0.4493640000
    3      S       1.5927080000    -7.6517400000    -0.8857360000
    4      C      -0.3323170000    -6.2618940000     0.2548130000
    5      H      -1.5717410000    -7.9547380000     0.9805260000
    6      C       0.9043240000    -6.0799850000    -0.4589650000
    7      C       1.3859680000    -4.7983820000    -0.7678230000
    8      C      -1.1183030000    -5.1535420000     0.6819090000
    9      C      -0.6385140000    -3.8696260000     0.3691390000
   10      C       0.6008710000    -3.6889270000    -0.3429160000
   11      O      -2.2481320000    -5.4810750000     1.3685440000
   12      O       2.5202750000    -4.4798710000    -1.4585700000
   13      C       3.6396370000    -5.3560260000    -1.4053960000
   14      H       4.4953040000    -4.7904960000    -1.8209400000
   15      H       3.4903360000    -6.2685130000    -2.0231290000
   16      H       3.8733140000    -5.6581870000    -0.3615950000
   17      C      -3.3149340000    -4.5469990000     1.4800480000
   18      H      -4.1718370000    -5.1075640000     1.8992550000
   19      H      -3.6014730000    -4.1314730000     0.4901230000
   20      H      -3.0689690000    -3.7120850000     2.1715210000
   21      C       0.9303080000    -2.3143260000    -0.5376420000
   22      S      -1.3347690000    -2.2954870000     0.7858070000
   23      C       0.0000000000    -1.4351800000     0.0000000000
   24      H       1.8366910000    -1.9932110000    -1.0661340000
   25      C       0.0000000000     0.0000000000     0.0000000000
   26      S       0.0022330000     0.8994280000     1.5107320000
   27      C       0.0011570000     2.4747490000     0.7276290000
   28      C      -0.0000300000     0.9082230000    -1.0646650000
   29      C      -0.0015450000     2.2970130000    -0.6782870000
   30      C       0.0016240000     0.8418370000    -2.4861500000
   31      C       0.0014940000     2.1066700000    -3.1069160000
   32      S      -0.0018410000     3.3541710000    -1.9657350000
   33      C       0.0061680000     2.3611460000    -4.5599720000
   34      O       0.0091520000     1.4276460000    -5.3502770000
   35      O       0.0094050000     3.6443370000    -5.0043750000
   36      F       0.0055390000    -0.2722880000    -3.2462900000
   37      C       0.0195540000     4.0030380000    -6.3349760000
   38      H       0.0201550000     5.1080000000    -6.3702680000
   39      H      -0.8714090000     3.6136810000    -6.8756090000
   40      H       0.9184700000     3.6130620000    -6.8618780000
   41      H       0.0012220000     3.3947710000     1.3215100000
   42      H      -0.2025900000    -9.1464710000    -0.8662720000
   43      H       0.7075390000    -9.1505700000     0.6821650000
   44      H      -0.5472930000    -1.4441580000    -0.9310160000
 ----------------------------------------------------------------

   11   -2755.3288949679      7.25e-07  Convergence criterion met
 Total energy in the final basis set =    -2755.3288949679
        RIMP2         total energy =     -2760.4197391970 a.u.

                    Orbital Energies (a.u.)
 --------------------------------------------------------------

 Alpha MOs
 -- Occupied --
-92.0141 -91.9958 -91.9801 -91.9584 -26.3387 -20.6129 -20.5876 -20.5871
-20.5510 -11.4113 -11.3796 -11.3174 -11.3092 -11.3084 -11.2986 -11.2977
-11.2923 -11.2890 -11.2850 -11.2838 -11.2837 -11.2829 -11.2826 -11.2733
-11.2730 -11.2587 -11.2586 -11.2499 -11.2377  -9.0126  -8.9998  -8.9822
 -8.9610  -6.6934  -6.6928  -6.6924  -6.6811  -6.6804  -6.6790  -6.6633
 -6.6624  -6.6611  -6.6422  -6.6413  -6.6402  -1.6517  -1.4726  -1.4110
 -1.4089  -1.3680  -1.2389  -1.2095  -1.1756  -1.1435  -1.1005  -1.0516
 -1.0466  -1.0292  -1.0095  -0.9985  -0.9724  -0.9600  -0.9490  -0.9409
 -0.8942  -0.8743  -0.8628  -0.8085  -0.7943  -0.7859  -0.7790  -0.7721
 -0.7625  -0.7340  -0.7199  -0.7194  -0.6983  -0.6933  -0.6872  -0.6793
 -0.6762  -0.6730  -0.6560  -0.6487  -0.6347  -0.6279  -0.6203  -0.6150
 -0.6114  -0.6071  -0.5954  -0.5932  -0.5825  -0.5672  -0.5586  -0.5526
 -0.5476  -0.5362  -0.5298  -0.5228  -0.5130  -0.5078  -0.5038  -0.5023
 -0.4865  -0.4851  -0.4768  -0.4709  -0.4624  -0.4620  -0.4614  -0.4468
 -0.4257  -0.4025  -0.3862  -0.3705  -0.3505  -0.2931  -0.2881  -0.2203

          Ground-State Mulliken Net Atomic Charges

     Atom                 Charge (a.u.)
  ----------------------------------------
      1 C                    -0.070395
      2 C                    -0.256846
      3 S                    -0.134363
      4 C                    -0.045072
      5 H                     0.193646
      6 C                    -0.051820
      7 C                     0.225243
      8 C                     0.228043
      9 C                    -0.078563
     10 C                    -0.050837
     11 O                    -0.334695
     12 O                    -0.342906
     13 C                    -0.082602
     14 H                     0.120278
     15 H                     0.092133
     16 H                     0.092497
     17 C                    -0.086928
     18 H                     0.123518
     19 H                     0.093162
     20 H                     0.090108
     21 C                    -0.258203
     22 S                    -0.072398
     23 C                     0.069291
     24 H                     0.206172
     25 C                    -0.092998
     26 S                     0.100155
     27 C                    -0.242643
     28 C                    -0.079582
     29 C                    -0.006884
     30 C                     0.388945
     31 C                    -0.141121
     32 S                     0.038151
     33 C                     0.460214
     34 O                    -0.450326
     35 O                    -0.297705
     36 F                    -0.215288
     37 C                    -0.055106
     38 H                     0.116822
     39 H                     0.084745
     40 H                     0.084611
     41 H                     0.214723
     42 H                     0.117835
     43 H                     0.115300
     44 H                     0.191689
  ----------------------------------------
  Sum of atomic charges =     0.000000

                    Cartesian Multipole Moments
 -----------------------------------------------------------------
    Charge (ESU x 10^10)
                -0.0000
    Dipole Moment (Debye)
         X      -0.4303      Y       3.2002      Z       2.7574
       Tot       4.2461
    Quadrupole Moments (Debye-Ang)
        XX    -183.5150     XY       3.5327     YY    -172.9119
        XZ      -3.6439     YZ     -12.9944     ZZ    -205.7164

 Total job time:  330.61s(wall), 10645.69s(cpu)
        *  Thank you very much for using Q-Chem.  Have a nice day.  *
