 Q-Chem 5.4, Q-Chem, Inc., Pleasanton, CA (2021)
 Q-Chem 5.4.0 for Intel X86 EM64T Linux

User input:
--------------------------------------------------------------
$molecule
0 1
C	0.272104	-8.519741	0.000687
C	-0.779533	-7.635967	0.194476
S	1.799596	-7.651740	-0.287581
C	-0.399427	-6.261894	0.125787
H	-1.812314	-7.954738	0.383826
C	1.006762	-6.079985	-0.121989
C	1.564994	-4.798382	-0.247488
C	-1.284087	-5.153542	0.258303
C	-0.726260	-3.869626	0.128493
C	0.681918	-3.688927	-0.116725
O	-2.580622	-5.481075	0.517104
O	2.867144	-4.479871	-0.508622
C	3.900814	-5.356026	-0.075811
H	4.847002	-4.790496	-0.173640
H	3.971794	-6.268513	-0.707354
H	3.763397	-5.658187	0.984963
C	-3.621225	-4.546999	0.257016
H	-4.569828	-5.107564	0.357864
H	-3.551910	-4.131473	-0.771211
H	-3.626592	-3.712085	0.990913
C	1.058088	-2.314326	-0.187034
S	-1.523035	-2.295487	0.281899
C	-0.000000	-1.435180	-0.000000
H	2.090565	-1.993211	-0.373653
C	0.000000	0.000000	0.000000
S	0.579852	0.687566	1.510732
C	1.591625	1.895024	0.727629
C	0.583771	0.695758	-1.064665
C	1.475308	1.760606	-0.678287
C	0.542366	0.643841	-2.486150
C	1.355286	1.612843	-3.106916
S	2.154609	2.570627	-1.965735
C	1.522440	1.804778	-4.559972
O	0.924684	1.087757	-5.350277
O	2.349739	2.785679	-5.004375
F	-0.170780	-0.212144	-3.246290
C	2.588082	3.053936	-6.334976
H	3.298799	3.899999	-6.370268
H	1.655291	3.328371	-6.875609
H	3.026021	2.177385	-6.861878
H	2.183053	2.599759	1.321510
H	0.105910	-9.146471	-0.883319
H	0.431555	-9.150570	0.883019
H	-0.195861	-1.444158	-1.062054
$end

$rem
JOBTYPE		SP
EXCHANGE	HF
CORRELATION	pRIMP2
BASIS		cc-pvtz
METHOD		rimp2
AUX_BASIS	rimp2-cc-pvtz
SOLVENT_METHOD	PCM
PURECART	11111
SYMMETRY	false
MEM_TOTAL	110000
SCF_CONVERGENCE = 6
THRESH=10
GUI = 2
$end

$solvent
dielectric 4.90
$end
--------------------------------------------------------------

             Standard Nuclear Orientation (Angstroms)
    I     Atom           X                Y                Z
 ----------------------------------------------------------------
    1      C       0.2721040000    -8.5197410000     0.0006870000
    2      C      -0.7795330000    -7.6359670000     0.1944760000
    3      S       1.7995960000    -7.6517400000    -0.2875810000
    4      C      -0.3994270000    -6.2618940000     0.1257870000
    5      H      -1.8123140000    -7.9547380000     0.3838260000
    6      C       1.0067620000    -6.0799850000    -0.1219890000
    7      C       1.5649940000    -4.7983820000    -0.2474880000
    8      C      -1.2840870000    -5.1535420000     0.2583030000
    9      C      -0.7262600000    -3.8696260000     0.1284930000
   10      C       0.6819180000    -3.6889270000    -0.1167250000
   11      O      -2.5806220000    -5.4810750000     0.5171040000
   12      O       2.8671440000    -4.4798710000    -0.5086220000
   13      C       3.9008140000    -5.3560260000    -0.0758110000
   14      H       4.8470020000    -4.7904960000    -0.1736400000
   15      H       3.9717940000    -6.2685130000    -0.7073540000
   16      H       3.7633970000    -5.6581870000     0.9849630000
   17      C      -3.6212250000    -4.5469990000     0.2570160000
   18      H      -4.5698280000    -5.1075640000     0.3578640000
   19      H      -3.5519100000    -4.1314730000    -0.7712110000
   20      H      -3.6265920000    -3.7120850000     0.9909130000
   21      C       1.0580880000    -2.3143260000    -0.1870340000
   22      S      -1.5230350000    -2.2954870000     0.2818990000
   23      C       0.0000000000    -1.4351800000     0.0000000000
   24      H       2.0905650000    -1.9932110000    -0.3736530000
   25      C       0.0000000000     0.0000000000     0.0000000000
   26      S       0.5798520000     0.6875660000     1.5107320000
   27      C       1.5916250000     1.8950240000     0.7276290000
   28      C       0.5837710000     0.6957580000    -1.0646650000
   29      C       1.4753080000     1.7606060000    -0.6782870000
   30      C       0.5423660000     0.6438410000    -2.4861500000
   31      C       1.3552860000     1.6128430000    -3.1069160000
   32      S       2.1546090000     2.5706270000    -1.9657350000
   33      C       1.5224400000     1.8047780000    -4.5599720000
   34      O       0.9246840000     1.0877570000    -5.3502770000
   35      O       2.3497390000     2.7856790000    -5.0043750000
   36      F      -0.1707800000    -0.2121440000    -3.2462900000
   37      C       2.5880820000     3.0539360000    -6.3349760000
   38      H       3.2987990000     3.8999990000    -6.3702680000
   39      H       1.6552910000     3.3283710000    -6.8756090000
   40      H       3.0260210000     2.1773850000    -6.8618780000
   41      H       2.1830530000     2.5997590000     1.3215100000
   42      H       0.1059100000    -9.1464710000    -0.8833190000
   43      H       0.4315550000    -9.1505700000     0.8830190000
   44      H      -0.1958610000    -1.4441580000    -1.0620540000
 ----------------------------------------------------------------

   11   -2755.3013622488      6.66e-07  Convergence criterion met
 Total energy in the final basis set =    -2755.3013622488
        RIMP2         total energy =     -2760.4018285367 a.u.

                    Orbital Energies (a.u.)
 --------------------------------------------------------------

 Alpha MOs
 -- Occupied --
-92.0122 -92.0022 -91.9717 -91.9571 -26.3389 -20.6155 -20.5866 -20.5848
-20.5556 -11.4152 -11.3794 -11.3111 -11.3080 -11.3079 -11.3040 -11.3000
-11.2951 -11.2918 -11.2903 -11.2827 -11.2824 -11.2802 -11.2760 -11.2715
-11.2708 -11.2567 -11.2560 -11.2484 -11.2344  -9.0112  -9.0060  -8.9740
 -8.9597  -6.6919  -6.6911  -6.6909  -6.6872  -6.6866  -6.6853  -6.6551
 -6.6542  -6.6530  -6.6409  -6.6400  -6.6390  -1.6521  -1.4755  -1.4089
 -1.4077  -1.3714  -1.2436  -1.2064  -1.1742  -1.1452  -1.0987  -1.0544
 -1.0440  -1.0319  -1.0071  -0.9955  -0.9747  -0.9588  -0.9480  -0.9411
 -0.8915  -0.8764  -0.8600  -0.8092  -0.7960  -0.7835  -0.7819  -0.7712
 -0.7604  -0.7333  -0.7209  -0.7186  -0.6974  -0.6926  -0.6868  -0.6815
 -0.6772  -0.6745  -0.6542  -0.6475  -0.6322  -0.6264  -0.6188  -0.6143
 -0.6105  -0.6101  -0.6007  -0.5943  -0.5807  -0.5656  -0.5561  -0.5553
 -0.5474  -0.5322  -0.5268  -0.5224  -0.5116  -0.5065  -0.5040  -0.5002
 -0.4898  -0.4845  -0.4719  -0.4674  -0.4652  -0.4638  -0.4579  -0.4444
 -0.4187  -0.4037  -0.3828  -0.3686  -0.3501  -0.2985  -0.2874  -0.2188

          Ground-State Mulliken Net Atomic Charges

     Atom                 Charge (a.u.)
  ----------------------------------------
      1 C                    -0.069922
      2 C                    -0.265935
      3 S                    -0.137424
      4 C                    -0.042913
      5 H                     0.192683
      6 C                    -0.052427
      7 C                     0.223758
      8 C                     0.224298
      9 C                    -0.078778
     10 C                    -0.041067
     11 O                    -0.335995
     12 O                    -0.343781
     13 C                    -0.082509
     14 H                     0.119432
     15 H                     0.092178
     16 H                     0.092513
     17 C                    -0.086438
     18 H                     0.122443
     19 H                     0.092244
     20 H                     0.089984
     21 C                    -0.275574
     22 S                    -0.087100
     23 C                     0.057680
     24 H                     0.207030
     25 C                    -0.087803
     26 S                     0.103665
     27 C                    -0.191508
     28 C                    -0.106057
     29 C                    -0.005017
     30 C                     0.362642
     31 C                    -0.124796
     32 S                     0.060289
     33 C                     0.458267
     34 O                    -0.442370
     35 O                    -0.296925
     36 F                    -0.211727
     37 C                    -0.054702
     38 H                     0.117374
     39 H                     0.085505
     40 H                     0.085458
     41 H                     0.217867
     42 H                     0.116673
     43 H                     0.114078
     44 H                     0.184710
  ----------------------------------------
  Sum of atomic charges =     0.000000

                    Cartesian Multipole Moments
 -----------------------------------------------------------------
    Charge (ESU x 10^10)
                 0.0000
    Dipole Moment (Debye)
         X       2.9985      Y       4.2760      Z       2.1693
       Tot       5.6552
    Quadrupole Moments (Debye-Ang)
        XX    -176.1699     XY      12.4592     YY    -183.1544
        XZ      -5.0414     YZ      -9.8922     ZZ    -203.4428

 Total job time:  334.04s(wall), 10878.43s(cpu)
        *  Thank you very much for using Q-Chem.  Have a nice day.  *
