 Q-Chem 5.4, Q-Chem, Inc., Pleasanton, CA (2021)
 Q-Chem 5.4.0 for Intel X86 EM64T Linux

User input:
--------------------------------------------------------------
$molecule
0 1
C	0.092419	-8.519741	0.255929
C	-0.449364	-7.635967	-0.666007
S	0.885736	-7.651740	1.592708
C	-0.254813	-6.261894	-0.332317
H	-0.980526	-7.954738	-1.571741
C	0.458965	-6.079985	0.904324
C	0.767823	-4.798382	1.385968
C	-0.681909	-5.153542	-1.118303
C	-0.369139	-3.869626	-0.638514
C	0.342916	-3.688927	0.600871
O	-1.368544	-5.481075	-2.248132
O	1.458570	-4.479871	2.520275
C	1.405396	-5.356026	3.639637
H	1.820940	-4.790496	4.495304
H	2.023129	-6.268513	3.490336
H	0.361595	-5.658187	3.873314
C	-1.480048	-4.546999	-3.314934
H	-1.899255	-5.107564	-4.171837
H	-0.490123	-4.131473	-3.601473
H	-2.171521	-3.712085	-3.068969
C	0.537642	-2.314326	0.930308
S	-0.785807	-2.295487	-1.334769
C	0.000000	-1.435180	0.000000
H	1.066134	-1.993211	1.836691
C	0.000000	0.000000	0.000000
S	0.002233	0.899428	1.510732
C	0.001157	2.474749	0.727629
C	-0.000030	0.908223	-1.064665
C	-0.001545	2.297013	-0.678287
C	0.001624	0.841837	-2.486150
C	0.001494	2.106670	-3.106916
S	-0.001841	3.354171	-1.965735
C	0.006168	2.361146	-4.559972
O	0.009152	1.427646	-5.350277
O	0.009405	3.644337	-5.004375
F	0.005539	-0.272288	-3.246290
C	0.019554	4.003038	-6.334976
H	0.020155	5.108000	-6.370268
H	-0.871409	3.613681	-6.875609
H	0.918470	3.613062	-6.861878
H	0.001222	3.394771	1.321510
H	0.866272	-9.146471	-0.202590
H	-0.682165	-9.150570	0.707539
H	0.931016	-1.444158	-0.547293
$end

$rem
JOBTYPE		SP
EXCHANGE	HF
CORRELATION	pRIMP2
BASIS		cc-pvtz
METHOD		rimp2
AUX_BASIS	rimp2-cc-pvtz
SOLVENT_METHOD	PCM
PURECART	11111
SYMMETRY	false
MEM_TOTAL	110000
SCF_CONVERGENCE = 6
THRESH=10
GUI = 2
$end

$solvent
dielectric 4.90
$end
--------------------------------------------------------------

             Standard Nuclear Orientation (Angstroms)
    I     Atom           X                Y                Z
 ----------------------------------------------------------------
    1      C       0.0924190000    -8.5197410000     0.2559290000
    2      C      -0.4493640000    -7.6359670000    -0.6660070000
    3      S       0.8857360000    -7.6517400000     1.5927080000
    4      C      -0.2548130000    -6.2618940000    -0.3323170000
    5      H      -0.9805260000    -7.9547380000    -1.5717410000
    6      C       0.4589650000    -6.0799850000     0.9043240000
    7      C       0.7678230000    -4.7983820000     1.3859680000
    8      C      -0.6819090000    -5.1535420000    -1.1183030000
    9      C      -0.3691390000    -3.8696260000    -0.6385140000
   10      C       0.3429160000    -3.6889270000     0.6008710000
   11      O      -1.3685440000    -5.4810750000    -2.2481320000
   12      O       1.4585700000    -4.4798710000     2.5202750000
   13      C       1.4053960000    -5.3560260000     3.6396370000
   14      H       1.8209400000    -4.7904960000     4.4953040000
   15      H       2.0231290000    -6.2685130000     3.4903360000
   16      H       0.3615950000    -5.6581870000     3.8733140000
   17      C      -1.4800480000    -4.5469990000    -3.3149340000
   18      H      -1.8992550000    -5.1075640000    -4.1718370000
   19      H      -0.4901230000    -4.1314730000    -3.6014730000
   20      H      -2.1715210000    -3.7120850000    -3.0689690000
   21      C       0.5376420000    -2.3143260000     0.9303080000
   22      S      -0.7858070000    -2.2954870000    -1.3347690000
   23      C       0.0000000000    -1.4351800000     0.0000000000
   24      H       1.0661340000    -1.9932110000     1.8366910000
   25      C       0.0000000000     0.0000000000     0.0000000000
   26      S       0.0022330000     0.8994280000     1.5107320000
   27      C       0.0011570000     2.4747490000     0.7276290000
   28      C      -0.0000300000     0.9082230000    -1.0646650000
   29      C      -0.0015450000     2.2970130000    -0.6782870000
   30      C       0.0016240000     0.8418370000    -2.4861500000
   31      C       0.0014940000     2.1066700000    -3.1069160000
   32      S      -0.0018410000     3.3541710000    -1.9657350000
   33      C       0.0061680000     2.3611460000    -4.5599720000
   34      O       0.0091520000     1.4276460000    -5.3502770000
   35      O       0.0094050000     3.6443370000    -5.0043750000
   36      F       0.0055390000    -0.2722880000    -3.2462900000
   37      C       0.0195540000     4.0030380000    -6.3349760000
   38      H       0.0201550000     5.1080000000    -6.3702680000
   39      H      -0.8714090000     3.6136810000    -6.8756090000
   40      H       0.9184700000     3.6130620000    -6.8618780000
   41      H       0.0012220000     3.3947710000     1.3215100000
   42      H       0.8662720000    -9.1464710000    -0.2025900000
   43      H      -0.6821650000    -9.1505700000     0.7075390000
   44      H       0.9310160000    -1.4441580000    -0.5472930000
 ----------------------------------------------------------------

   11   -2755.3249595982      7.18e-07  Convergence criterion met
 Total energy in the final basis set =    -2755.3249595982
        RIMP2         total energy =     -2760.4167162460 a.u.

                    Orbital Energies (a.u.)
 --------------------------------------------------------------

 Alpha MOs
 -- Occupied --
-92.0146 -91.9929 -91.9772 -91.9601 -26.3350 -20.6111 -20.5881 -20.5877
-20.5479 -11.4086 -11.3788 -11.3245 -11.3098 -11.3094 -11.2970 -11.2928
-11.2881 -11.2856 -11.2841 -11.2841 -11.2836 -11.2836 -11.2778 -11.2758
-11.2725 -11.2621 -11.2596 -11.2515 -11.2410  -9.0130  -8.9970  -8.9798
 -8.9627  -6.6938  -6.6932  -6.6927  -6.6783  -6.6776  -6.6763  -6.6608
 -6.6599  -6.6585  -6.6439  -6.6430  -6.6420  -1.6495  -1.4707  -1.4112
 -1.4098  -1.3657  -1.2379  -1.2099  -1.1772  -1.1429  -1.1009  -1.0507
 -1.0469  -1.0288  -1.0089  -0.9998  -0.9713  -0.9601  -0.9493  -0.9405
 -0.8947  -0.8731  -0.8630  -0.8121  -0.7931  -0.7861  -0.7778  -0.7668
 -0.7622  -0.7340  -0.7192  -0.7171  -0.6980  -0.6939  -0.6854  -0.6778
 -0.6752  -0.6714  -0.6563  -0.6492  -0.6359  -0.6302  -0.6217  -0.6156
 -0.6108  -0.6050  -0.5961  -0.5916  -0.5798  -0.5664  -0.5620  -0.5589
 -0.5496  -0.5326  -0.5282  -0.5209  -0.5139  -0.5087  -0.5045  -0.4998
 -0.4861  -0.4825  -0.4808  -0.4689  -0.4614  -0.4607  -0.4594  -0.4474
 -0.4306  -0.3998  -0.3849  -0.3718  -0.3508  -0.2930  -0.2844  -0.2191

          Ground-State Mulliken Net Atomic Charges

     Atom                 Charge (a.u.)
  ----------------------------------------
      1 C                    -0.070778
      2 C                    -0.247224
      3 S                    -0.131327
      4 C                    -0.048106
      5 H                     0.195228
      6 C                    -0.049117
      7 C                     0.223679
      8 C                     0.230039
      9 C                    -0.082742
     10 C                    -0.041087
     11 O                    -0.334729
     12 O                    -0.344038
     13 C                    -0.082557
     14 H                     0.120136
     15 H                     0.092064
     16 H                     0.092963
     17 C                    -0.087835
     18 H                     0.123819
     19 H                     0.094303
     20 H                     0.090002
     21 C                    -0.293049
     22 S                    -0.072538
     23 C                     0.126640
     24 H                     0.201601
     25 C                    -0.059362
     26 S                     0.091460
     27 C                    -0.264597
     28 C                    -0.119180
     29 C                    -0.005451
     30 C                     0.391631
     31 C                    -0.151339
     32 S                     0.030482
     33 C                     0.461500
     34 O                    -0.455254
     35 O                    -0.298528
     36 F                    -0.209663
     37 C                    -0.055168
     38 H                     0.116434
     39 H                     0.084151
     40 H                     0.084018
     41 H                     0.213193
     42 H                     0.119202
     43 H                     0.116805
     44 H                     0.204317
  ----------------------------------------
  Sum of atomic charges =     0.000000

                    Cartesian Multipole Moments
 -----------------------------------------------------------------
    Charge (ESU x 10^10)
                -0.0000
    Dipole Moment (Debye)
         X       0.4500      Y       1.8232      Z       2.7221
       Tot       3.3070
    Quadrupole Moments (Debye-Ang)
        XX    -200.8928     XY       2.1199     YY    -169.1447
        XZ       3.6893     YZ      -6.2505     ZZ    -189.4045

 Total job time:  332.02s(wall), 10755.72s(cpu)
        *  Thank you very much for using Q-Chem.  Have a nice day.  *
