 Q-Chem 5.4, Q-Chem, Inc., Pleasanton, CA (2021)
 Q-Chem 5.4.0 for Intel X86 EM64T Linux

User input:
--------------------------------------------------------------
$molecule
0 1
C	0.208886	-8.519741	-0.174379
C	-0.472151	-7.635967	0.650052
S	1.193717	-7.651740	-1.377058
C	-0.225125	-6.261894	0.353105
H	-1.141594	-7.954738	1.458961
C	0.692811	-6.079985	-0.740583
C	1.039773	-4.798382	-1.195546
C	-0.817634	-5.153542	1.023267
C	-0.473754	-3.869626	0.565262
C	0.447350	-3.688927	-0.527745
O	-1.644483	-5.481075	2.054917
O	1.869424	-4.479871	-2.232592
C	2.939466	-5.356026	-2.565470
H	3.601405	-4.790496	-3.248608
H	2.587892	-6.268513	-3.094885
H	3.516052	-5.658187	-1.664539
C	-2.608813	-4.546999	2.524564
H	-3.270661	-5.107564	3.211568
H	-3.216646	-4.131473	1.692342
H	-2.141184	-3.712085	3.090211
C	0.690319	-2.314326	-0.823402
S	-0.985511	-2.295487	1.194935
C	-0.000000	-1.435180	-0.000000
H	1.361286	-1.993211	-1.630024
C	0.000000	0.000000	0.000000
S	0.690437	0.576430	1.510732
C	1.896512	1.589852	0.727629
C	0.695720	0.583817	-1.064665
C	1.758621	1.477674	-0.678287
C	0.645928	0.539878	-2.486150
C	1.614763	1.352997	-3.106916
S	2.568261	2.157430	-1.965735
C	1.812707	1.512991	-4.559972
O	1.099523	0.910662	-5.350277
O	2.797769	2.335330	-5.004375
F	-0.205024	-0.179266	-3.246290
C	3.079074	2.558124	-6.334976
H	3.925910	3.267919	-6.370268
H	2.208109	2.990367	-6.875609
H	3.358147	1.618843	-6.861878
H	2.601331	2.181180	1.321510
H	-0.486655	-9.146471	-0.744739
H	0.898184	-9.150570	0.399033
H	-0.832713	-1.444158	-0.687683
$end

$rem
JOBTYPE		SP
EXCHANGE	HF
CORRELATION	pRIMP2
BASIS		cc-pvtz
METHOD		rimp2
AUX_BASIS	rimp2-cc-pvtz
SOLVENT_METHOD	PCM
PURECART	11111
SYMMETRY	false
MEM_TOTAL	110000
SCF_CONVERGENCE = 6
THRESH=10
GUI = 2
$end

$solvent
dielectric 4.90
$end
--------------------------------------------------------------

             Standard Nuclear Orientation (Angstroms)
    I     Atom           X                Y                Z
 ----------------------------------------------------------------
    1      C       0.2088860000    -8.5197410000    -0.1743790000
    2      C      -0.4721510000    -7.6359670000     0.6500520000
    3      S       1.1937170000    -7.6517400000    -1.3770580000
    4      C      -0.2251250000    -6.2618940000     0.3531050000
    5      H      -1.1415940000    -7.9547380000     1.4589610000
    6      C       0.6928110000    -6.0799850000    -0.7405830000
    7      C       1.0397730000    -4.7983820000    -1.1955460000
    8      C      -0.8176340000    -5.1535420000     1.0232670000
    9      C      -0.4737540000    -3.8696260000     0.5652620000
   10      C       0.4473500000    -3.6889270000    -0.5277450000
   11      O      -1.6444830000    -5.4810750000     2.0549170000
   12      O       1.8694240000    -4.4798710000    -2.2325920000
   13      C       2.9394660000    -5.3560260000    -2.5654700000
   14      H       3.6014050000    -4.7904960000    -3.2486080000
   15      H       2.5878920000    -6.2685130000    -3.0948850000
   16      H       3.5160520000    -5.6581870000    -1.6645390000
   17      C      -2.6088130000    -4.5469990000     2.5245640000
   18      H      -3.2706610000    -5.1075640000     3.2115680000
   19      H      -3.2166460000    -4.1314730000     1.6923420000
   20      H      -2.1411840000    -3.7120850000     3.0902110000
   21      C       0.6903190000    -2.3143260000    -0.8234020000
   22      S      -0.9855110000    -2.2954870000     1.1949350000
   23      C       0.0000000000    -1.4351800000     0.0000000000
   24      H       1.3612860000    -1.9932110000    -1.6300240000
   25      C       0.0000000000     0.0000000000     0.0000000000
   26      S       0.6904370000     0.5764300000     1.5107320000
   27      C       1.8965120000     1.5898520000     0.7276290000
   28      C       0.6957200000     0.5838170000    -1.0646650000
   29      C       1.7586210000     1.4776740000    -0.6782870000
   30      C       0.6459280000     0.5398780000    -2.4861500000
   31      C       1.6147630000     1.3529970000    -3.1069160000
   32      S       2.5682610000     2.1574300000    -1.9657350000
   33      C       1.8127070000     1.5129910000    -4.5599720000
   34      O       1.0995230000     0.9106620000    -5.3502770000
   35      O       2.7977690000     2.3353300000    -5.0043750000
   36      F      -0.2050240000    -0.1792660000    -3.2462900000
   37      C       3.0790740000     2.5581240000    -6.3349760000
   38      H       3.9259100000     3.2679190000    -6.3702680000
   39      H       2.2081090000     2.9903670000    -6.8756090000
   40      H       3.3581470000     1.6188430000    -6.8618780000
   41      H       2.6013310000     2.1811800000     1.3215100000
   42      H      -0.4866550000    -9.1464710000    -0.7447390000
   43      H       0.8981840000    -9.1505700000     0.3990330000
   44      H      -0.8327130000    -1.4441580000    -0.6876830000
 ----------------------------------------------------------------

   11   -2755.2790982256      6.95e-07  Convergence criterion met
 Total energy in the final basis set =    -2755.2790982256
        RIMP2         total energy =     -2760.3876685777 a.u.

                    Orbital Energies (a.u.)
 --------------------------------------------------------------

 Alpha MOs
 -- Occupied --
-92.0119 -92.0040 -91.9762 -91.9563 -26.3385 -20.6156 -20.5863 -20.5855
-20.5557 -11.4154 -11.3791 -11.3140 -11.3085 -11.3082 -11.3049 -11.3017
-11.2922 -11.2904 -11.2900 -11.2836 -11.2820 -11.2820 -11.2761 -11.2732
-11.2700 -11.2566 -11.2543 -11.2477 -11.2329  -9.0112  -9.0077  -8.9783
 -8.9589  -6.6919  -6.6910  -6.6908  -6.6889  -6.6882  -6.6870  -6.6595
 -6.6586  -6.6574  -6.6401  -6.6392  -6.6382  -1.6517  -1.4757  -1.4091
 -1.4079  -1.3716  -1.2458  -1.2077  -1.1742  -1.1461  -1.0986  -1.0552
 -1.0447  -1.0326  -1.0072  -0.9967  -0.9750  -0.9597  -0.9480  -0.9413
 -0.8929  -0.8765  -0.8594  -0.8077  -0.7979  -0.7851  -0.7784  -0.7739
 -0.7599  -0.7339  -0.7222  -0.7176  -0.6975  -0.6940  -0.6851  -0.6816
 -0.6775  -0.6724  -0.6551  -0.6477  -0.6371  -0.6266  -0.6182  -0.6141
 -0.6113  -0.6107  -0.6019  -0.5939  -0.5797  -0.5677  -0.5571  -0.5563
 -0.5414  -0.5334  -0.5290  -0.5229  -0.5116  -0.5072  -0.5066  -0.5004
 -0.4900  -0.4825  -0.4715  -0.4682  -0.4643  -0.4636  -0.4573  -0.4443
 -0.4247  -0.3973  -0.3839  -0.3680  -0.3510  -0.2988  -0.2872  -0.2148

          Ground-State Mulliken Net Atomic Charges

     Atom                 Charge (a.u.)
  ----------------------------------------
      1 C                    -0.069373
      2 C                    -0.271498
      3 S                    -0.140009
      4 C                    -0.043474
      5 H                     0.191921
      6 C                    -0.054377
      7 C                     0.227961
      8 C                     0.227614
      9 C                    -0.070686
     10 C                    -0.049408
     11 O                    -0.335369
     12 O                    -0.343847
     13 C                    -0.082676
     14 H                     0.119781
     15 H                     0.092408
     16 H                     0.092402
     17 C                    -0.087048
     18 H                     0.123747
     19 H                     0.092374
     20 H                     0.089470
     21 C                    -0.287927
     22 S                    -0.102782
     23 C                     0.092843
     24 H                     0.200783
     25 C                    -0.139702
     26 S                     0.116211
     27 C                    -0.182332
     28 C                    -0.073406
     29 C                    -0.020634
     30 C                     0.358372
     31 C                    -0.126073
     32 S                     0.066135
     33 C                     0.459201
     34 O                    -0.442277
     35 O                    -0.297183
     36 F                    -0.213776
     37 C                    -0.054672
     38 H                     0.117411
     39 H                     0.085524
     40 H                     0.085473
     41 H                     0.217787
     42 H                     0.115857
     43 H                     0.113413
     44 H                     0.201843
  ----------------------------------------
  Sum of atomic charges =     0.000000

                    Cartesian Multipole Moments
 -----------------------------------------------------------------
    Charge (ESU x 10^10)
                -0.0000
    Dipole Moment (Debye)
         X       3.3686      Y       4.0161      Z       2.3883
       Tot       5.7602
    Quadrupole Moments (Debye-Ang)
        XX    -176.7469     XY      11.8388     YY    -188.5860
        XZ     -17.6162     YZ     -10.5432     ZZ    -198.9611

 Total job time:  328.48s(wall), 10668.45s(cpu)
        *  Thank you very much for using Q-Chem.  Have a nice day.  *
