 Q-Chem 5.4, Q-Chem, Inc., Pleasanton, CA (2021)
 Q-Chem 5.4.0 for Intel X86 EM64T Linux

User input:
--------------------------------------------------------------
$molecule
0 1
C	-0.175432	-8.519741	0.208002
C	0.352097	-7.635967	-0.722164
S	-0.936458	-7.651740	1.563424
C	0.160388	-6.261894	-0.386833
H	0.870905	-7.954738	-1.635031
C	-0.553685	-6.079985	0.849637
C	-0.816372	-4.798382	1.357938
C	0.627524	-5.153542	-1.149702
C	0.368399	-3.869626	-0.638941
C	-0.348912	-3.688927	0.597409
O	1.262667	-5.481075	-2.309260
O	-1.453338	-4.479871	2.523296
C	-2.449320	-5.356026	3.036927
H	-2.982577	-4.790496	3.824632
H	-2.011155	-6.268513	3.497250
H	-3.173591	-5.658187	2.249807
C	2.130793	-4.546999	-2.939226
H	2.663289	-5.107564	-3.730721
H	2.873906	-4.131473	-2.225196
H	1.572045	-3.712085	-3.415077
C	-0.536849	-2.314326	0.930765
S	0.763041	-2.295487	-1.347913
C	-0.000000	-1.435180	-0.000000
H	-1.057554	-1.993211	1.841645
C	0.000000	0.000000	0.000000
S	0.451648	0.777811	1.510732
C	1.238377	2.142617	0.727629
C	0.454085	0.786559	-1.064665
C	1.147169	1.990043	-0.678287
C	0.422325	0.728240	-2.486150
C	1.054629	1.823683	-3.106916
S	1.675491	2.905718	-1.965735
C	1.185914	2.041729	-4.559972
O	0.721749	1.231802	-5.350277
O	1.830313	3.151386	-5.004375
F	-0.131347	-0.238577	-3.246290
C	2.018453	3.456956	-6.334976
H	2.571455	4.413580	-6.370268
H	1.052178	3.565244	-6.875609
H	2.601950	2.669768	-6.861878
H	1.698444	2.939346	1.321510
H	0.608584	-9.146471	0.648918
H	-0.953830	-9.150570	-0.237003
H	0.939477	-1.444158	0.532637
$end

$rem
JOBTYPE		SP
EXCHANGE	HF
CORRELATION	pRIMP2
BASIS		cc-pvtz
METHOD		rimp2
AUX_BASIS	rimp2-cc-pvtz
SOLVENT_METHOD	PCM
PURECART	11111
SYMMETRY	false
MEM_TOTAL	110000
SCF_CONVERGENCE = 6
THRESH=10
GUI = 2
$end

$solvent
dielectric 4.90
$end
--------------------------------------------------------------

             Standard Nuclear Orientation (Angstroms)
    I     Atom           X                Y                Z
 ----------------------------------------------------------------
    1      C      -0.1754320000    -8.5197410000     0.2080020000
    2      C       0.3520970000    -7.6359670000    -0.7221640000
    3      S      -0.9364580000    -7.6517400000     1.5634240000
    4      C       0.1603880000    -6.2618940000    -0.3868330000
    5      H       0.8709050000    -7.9547380000    -1.6350310000
    6      C      -0.5536850000    -6.0799850000     0.8496370000
    7      C      -0.8163720000    -4.7983820000     1.3579380000
    8      C       0.6275240000    -5.1535420000    -1.1497020000
    9      C       0.3683990000    -3.8696260000    -0.6389410000
   10      C      -0.3489120000    -3.6889270000     0.5974090000
   11      O       1.2626670000    -5.4810750000    -2.3092600000
   12      O      -1.4533380000    -4.4798710000     2.5232960000
   13      C      -2.4493200000    -5.3560260000     3.0369270000
   14      H      -2.9825770000    -4.7904960000     3.8246320000
   15      H      -2.0111550000    -6.2685130000     3.4972500000
   16      H      -3.1735910000    -5.6581870000     2.2498070000
   17      C       2.1307930000    -4.5469990000    -2.9392260000
   18      H       2.6632890000    -5.1075640000    -3.7307210000
   19      H       2.8739060000    -4.1314730000    -2.2251960000
   20      H       1.5720450000    -3.7120850000    -3.4150770000
   21      C      -0.5368490000    -2.3143260000     0.9307650000
   22      S       0.7630410000    -2.2954870000    -1.3479130000
   23      C       0.0000000000    -1.4351800000     0.0000000000
   24      H      -1.0575540000    -1.9932110000     1.8416450000
   25      C       0.0000000000     0.0000000000     0.0000000000
   26      S       0.4516480000     0.7778110000     1.5107320000
   27      C       1.2383770000     2.1426170000     0.7276290000
   28      C       0.4540850000     0.7865590000    -1.0646650000
   29      C       1.1471690000     1.9900430000    -0.6782870000
   30      C       0.4223250000     0.7282400000    -2.4861500000
   31      C       1.0546290000     1.8236830000    -3.1069160000
   32      S       1.6754910000     2.9057180000    -1.9657350000
   33      C       1.1859140000     2.0417290000    -4.5599720000
   34      O       0.7217490000     1.2318020000    -5.3502770000
   35      O       1.8303130000     3.1513860000    -5.0043750000
   36      F      -0.1313470000    -0.2385770000    -3.2462900000
   37      C       2.0184530000     3.4569560000    -6.3349760000
   38      H       2.5714550000     4.4135800000    -6.3702680000
   39      H       1.0521780000     3.5652440000    -6.8756090000
   40      H       2.6019500000     2.6697680000    -6.8618780000
   41      H       1.6984440000     2.9393460000     1.3215100000
   42      H       0.6085840000    -9.1464710000     0.6489180000
   43      H      -0.9538300000    -9.1505700000    -0.2370030000
   44      H       0.9394770000    -1.4441580000     0.5326370000
 ----------------------------------------------------------------

   11   -2755.3080884512      7.34e-07  Convergence criterion met
 Total energy in the final basis set =    -2755.3080884512
        RIMP2         total energy =     -2760.4042673794 a.u.

                    Orbital Energies (a.u.)
 --------------------------------------------------------------

 Alpha MOs
 -- Occupied --
-92.0103 -91.9934 -91.9767 -91.9599 -26.3341 -20.6118 -20.5878 -20.5877
-20.5493 -11.4097 -11.3789 -11.3180 -11.3094 -11.3094 -11.2969 -11.2959
-11.2917 -11.2884 -11.2842 -11.2835 -11.2834 -11.2832 -11.2804 -11.2755
-11.2700 -11.2613 -11.2594 -11.2514 -11.2410  -9.0097  -8.9975  -8.9791
 -8.9625  -6.6905  -6.6898  -6.6893  -6.6788  -6.6781  -6.6768  -6.6602
 -6.6593  -6.6580  -6.6437  -6.6428  -6.6418  -1.6482  -1.4715  -1.4111
 -1.4096  -1.3666  -1.2409  -1.2093  -1.1776  -1.1445  -1.0995  -1.0516
 -1.0464  -1.0312  -1.0078  -0.9990  -0.9720  -0.9599  -0.9495  -0.9407
 -0.8945  -0.8710  -0.8629  -0.8116  -0.7940  -0.7858  -0.7760  -0.7672
 -0.7658  -0.7332  -0.7211  -0.7159  -0.6972  -0.6941  -0.6837  -0.6783
 -0.6718  -0.6702  -0.6565  -0.6491  -0.6382  -0.6285  -0.6216  -0.6156
 -0.6112  -0.6059  -0.5966  -0.5933  -0.5788  -0.5666  -0.5638  -0.5589
 -0.5479  -0.5341  -0.5285  -0.5212  -0.5134  -0.5084  -0.5038  -0.5011
 -0.4852  -0.4835  -0.4786  -0.4664  -0.4622  -0.4610  -0.4602  -0.4479
 -0.4280  -0.4013  -0.3841  -0.3725  -0.3514  -0.2943  -0.2841  -0.2178

          Ground-State Mulliken Net Atomic Charges

     Atom                 Charge (a.u.)
  ----------------------------------------
      1 C                    -0.070877
      2 C                    -0.248074
      3 S                    -0.131630
      4 C                    -0.050958
      5 H                     0.195215
      6 C                    -0.045374
      7 C                     0.213728
      8 C                     0.228425
      9 C                    -0.076804
     10 C                    -0.010657
     11 O                    -0.334329
     12 O                    -0.343605
     13 C                    -0.082631
     14 H                     0.119978
     15 H                     0.091888
     16 H                     0.093210
     17 C                    -0.089878
     18 H                     0.124315
     19 H                     0.092142
     20 H                     0.092822
     21 C                    -0.336703
     22 S                    -0.089968
     23 C                     0.123716
     24 H                     0.201040
     25 C                     0.017752
     26 S                     0.082378
     27 C                    -0.246060
     28 C                    -0.164794
     29 C                    -0.006941
     30 C                     0.367228
     31 C                    -0.144648
     32 S                     0.037298
     33 C                     0.459068
     34 O                    -0.451383
     35 O                    -0.298351
     36 F                    -0.206510
     37 C                    -0.054967
     38 H                     0.116595
     39 H                     0.084550
     40 H                     0.084261
     41 H                     0.214466
     42 H                     0.119077
     43 H                     0.116930
     44 H                     0.209060
  ----------------------------------------
  Sum of atomic charges =     0.000000

                    Cartesian Multipole Moments
 -----------------------------------------------------------------
    Charge (ESU x 10^10)
                -0.0000
    Dipole Moment (Debye)
         X       2.2683      Y       1.7833      Z       3.1753
       Tot       4.2904
    Quadrupole Moments (Debye-Ang)
        XX    -187.1997     XY       4.5523     YY    -172.2285
        XZ     -14.6385     YZ      -5.1580     ZZ    -198.5325

 Total job time:  322.38s(wall), 10454.18s(cpu)
        *  Thank you very much for using Q-Chem.  Have a nice day.  *
