 Q-Chem 5.4, Q-Chem, Inc., Pleasanton, CA (2021)
 Q-Chem 5.4.0 for Intel X86 EM64T Linux

User input:
--------------------------------------------------------------
$molecule
0 1
C	1.432238	-8.398629	0.267851
C	1.270668	-7.529711	-0.801461
S	1.299871	-7.540578	1.822194
C	1.033679	-6.176229	-0.415201
H	1.318997	-7.844878	-1.851431
C	1.001923	-5.997113	1.012650
C	0.805626	-4.730351	1.584194
C	0.863981	-5.080701	-1.309433
C	0.671533	-3.810912	-0.737539
C	0.637166	-3.633485	0.691828
O	0.891580	-5.408420	-2.631211
O	0.780896	-4.411287	2.911907
C	0.336511	-5.379315	3.854716
H	0.171379	-4.834178	4.803517
H	1.095324	-6.172080	4.034285
H	-0.616308	-5.854145	3.535185
C	1.159578	-4.412679	-3.610841
H	1.321333	-4.953370	-4.562544
H	2.072791	-3.829719	-3.364029
H	0.303747	-3.715791	-3.743566
C	0.402329	-2.279087	1.074491
S	0.385663	-2.262896	-1.548848
C	0.249216	-1.413377	0.000000
H	0.350996	-1.962069	2.123688
C	0.000000	0.000000	0.000000
S	0.002233	0.899428	1.510732
C	0.001157	2.474749	0.727629
C	-0.000030	0.908223	-1.064665
C	-0.001545	2.297013	-0.678287
C	0.001624	0.841837	-2.486150
C	0.001494	2.106670	-3.106916
S	-0.001841	3.354171	-1.965735
C	0.006168	2.361146	-4.559972
O	0.009152	1.427646	-5.350277
O	0.009405	3.644337	-5.004375
F	0.005539	-0.272288	-3.246290
C	0.019554	4.003038	-6.334976
H	0.020155	5.108000	-6.370268
H	-0.871409	3.613681	-6.875609
H	0.918470	3.613062	-6.861878
H	0.001222	3.394771	1.321510
H	2.426840	-8.859653	0.257688
H	0.658787	-9.175570	0.271664
H	1.314298	-1.234691	-0.008462
$end

$rem
JOBTYPE		SP
EXCHANGE	HF
CORRELATION	pRIMP2
BASIS		cc-pvtz
METHOD		rimp2
AUX_BASIS	rimp2-cc-pvtz
SOLVENT_METHOD	PCM
PURECART	11111
SYMMETRY	false
MEM_TOTAL	110000
SCF_CONVERGENCE = 6
THRESH=10
GUI = 2
$end

$solvent
dielectric 4.90
$end
--------------------------------------------------------------

             Standard Nuclear Orientation (Angstroms)
    I     Atom           X                Y                Z
 ----------------------------------------------------------------
    1      C       1.4322380000    -8.3986290000     0.2678510000
    2      C       1.2706680000    -7.5297110000    -0.8014610000
    3      S       1.2998710000    -7.5405780000     1.8221940000
    4      C       1.0336790000    -6.1762290000    -0.4152010000
    5      H       1.3189970000    -7.8448780000    -1.8514310000
    6      C       1.0019230000    -5.9971130000     1.0126500000
    7      C       0.8056260000    -4.7303510000     1.5841940000
    8      C       0.8639810000    -5.0807010000    -1.3094330000
    9      C       0.6715330000    -3.8109120000    -0.7375390000
   10      C       0.6371660000    -3.6334850000     0.6918280000
   11      O       0.8915800000    -5.4084200000    -2.6312110000
   12      O       0.7808960000    -4.4112870000     2.9119070000
   13      C       0.3365110000    -5.3793150000     3.8547160000
   14      H       0.1713790000    -4.8341780000     4.8035170000
   15      H       1.0953240000    -6.1720800000     4.0342850000
   16      H      -0.6163080000    -5.8541450000     3.5351850000
   17      C       1.1595780000    -4.4126790000    -3.6108410000
   18      H       1.3213330000    -4.9533700000    -4.5625440000
   19      H       2.0727910000    -3.8297190000    -3.3640290000
   20      H       0.3037470000    -3.7157910000    -3.7435660000
   21      C       0.4023290000    -2.2790870000     1.0744910000
   22      S       0.3856630000    -2.2628960000    -1.5488480000
   23      C       0.2492160000    -1.4133770000     0.0000000000
   24      H       0.3509960000    -1.9620690000     2.1236880000
   25      C       0.0000000000     0.0000000000     0.0000000000
   26      S       0.0022330000     0.8994280000     1.5107320000
   27      C       0.0011570000     2.4747490000     0.7276290000
   28      C      -0.0000300000     0.9082230000    -1.0646650000
   29      C      -0.0015450000     2.2970130000    -0.6782870000
   30      C       0.0016240000     0.8418370000    -2.4861500000
   31      C       0.0014940000     2.1066700000    -3.1069160000
   32      S      -0.0018410000     3.3541710000    -1.9657350000
   33      C       0.0061680000     2.3611460000    -4.5599720000
   34      O       0.0091520000     1.4276460000    -5.3502770000
   35      O       0.0094050000     3.6443370000    -5.0043750000
   36      F       0.0055390000    -0.2722880000    -3.2462900000
   37      C       0.0195540000     4.0030380000    -6.3349760000
   38      H       0.0201550000     5.1080000000    -6.3702680000
   39      H      -0.8714090000     3.6136810000    -6.8756090000
   40      H       0.9184700000     3.6130620000    -6.8618780000
   41      H       0.0012220000     3.3947710000     1.3215100000
   42      H       2.4268400000    -8.8596530000     0.2576880000
   43      H       0.6587870000    -9.1755700000     0.2716640000
   44      H       1.3142980000    -1.2346910000    -0.0084620000
 ----------------------------------------------------------------

   11   -2755.3210116948      6.81e-07  Convergence criterion met
 Total energy in the final basis set =    -2755.3210116948
        RIMP2         total energy =     -2760.4124727854 a.u.

                    Orbital Energies (a.u.)
 --------------------------------------------------------------

 Alpha MOs
 -- Occupied --
-92.0129 -91.9910 -91.9761 -91.9614 -26.3355 -20.6103 -20.5888 -20.5883
-20.5465 -11.4075 -11.3793 -11.3276 -11.3116 -11.3100 -11.2962 -11.2904
-11.2878 -11.2877 -11.2843 -11.2839 -11.2819 -11.2808 -11.2774 -11.2751
-11.2711 -11.2639 -11.2606 -11.2529 -11.2444  -9.0116  -8.9952  -8.9789
 -8.9639  -6.6925  -6.6919  -6.6913  -6.6765  -6.6759  -6.6745  -6.6597
 -6.6590  -6.6574  -6.6451  -6.6442  -6.6432  -1.6516  -1.4698  -1.4121
 -1.4102  -1.3647  -1.2379  -1.2102  -1.1787  -1.1430  -1.1010  -1.0506
 -1.0473  -1.0291  -1.0085  -1.0008  -0.9711  -0.9602  -0.9499  -0.9402
 -0.8955  -0.8721  -0.8636  -0.8134  -0.7960  -0.7864  -0.7765  -0.7664
 -0.7624  -0.7341  -0.7210  -0.7183  -0.6984  -0.6956  -0.6844  -0.6772
 -0.6732  -0.6718  -0.6569  -0.6496  -0.6382  -0.6302  -0.6230  -0.6161
 -0.6109  -0.6041  -0.5973  -0.5909  -0.5771  -0.5685  -0.5646  -0.5596
 -0.5493  -0.5333  -0.5290  -0.5210  -0.5138  -0.5091  -0.5048  -0.4995
 -0.4840  -0.4818  -0.4804  -0.4668  -0.4602  -0.4600  -0.4580  -0.4486
 -0.4320  -0.3999  -0.3858  -0.3731  -0.3509  -0.2934  -0.2831  -0.2195

          Ground-State Mulliken Net Atomic Charges

     Atom                 Charge (a.u.)
  ----------------------------------------
      1 C                    -0.071362
      2 C                    -0.237302
      3 S                    -0.128756
      4 C                    -0.053198
      5 H                     0.196491
      6 C                    -0.046100
      7 C                     0.218198
      8 C                     0.237577
      9 C                    -0.078704
     10 C                    -0.018025
     11 O                    -0.334165
     12 O                    -0.344111
     13 C                    -0.082738
     14 H                     0.120266
     15 H                     0.091998
     16 H                     0.093115
     17 C                    -0.089291
     18 H                     0.124954
     19 H                     0.093186
     20 H                     0.092884
     21 C                    -0.342228
     22 S                    -0.092983
     23 C                     0.138909
     24 H                     0.195558
     25 C                     0.005430
     26 S                     0.076488
     27 C                    -0.274310
     28 C                    -0.137980
     29 C                    -0.018674
     30 C                     0.389106
     31 C                    -0.146774
     32 S                     0.027823
     33 C                     0.461147
     34 O                    -0.457254
     35 O                    -0.298828
     36 F                    -0.209809
     37 C                    -0.055176
     38 H                     0.116312
     39 H                     0.084004
     40 H                     0.083726
     41 H                     0.213970
     42 H                     0.120491
     43 H                     0.118209
     44 H                     0.217924
  ----------------------------------------
  Sum of atomic charges =     0.000000

                    Cartesian Multipole Moments
 -----------------------------------------------------------------
    Charge (ESU x 10^10)
                -0.0000
    Dipole Moment (Debye)
         X       0.9510      Y       1.0134      Z       2.9546
       Tot       3.2652
    Quadrupole Moments (Debye-Ang)
        XX    -199.0767     XY      -3.5535     YY    -165.4539
        XZ      -6.4658     YZ      -6.0282     ZZ    -190.9901

 Total job time:  332.94s(wall), 10561.26s(cpu)
        *  Thank you very much for using Q-Chem.  Have a nice day.  *
