 Q-Chem 5.4, Q-Chem, Inc., Pleasanton, CA (2021)
 Q-Chem 5.4.0 for Intel X86 EM64T Linux

User input:
--------------------------------------------------------------
$molecule
0 1
C	0.255929	-8.519741	-0.092419
C	-0.666007	-7.635967	0.449364
S	1.592708	-7.651740	-0.885736
C	-0.332317	-6.261894	0.254813
H	-1.571741	-7.954738	0.980526
C	0.904324	-6.079985	-0.458965
C	1.385968	-4.798382	-0.767823
C	-1.118303	-5.153542	0.681909
C	-0.638514	-3.869626	0.369139
C	0.600871	-3.688927	-0.342916
O	-2.248132	-5.481075	1.368544
O	2.520275	-4.479871	-1.458570
C	3.639637	-5.356026	-1.405396
H	4.495304	-4.790496	-1.820940
H	3.490336	-6.268513	-2.023129
H	3.873314	-5.658187	-0.361595
C	-3.314934	-4.546999	1.480048
H	-4.171837	-5.107564	1.899255
H	-3.601473	-4.131473	0.490123
H	-3.068969	-3.712085	2.171521
C	0.930308	-2.314326	-0.537642
S	-1.334769	-2.295487	0.785807
C	-0.000000	-1.435180	-0.000000
H	1.836691	-1.993211	-1.066134
C	0.000000	0.000000	0.000000
S	0.382139	0.814215	1.510732
C	1.046923	2.242395	0.727629
C	0.383804	0.823142	-1.064665
C	0.969360	2.082453	-0.678287
C	0.357247	0.762277	-2.486150
C	0.891671	1.908660	-3.106916
S	1.415865	3.040689	-1.965735
C	1.003453	2.137318	-4.559972
O	0.611644	1.290019	-5.350277
O	1.548687	3.298916	-5.004375
F	-0.110054	-0.249117	-3.246290
C	1.709479	3.619721	-6.334976
H	2.177001	4.620902	-6.370268
H	0.737443	3.643380	-6.875609
H	2.359363	2.886384	-6.861878
H	1.435800	3.076190	1.321510
H	-0.202590	-9.146471	-0.866272
H	0.707539	-9.150570	0.682165
H	-0.547293	-1.444158	-0.931016
$end

$rem
JOBTYPE		SP
EXCHANGE	HF
CORRELATION	pRIMP2
BASIS		cc-pvtz
METHOD		rimp2
AUX_BASIS	rimp2-cc-pvtz
SOLVENT_METHOD	PCM
PURECART	11111
SYMMETRY	false
MEM_TOTAL	110000
SCF_CONVERGENCE = 6
THRESH=10
GUI = 2
$end

$solvent
dielectric 4.90
$end
--------------------------------------------------------------

             Standard Nuclear Orientation (Angstroms)
    I     Atom           X                Y                Z
 ----------------------------------------------------------------
    1      C       0.2559290000    -8.5197410000    -0.0924190000
    2      C      -0.6660070000    -7.6359670000     0.4493640000
    3      S       1.5927080000    -7.6517400000    -0.8857360000
    4      C      -0.3323170000    -6.2618940000     0.2548130000
    5      H      -1.5717410000    -7.9547380000     0.9805260000
    6      C       0.9043240000    -6.0799850000    -0.4589650000
    7      C       1.3859680000    -4.7983820000    -0.7678230000
    8      C      -1.1183030000    -5.1535420000     0.6819090000
    9      C      -0.6385140000    -3.8696260000     0.3691390000
   10      C       0.6008710000    -3.6889270000    -0.3429160000
   11      O      -2.2481320000    -5.4810750000     1.3685440000
   12      O       2.5202750000    -4.4798710000    -1.4585700000
   13      C       3.6396370000    -5.3560260000    -1.4053960000
   14      H       4.4953040000    -4.7904960000    -1.8209400000
   15      H       3.4903360000    -6.2685130000    -2.0231290000
   16      H       3.8733140000    -5.6581870000    -0.3615950000
   17      C      -3.3149340000    -4.5469990000     1.4800480000
   18      H      -4.1718370000    -5.1075640000     1.8992550000
   19      H      -3.6014730000    -4.1314730000     0.4901230000
   20      H      -3.0689690000    -3.7120850000     2.1715210000
   21      C       0.9303080000    -2.3143260000    -0.5376420000
   22      S      -1.3347690000    -2.2954870000     0.7858070000
   23      C       0.0000000000    -1.4351800000     0.0000000000
   24      H       1.8366910000    -1.9932110000    -1.0661340000
   25      C       0.0000000000     0.0000000000     0.0000000000
   26      S       0.3821390000     0.8142150000     1.5107320000
   27      C       1.0469230000     2.2423950000     0.7276290000
   28      C       0.3838040000     0.8231420000    -1.0646650000
   29      C       0.9693600000     2.0824530000    -0.6782870000
   30      C       0.3572470000     0.7622770000    -2.4861500000
   31      C       0.8916710000     1.9086600000    -3.1069160000
   32      S       1.4158650000     3.0406890000    -1.9657350000
   33      C       1.0034530000     2.1373180000    -4.5599720000
   34      O       0.6116440000     1.2900190000    -5.3502770000
   35      O       1.5486870000     3.2989160000    -5.0043750000
   36      F      -0.1100540000    -0.2491170000    -3.2462900000
   37      C       1.7094790000     3.6197210000    -6.3349760000
   38      H       2.1770010000     4.6209020000    -6.3702680000
   39      H       0.7374430000     3.6433800000    -6.8756090000
   40      H       2.3593630000     2.8863840000    -6.8618780000
   41      H       1.4358000000     3.0761900000     1.3215100000
   42      H      -0.2025900000    -9.1464710000    -0.8662720000
   43      H       0.7075390000    -9.1505700000     0.6821650000
   44      H      -0.5472930000    -1.4441580000    -0.9310160000
 ----------------------------------------------------------------

   11   -2755.3182221146      7.16e-07  Convergence criterion met
 Total energy in the final basis set =    -2755.3182221146
        RIMP2         total energy =     -2760.4135014308 a.u.

                    Orbital Energies (a.u.)
 --------------------------------------------------------------

 Alpha MOs
 -- Occupied --
-92.0128 -91.9981 -91.9775 -91.9579 -26.3387 -20.6138 -20.5869 -20.5868
-20.5526 -11.4126 -11.3796 -11.3092 -11.3089 -11.3070 -11.3018 -11.2997
-11.2984 -11.2894 -11.2872 -11.2843 -11.2828 -11.2825 -11.2805 -11.2729
-11.2726 -11.2580 -11.2578 -11.2493 -11.2365  -9.0115  -9.0020  -8.9797
 -8.9605  -6.6922  -6.6916  -6.6912  -6.6833  -6.6826  -6.6813  -6.6608
 -6.6599  -6.6587  -6.6417  -6.6408  -6.6398  -1.6517  -1.4736  -1.4102
 -1.4086  -1.3692  -1.2405  -1.2085  -1.1750  -1.1441  -1.0998  -1.0527
 -1.0458  -1.0301  -1.0087  -0.9977  -0.9732  -0.9596  -0.9487  -0.9413
 -0.8934  -0.8748  -0.8620  -0.8083  -0.7951  -0.7853  -0.7798  -0.7725
 -0.7618  -0.7337  -0.7204  -0.7189  -0.6979  -0.6928  -0.6868  -0.6801
 -0.6759  -0.6738  -0.6555  -0.6483  -0.6346  -0.6271  -0.6197  -0.6147
 -0.6111  -0.6081  -0.5974  -0.5940  -0.5824  -0.5671  -0.5579  -0.5544
 -0.5460  -0.5335  -0.5295  -0.5228  -0.5125  -0.5074  -0.5040  -0.5018
 -0.4876  -0.4847  -0.4747  -0.4698  -0.4630  -0.4627  -0.4604  -0.4459
 -0.4236  -0.4027  -0.3850  -0.3699  -0.3507  -0.2943  -0.2885  -0.2194

          Ground-State Mulliken Net Atomic Charges

     Atom                 Charge (a.u.)
  ----------------------------------------
      1 C                    -0.070280
      2 C                    -0.260524
      3 S                    -0.135427
      4 C                    -0.046246
      5 H                     0.193247
      6 C                    -0.052845
      7 C                     0.221702
      8 C                     0.231238
      9 C                    -0.080674
     10 C                    -0.035535
     11 O                    -0.335108
     12 O                    -0.343112
     13 C                    -0.082509
     14 H                     0.120000
     15 H                     0.092130
     16 H                     0.092522
     17 C                    -0.086731
     18 H                     0.123375
     19 H                     0.092717
     20 H                     0.089882
     21 C                    -0.287859
     22 S                    -0.074246
     23 C                     0.073500
     24 H                     0.208499
     25 C                    -0.066724
     26 S                     0.103399
     27 C                    -0.223011
     28 C                    -0.124006
     29 C                    -0.005321
     30 C                     0.386606
     31 C                    -0.138488
     32 S                     0.046525
     33 C                     0.460203
     34 O                    -0.447350
     35 O                    -0.297539
     36 F                    -0.214611
     37 C                    -0.054912
     38 H                     0.116999
     39 H                     0.084999
     40 H                     0.084944
     41 H                     0.215333
     42 H                     0.117391
     43 H                     0.114854
     44 H                     0.192994
  ----------------------------------------
  Sum of atomic charges =     0.000000

                    Cartesian Multipole Moments
 -----------------------------------------------------------------
    Charge (ESU x 10^10)
                 0.0000
    Dipole Moment (Debye)
         X       1.2862      Y       3.6054      Z       2.5457
       Tot       4.5971
    Quadrupole Moments (Debye-Ang)
        XX    -180.6170     XY       9.7098     YY    -176.8024
        XZ      -8.4667     YZ     -12.1948     ZZ    -204.9257

 Total job time:  327.88s(wall), 10270.08s(cpu)
        *  Thank you very much for using Q-Chem.  Have a nice day.  *
