 Q-Chem 5.4, Q-Chem, Inc., Pleasanton, CA (2021)
 Q-Chem 5.4.0 for Intel X86 EM64T Linux

User input:
--------------------------------------------------------------
$molecule
0 1
C	-0.235993	-8.519741	0.135457
C	0.577858	-7.635967	-0.558188
S	-1.414705	-7.651740	1.148850
C	0.283020	-6.261894	-0.308648
H	1.377597	-7.954738	-1.238560
C	-0.810887	-6.079985	0.609026
C	-1.231581	-4.798382	0.996828
C	0.982901	-5.153542	-0.865740
C	0.564713	-3.869626	-0.474408
C	-0.532196	-3.688927	0.442046
O	1.976332	-5.481075	-1.738137
O	-2.228709	-4.479871	1.874052
C	-3.340298	-5.356026	2.016062
H	-4.110807	-4.790496	2.573877
H	-3.085998	-6.268513	2.598484
H	-3.751679	-5.658187	1.028695
C	3.007565	-4.546999	-2.033195
H	3.778655	-5.107564	-2.594833
H	3.461650	-4.131473	-1.108067
H	2.645264	-3.712085	-2.671451
C	-0.822814	-2.314326	0.691020
S	1.178037	-2.295487	-1.005649
C	-0.000000	-1.435180	-0.000000
H	-1.623656	-1.993211	1.368875
C	0.000000	0.000000	0.000000
S	0.158383	0.885376	1.510732
C	0.430876	2.436951	0.727629
C	0.157682	0.894430	-1.064665
C	0.397351	2.262384	-0.678287
C	0.147783	0.828765	-2.486150
C	0.367291	2.074406	-3.106916
S	0.580633	3.303533	-1.965735
C	0.416083	2.324204	-4.559972
O	0.256921	1.404367	-5.350277
O	0.642094	3.587338	-5.004375
F	-0.041828	-0.269113	-3.246290
C	0.714377	3.938827	-6.334976
H	0.906844	5.026898	-6.370268
H	-0.230661	3.710099	-6.875609
H	1.531918	3.398681	-6.861878
H	0.590699	3.342984	1.321510
H	0.349939	-9.146471	0.817932
H	-0.815247	-9.150570	-0.548939
H	0.700647	-1.444158	0.821835
$end

$rem
JOBTYPE		SP
EXCHANGE	HF
CORRELATION	pRIMP2
BASIS		cc-pvtz
METHOD		rimp2
AUX_BASIS	rimp2-cc-pvtz
SOLVENT_METHOD	PCM
PURECART	11111
SYMMETRY	false
MEM_TOTAL	110000
SCF_CONVERGENCE = 6
THRESH=10
GUI = 2
$end

$solvent
dielectric 4.90
$end
--------------------------------------------------------------

             Standard Nuclear Orientation (Angstroms)
    I     Atom           X                Y                Z
 ----------------------------------------------------------------
    1      C      -0.2359930000    -8.5197410000     0.1354570000
    2      C       0.5778580000    -7.6359670000    -0.5581880000
    3      S      -1.4147050000    -7.6517400000     1.1488500000
    4      C       0.2830200000    -6.2618940000    -0.3086480000
    5      H       1.3775970000    -7.9547380000    -1.2385600000
    6      C      -0.8108870000    -6.0799850000     0.6090260000
    7      C      -1.2315810000    -4.7983820000     0.9968280000
    8      C       0.9829010000    -5.1535420000    -0.8657400000
    9      C       0.5647130000    -3.8696260000    -0.4744080000
   10      C      -0.5321960000    -3.6889270000     0.4420460000
   11      O       1.9763320000    -5.4810750000    -1.7381370000
   12      O      -2.2287090000    -4.4798710000     1.8740520000
   13      C      -3.3402980000    -5.3560260000     2.0160620000
   14      H      -4.1108070000    -4.7904960000     2.5738770000
   15      H      -3.0859980000    -6.2685130000     2.5984840000
   16      H      -3.7516790000    -5.6581870000     1.0286950000
   17      C       3.0075650000    -4.5469990000    -2.0331950000
   18      H       3.7786550000    -5.1075640000    -2.5948330000
   19      H       3.4616500000    -4.1314730000    -1.1080670000
   20      H       2.6452640000    -3.7120850000    -2.6714510000
   21      C      -0.8228140000    -2.3143260000     0.6910200000
   22      S       1.1780370000    -2.2954870000    -1.0056490000
   23      C       0.0000000000    -1.4351800000     0.0000000000
   24      H      -1.6236560000    -1.9932110000     1.3688750000
   25      C       0.0000000000     0.0000000000     0.0000000000
   26      S       0.1583830000     0.8853760000     1.5107320000
   27      C       0.4308760000     2.4369510000     0.7276290000
   28      C       0.1576820000     0.8944300000    -1.0646650000
   29      C       0.3973510000     2.2623840000    -0.6782870000
   30      C       0.1477830000     0.8287650000    -2.4861500000
   31      C       0.3672910000     2.0744060000    -3.1069160000
   32      S       0.5806330000     3.3035330000    -1.9657350000
   33      C       0.4160830000     2.3242040000    -4.5599720000
   34      O       0.2569210000     1.4043670000    -5.3502770000
   35      O       0.6420940000     3.5873380000    -5.0043750000
   36      F      -0.0418280000    -0.2691130000    -3.2462900000
   37      C       0.7143770000     3.9388270000    -6.3349760000
   38      H       0.9068440000     5.0268980000    -6.3702680000
   39      H      -0.2306610000     3.7100990000    -6.8756090000
   40      H       1.5319180000     3.3986810000    -6.8618780000
   41      H       0.5906990000     3.3429840000     1.3215100000
   42      H       0.3499390000    -9.1464710000     0.8179320000
   43      H      -0.8152470000    -9.1505700000    -0.5489390000
   44      H       0.7006470000    -1.4441580000     0.8218350000
 ----------------------------------------------------------------

   11   -2755.3240265873      8.06e-07  Convergence criterion met
 Total energy in the final basis set =    -2755.3240265873
        RIMP2         total energy =     -2760.4141240345 a.u.

                    Orbital Energies (a.u.)
 --------------------------------------------------------------

 Alpha MOs
 -- Occupied --
-92.0156 -91.9936 -91.9783 -91.9588 -26.3342 -20.6120 -20.5876 -20.5870
-20.5495 -11.4099 -11.3784 -11.3188 -11.3093 -11.3079 -11.2970 -11.2963
-11.2916 -11.2884 -11.2842 -11.2835 -11.2832 -11.2831 -11.2802 -11.2739
-11.2729 -11.2594 -11.2586 -11.2501 -11.2380  -9.0144  -8.9978  -8.9805
 -8.9614  -6.6951  -6.6946  -6.6940  -6.6791  -6.6784  -6.6770  -6.6616
 -6.6607  -6.6594  -6.6426  -6.6417  -6.6406  -1.6474  -1.4716  -1.4105
 -1.4093  -1.3668  -1.2384  -1.2098  -1.1761  -1.1439  -1.0997  -1.0503
 -1.0461  -1.0309  -1.0084  -0.9985  -0.9719  -0.9599  -0.9488  -0.9406
 -0.8939  -0.8709  -0.8647  -0.8105  -0.7924  -0.7856  -0.7765  -0.7708
 -0.7658  -0.7331  -0.7209  -0.7154  -0.6972  -0.6925  -0.6828  -0.6783
 -0.6714  -0.6666  -0.6565  -0.6488  -0.6375  -0.6287  -0.6205  -0.6151
 -0.6107  -0.6061  -0.5955  -0.5927  -0.5810  -0.5652  -0.5634  -0.5576
 -0.5496  -0.5342  -0.5279  -0.5214  -0.5130  -0.5080  -0.5033  -0.5016
 -0.4861  -0.4845  -0.4779  -0.4696  -0.4618  -0.4610  -0.4607  -0.4471
 -0.4267  -0.4015  -0.3857  -0.3711  -0.3515  -0.2930  -0.2864  -0.2193

          Ground-State Mulliken Net Atomic Charges

     Atom                 Charge (a.u.)
  ----------------------------------------
      1 C                    -0.070194
      2 C                    -0.256220
      3 S                    -0.134433
      4 C                    -0.046507
      5 H                     0.194062
      6 C                    -0.048289
      7 C                     0.221048
      8 C                     0.226462
      9 C                    -0.073736
     10 C                    -0.024686
     11 O                    -0.334742
     12 O                    -0.343782
     13 C                    -0.082717
     14 H                     0.119893
     15 H                     0.092146
     16 H                     0.093211
     17 C                    -0.087556
     18 H                     0.123662
     19 H                     0.091961
     20 H                     0.091712
     21 C                    -0.306727
     22 S                    -0.078234
     23 C                     0.118628
     24 H                     0.203027
     25 C                    -0.063754
     26 S                     0.095039
     27 C                    -0.246795
     28 C                    -0.125698
     29 C                    -0.004379
     30 C                     0.399014
     31 C                    -0.152456
     32 S                     0.033158
     33 C                     0.461438
     34 O                    -0.450818
     35 O                    -0.298055
     36 F                    -0.209913
     37 C                    -0.055055
     38 H                     0.116499
     39 H                     0.084604
     40 H                     0.084404
     41 H                     0.214986
     42 H                     0.117794
     43 H                     0.115662
     44 H                     0.196337
  ----------------------------------------
  Sum of atomic charges =     0.000000

                    Cartesian Multipole Moments
 -----------------------------------------------------------------
    Charge (ESU x 10^10)
                -0.0000
    Dipole Moment (Debye)
         X       1.1162      Y       2.8975      Z       3.5269
       Tot       4.6990
    Quadrupole Moments (Debye-Ang)
        XX    -184.9275     XY      -0.3580     YY    -173.3534
        XZ      -8.2791     YZ      -7.6372     ZZ    -204.0914

 Total job time:  330.34s(wall), 10292.78s(cpu)
        *  Thank you very much for using Q-Chem.  Have a nice day.  *
