 Q-Chem 5.4, Q-Chem, Inc., Pleasanton, CA (2021)
 Q-Chem 5.4.0 for Intel X86 EM64T Linux

User input:
--------------------------------------------------------------
$molecule
0 1
C	0.174379	-8.519741	0.208886
C	-0.650052	-7.635967	-0.472151
S	1.377058	-7.651740	1.193717
C	-0.353105	-6.261894	-0.225125
H	-1.458961	-7.954738	-1.141594
C	0.740583	-6.079985	0.692811
C	1.195546	-4.798382	1.039773
C	-1.023267	-5.153542	-0.817634
C	-0.565262	-3.869626	-0.473754
C	0.527745	-3.688927	0.447350
O	-2.054917	-5.481075	-1.644483
O	2.232592	-4.479871	1.869424
C	2.565470	-5.356026	2.939466
H	3.248608	-4.790496	3.601405
H	3.094885	-6.268513	2.587892
H	1.664539	-5.658187	3.516052
C	-2.524564	-4.546999	-2.608813
H	-3.211568	-5.107564	-3.270661
H	-1.692342	-4.131473	-3.216646
H	-3.090211	-3.712085	-2.141184
C	0.823402	-2.314326	0.690319
S	-1.194935	-2.295487	-0.985511
C	0.000000	-1.435180	0.000000
H	1.630024	-1.993211	1.361286
C	0.000000	0.000000	0.000000
S	0.002233	0.899428	1.510732
C	0.001157	2.474749	0.727629
C	-0.000030	0.908223	-1.064665
C	-0.001545	2.297013	-0.678287
C	0.001624	0.841837	-2.486150
C	0.001494	2.106670	-3.106916
S	-0.001841	3.354171	-1.965735
C	0.006168	2.361146	-4.559972
O	0.009152	1.427646	-5.350277
O	0.009405	3.644337	-5.004375
F	0.005539	-0.272288	-3.246290
C	0.019554	4.003038	-6.334976
H	0.020155	5.108000	-6.370268
H	-0.871409	3.613681	-6.875609
H	0.918470	3.613062	-6.861878
H	0.001222	3.394771	1.321510
H	0.744739	-9.146471	-0.486655
H	-0.399033	-9.150570	0.898184
H	0.687683	-1.444158	-0.832713
$end

$rem
JOBTYPE		SP
EXCHANGE	HF
CORRELATION	pRIMP2
BASIS		cc-pvtz
METHOD		rimp2
AUX_BASIS	rimp2-cc-pvtz
SOLVENT_METHOD	PCM
PURECART	11111
SYMMETRY	false
MEM_TOTAL	110000
SCF_CONVERGENCE = 6
THRESH=10
GUI = 2
$end

$solvent
dielectric 4.90
$end
--------------------------------------------------------------

             Standard Nuclear Orientation (Angstroms)
    I     Atom           X                Y                Z
 ----------------------------------------------------------------
    1      C       0.1743790000    -8.5197410000     0.2088860000
    2      C      -0.6500520000    -7.6359670000    -0.4721510000
    3      S       1.3770580000    -7.6517400000     1.1937170000
    4      C      -0.3531050000    -6.2618940000    -0.2251250000
    5      H      -1.4589610000    -7.9547380000    -1.1415940000
    6      C       0.7405830000    -6.0799850000     0.6928110000
    7      C       1.1955460000    -4.7983820000     1.0397730000
    8      C      -1.0232670000    -5.1535420000    -0.8176340000
    9      C      -0.5652620000    -3.8696260000    -0.4737540000
   10      C       0.5277450000    -3.6889270000     0.4473500000
   11      O      -2.0549170000    -5.4810750000    -1.6444830000
   12      O       2.2325920000    -4.4798710000     1.8694240000
   13      C       2.5654700000    -5.3560260000     2.9394660000
   14      H       3.2486080000    -4.7904960000     3.6014050000
   15      H       3.0948850000    -6.2685130000     2.5878920000
   16      H       1.6645390000    -5.6581870000     3.5160520000
   17      C      -2.5245640000    -4.5469990000    -2.6088130000
   18      H      -3.2115680000    -5.1075640000    -3.2706610000
   19      H      -1.6923420000    -4.1314730000    -3.2166460000
   20      H      -3.0902110000    -3.7120850000    -2.1411840000
   21      C       0.8234020000    -2.3143260000     0.6903190000
   22      S      -1.1949350000    -2.2954870000    -0.9855110000
   23      C       0.0000000000    -1.4351800000     0.0000000000
   24      H       1.6300240000    -1.9932110000     1.3612860000
   25      C       0.0000000000     0.0000000000     0.0000000000
   26      S       0.0022330000     0.8994280000     1.5107320000
   27      C       0.0011570000     2.4747490000     0.7276290000
   28      C      -0.0000300000     0.9082230000    -1.0646650000
   29      C      -0.0015450000     2.2970130000    -0.6782870000
   30      C       0.0016240000     0.8418370000    -2.4861500000
   31      C       0.0014940000     2.1066700000    -3.1069160000
   32      S      -0.0018410000     3.3541710000    -1.9657350000
   33      C       0.0061680000     2.3611460000    -4.5599720000
   34      O       0.0091520000     1.4276460000    -5.3502770000
   35      O       0.0094050000     3.6443370000    -5.0043750000
   36      F       0.0055390000    -0.2722880000    -3.2462900000
   37      C       0.0195540000     4.0030380000    -6.3349760000
   38      H       0.0201550000     5.1080000000    -6.3702680000
   39      H      -0.8714090000     3.6136810000    -6.8756090000
   40      H       0.9184700000     3.6130620000    -6.8618780000
   41      H       0.0012220000     3.3947710000     1.3215100000
   42      H       0.7447390000    -9.1464710000    -0.4866550000
   43      H      -0.3990330000    -9.1505700000     0.8981840000
   44      H       0.6876830000    -1.4441580000    -0.8327130000
 ----------------------------------------------------------------

   11   -2755.3281702999      7.37e-07  Convergence criterion met
 Total energy in the final basis set =    -2755.3281702999
        RIMP2         total energy =     -2760.4196357958 a.u.

                    Orbital Energies (a.u.)
 --------------------------------------------------------------

 Alpha MOs
 -- Occupied --
-92.0145 -91.9949 -91.9777 -91.9592 -26.3365 -20.6123 -20.5877 -20.5871
-20.5499 -11.4104 -11.3791 -11.3194 -11.3095 -11.3082 -11.2976 -11.2966
-11.2898 -11.2887 -11.2839 -11.2835 -11.2833 -11.2832 -11.2817 -11.2744
-11.2727 -11.2601 -11.2588 -11.2505 -11.2388  -9.0130  -8.9990  -8.9800
 -8.9618  -6.6937  -6.6931  -6.6927  -6.6802  -6.6795  -6.6782  -6.6611
 -6.6602  -6.6589  -6.6430  -6.6421  -6.6410  -1.6499  -1.4720  -1.4107
 -1.4094  -1.3672  -1.2384  -1.2093  -1.1761  -1.1432  -1.1005  -1.0513
 -1.0464  -1.0292  -1.0090  -0.9987  -0.9720  -0.9599  -0.9489  -0.9408
 -0.8939  -0.8738  -0.8630  -0.8112  -0.7921  -0.7860  -0.7797  -0.7676
 -0.7629  -0.7338  -0.7190  -0.7178  -0.6978  -0.6930  -0.6866  -0.6788
 -0.6760  -0.6721  -0.6557  -0.6488  -0.6330  -0.6300  -0.6208  -0.6153
 -0.6108  -0.6063  -0.5956  -0.5929  -0.5819  -0.5653  -0.5595  -0.5581
 -0.5500  -0.5323  -0.5281  -0.5211  -0.5136  -0.5082  -0.5039  -0.5004
 -0.4877  -0.4841  -0.4797  -0.4692  -0.4618  -0.4615  -0.4606  -0.4466
 -0.4279  -0.4008  -0.3855  -0.3708  -0.3506  -0.2928  -0.2866  -0.2198

          Ground-State Mulliken Net Atomic Charges

     Atom                 Charge (a.u.)
  ----------------------------------------
      1 C                    -0.070418
      2 C                    -0.253475
      3 S                    -0.133438
      4 C                    -0.046115
      5 H                     0.194395
      6 C                    -0.050096
      7 C                     0.224333
      8 C                     0.230085
      9 C                    -0.081352
     10 C                    -0.053380
     11 O                    -0.335023
     12 O                    -0.343917
     13 C                    -0.082606
     14 H                     0.120031
     15 H                     0.092097
     16 H                     0.092816
     17 C                    -0.087538
     18 H                     0.123242
     19 H                     0.094373
     20 H                     0.089762
     21 C                    -0.262663
     22 S                    -0.067313
     23 C                     0.091301
     24 H                     0.207482
     25 C                    -0.081521
     26 S                     0.097733
     27 C                    -0.249075
     28 C                    -0.105681
     29 C                    -0.005652
     30 C                     0.385150
     31 C                    -0.141787
     32 S                     0.036086
     33 C                     0.460285
     34 O                    -0.451901
     35 O                    -0.297995
     36 F                    -0.212837
     37 C                    -0.055122
     38 H                     0.116685
     39 H                     0.084501
     40 H                     0.084409
     41 H                     0.214036
     42 H                     0.118298
     43 H                     0.115881
     44 H                     0.195925
  ----------------------------------------
  Sum of atomic charges =     0.000000

                    Cartesian Multipole Moments
 -----------------------------------------------------------------
    Charge (ESU x 10^10)
                -0.0000
    Dipole Moment (Debye)
         X       0.2392      Y       2.7662      Z       2.6080
       Tot       3.8093
    Quadrupole Moments (Debye-Ang)
        XX    -196.5572     XY       3.0950     YY    -171.5395
        XZ       8.3708     YZ      -8.0479     ZZ    -193.0667

 Total job time:  339.17s(wall), 11124.10s(cpu)
        *  Thank you very much for using Q-Chem.  Have a nice day.  *
