 Q-Chem 5.4, Q-Chem, Inc., Pleasanton, CA (2021)
 Q-Chem 5.4.0 for Intel X86 EM64T Linux

User input:
--------------------------------------------------------------
$molecule
0 1
C	0.046574	-8.519741	0.268090
C	-0.326886	-7.635967	-0.733920
S	0.595708	-7.651740	1.722318
C	-0.193236	-6.261894	-0.371516
H	-0.692700	-7.954738	-1.718130
C	0.294958	-6.079985	0.970283
C	0.515487	-4.798382	1.498243
C	-0.477358	-5.153542	-1.219725
C	-0.252655	-3.869626	-0.692914
C	0.233366	-3.688927	0.651289
O	-0.957369	-5.481075	-2.451623
O	0.998769	-4.479871	2.735264
C	0.752029	-5.356026	3.828387
H	1.012675	-4.790496	4.743213
H	1.386303	-6.268513	3.788623
H	-0.316492	-5.658187	3.877260
C	-0.881930	-4.546999	-3.521580
H	-1.145969	-5.107564	-4.438260
H	0.142712	-4.131473	-3.631868
H	-1.605610	-3.712085	-3.399425
C	0.367928	-2.314326	1.009535
S	-0.542088	-2.295487	-1.450945
C	-0.000000	-1.435180	-0.000000
H	0.730999	-1.993211	1.993920
C	0.000000	0.000000	0.000000
S	0.579852	0.687566	1.510732
C	1.591625	1.895024	0.727629
C	0.583771	0.695758	-1.064665
C	1.475308	1.760606	-0.678287
C	0.542366	0.643841	-2.486150
C	1.355286	1.612843	-3.106916
S	2.154609	2.570627	-1.965735
C	1.522440	1.804778	-4.559972
O	0.924684	1.087757	-5.350277
O	2.349739	2.785679	-5.004375
F	-0.170780	-0.212144	-3.246290
C	2.588082	3.053936	-6.334976
H	3.298799	3.899999	-6.370268
H	1.655291	3.328371	-6.875609
H	3.026021	2.177385	-6.861878
H	2.183053	2.599759	1.321510
H	0.888291	-9.146471	-0.049086
H	-0.794665	-9.150570	0.578334
H	1.011908	-1.444158	-0.377309
$end

$rem
JOBTYPE		SP
EXCHANGE	HF
CORRELATION	pRIMP2
BASIS		cc-pvtz
METHOD		rimp2
AUX_BASIS	rimp2-cc-pvtz
SOLVENT_METHOD	PCM
PURECART	11111
SYMMETRY	false
MEM_TOTAL	110000
SCF_CONVERGENCE = 6
THRESH=10
GUI = 2
$end

$solvent
dielectric 4.90
$end
--------------------------------------------------------------

             Standard Nuclear Orientation (Angstroms)
    I     Atom           X                Y                Z
 ----------------------------------------------------------------
    1      C       0.0465740000    -8.5197410000     0.2680900000
    2      C      -0.3268860000    -7.6359670000    -0.7339200000
    3      S       0.5957080000    -7.6517400000     1.7223180000
    4      C      -0.1932360000    -6.2618940000    -0.3715160000
    5      H      -0.6927000000    -7.9547380000    -1.7181300000
    6      C       0.2949580000    -6.0799850000     0.9702830000
    7      C       0.5154870000    -4.7983820000     1.4982430000
    8      C      -0.4773580000    -5.1535420000    -1.2197250000
    9      C      -0.2526550000    -3.8696260000    -0.6929140000
   10      C       0.2333660000    -3.6889270000     0.6512890000
   11      O      -0.9573690000    -5.4810750000    -2.4516230000
   12      O       0.9987690000    -4.4798710000     2.7352640000
   13      C       0.7520290000    -5.3560260000     3.8283870000
   14      H       1.0126750000    -4.7904960000     4.7432130000
   15      H       1.3863030000    -6.2685130000     3.7886230000
   16      H      -0.3164920000    -5.6581870000     3.8772600000
   17      C      -0.8819300000    -4.5469990000    -3.5215800000
   18      H      -1.1459690000    -5.1075640000    -4.4382600000
   19      H       0.1427120000    -4.1314730000    -3.6318680000
   20      H      -1.6056100000    -3.7120850000    -3.3994250000
   21      C       0.3679280000    -2.3143260000     1.0095350000
   22      S      -0.5420880000    -2.2954870000    -1.4509450000
   23      C       0.0000000000    -1.4351800000     0.0000000000
   24      H       0.7309990000    -1.9932110000     1.9939200000
   25      C       0.0000000000     0.0000000000     0.0000000000
   26      S       0.5798520000     0.6875660000     1.5107320000
   27      C       1.5916250000     1.8950240000     0.7276290000
   28      C       0.5837710000     0.6957580000    -1.0646650000
   29      C       1.4753080000     1.7606060000    -0.6782870000
   30      C       0.5423660000     0.6438410000    -2.4861500000
   31      C       1.3552860000     1.6128430000    -3.1069160000
   32      S       2.1546090000     2.5706270000    -1.9657350000
   33      C       1.5224400000     1.8047780000    -4.5599720000
   34      O       0.9246840000     1.0877570000    -5.3502770000
   35      O       2.3497390000     2.7856790000    -5.0043750000
   36      F      -0.1707800000    -0.2121440000    -3.2462900000
   37      C       2.5880820000     3.0539360000    -6.3349760000
   38      H       3.2987990000     3.8999990000    -6.3702680000
   39      H       1.6552910000     3.3283710000    -6.8756090000
   40      H       3.0260210000     2.1773850000    -6.8618780000
   41      H       2.1830530000     2.5997590000     1.3215100000
   42      H       0.8882910000    -9.1464710000    -0.0490860000
   43      H      -0.7946650000    -9.1505700000     0.5783340000
   44      H       1.0119080000    -1.4441580000    -0.3773090000
 ----------------------------------------------------------------

   11   -2755.2917309632      6.47e-07  Convergence criterion met
 Total energy in the final basis set =    -2755.2917309632
        RIMP2         total energy =     -2760.3961978000 a.u.

                    Orbital Energies (a.u.)
 --------------------------------------------------------------

 Alpha MOs
 -- Occupied --
-92.0159 -91.9966 -91.9733 -91.9591 -26.3346 -20.6121 -20.5875 -20.5866
-20.5497 -11.4102 -11.3783 -11.3135 -11.3090 -11.3078 -11.2993 -11.2968
-11.2944 -11.2887 -11.2836 -11.2833 -11.2831 -11.2812 -11.2788 -11.2741
-11.2704 -11.2590 -11.2586 -11.2506 -11.2391  -9.0147  -9.0005  -8.9761
 -8.9617  -6.6954  -6.6948  -6.6944  -6.6818  -6.6811  -6.6798  -6.6571
 -6.6562  -6.6549  -6.6429  -6.6420  -6.6410  -1.6498  -1.4718  -1.4102
 -1.4091  -1.3670  -1.2433  -1.2084  -1.1770  -1.1449  -1.0989  -1.0526
 -1.0459  -1.0308  -1.0068  -0.9985  -0.9730  -0.9591  -0.9488  -0.9407
 -0.8935  -0.8739  -0.8599  -0.8130  -0.7947  -0.7858  -0.7766  -0.7651
 -0.7605  -0.7329  -0.7206  -0.7173  -0.6987  -0.6944  -0.6861  -0.6787
 -0.6753  -0.6735  -0.6553  -0.6484  -0.6349  -0.6289  -0.6208  -0.6148
 -0.6108  -0.6064  -0.5979  -0.5946  -0.5751  -0.5665  -0.5618  -0.5581
 -0.5498  -0.5316  -0.5298  -0.5207  -0.5127  -0.5080  -0.5042  -0.4997
 -0.4859  -0.4840  -0.4778  -0.4638  -0.4613  -0.4607  -0.4579  -0.4467
 -0.4314  -0.3980  -0.3826  -0.3705  -0.3515  -0.2939  -0.2854  -0.2159

          Ground-State Mulliken Net Atomic Charges

     Atom                 Charge (a.u.)
  ----------------------------------------
      1 C                    -0.070517
      2 C                    -0.252751
      3 S                    -0.134050
      4 C                    -0.046472
      5 H                     0.194596
      6 C                    -0.047854
      7 C                     0.219628
      8 C                     0.228488
      9 C                    -0.073878
     10 C                    -0.038487
     11 O                    -0.335124
     12 O                    -0.344250
     13 C                    -0.082694
     14 H                     0.119762
     15 H                     0.092099
     16 H                     0.092922
     17 C                    -0.087236
     18 H                     0.123400
     19 H                     0.092953
     20 H                     0.091011
     21 C                    -0.297604
     22 S                    -0.085680
     23 C                     0.066601
     24 H                     0.201231
     25 C                    -0.032874
     26 S                     0.097258
     27 C                    -0.236554
     28 C                    -0.102474
     29 C                    -0.015054
     30 C                     0.365079
     31 C                    -0.138366
     32 S                     0.048118
     33 C                     0.457477
     34 O                    -0.451776
     35 O                    -0.298556
     36 F                    -0.207429
     37 C                    -0.054775
     38 H                     0.116612
     39 H                     0.084503
     40 H                     0.084222
     41 H                     0.216024
     42 H                     0.118392
     43 H                     0.116071
     44 H                     0.208007
  ----------------------------------------
  Sum of atomic charges =     0.000000

                    Cartesian Multipole Moments
 -----------------------------------------------------------------
    Charge (ESU x 10^10)
                -0.0000
    Dipole Moment (Debye)
         X       2.7616      Y       2.1550      Z       2.8003
       Tot       4.4847
    Quadrupole Moments (Debye-Ang)
        XX    -195.0570     XY       9.2377     YY    -177.7526
        XZ      -6.5349     YZ      -3.9546     ZZ    -187.7247

 Total job time:  392.66s(wall), 10903.57s(cpu)
        *  Thank you very much for using Q-Chem.  Have a nice day.  *
