 Q-Chem 5.4, Q-Chem, Inc., Pleasanton, CA (2021)
 Q-Chem 5.4.0 for Intel X86 EM64T Linux

User input:
--------------------------------------------------------------
$molecule
0 1
C	-0.135457	-8.519741	-0.235993
C	0.558188	-7.635967	0.577858
S	-1.148850	-7.651740	-1.414705
C	0.308648	-6.261894	0.283020
H	1.238560	-7.954738	1.377597
C	-0.609026	-6.079985	-0.810887
C	-0.996828	-4.798382	-1.231581
C	0.865740	-5.153542	0.982901
C	0.474408	-3.869626	0.564713
C	-0.442046	-3.688927	-0.532196
O	1.738137	-5.481075	1.976332
O	-1.874052	-4.479871	-2.228709
C	-2.016062	-5.356026	-3.340298
H	-2.573877	-4.790496	-4.110807
H	-2.598484	-6.268513	-3.085998
H	-1.028695	-5.658187	-3.751679
C	2.033195	-4.546999	3.007565
H	2.594833	-5.107564	3.778655
H	1.108067	-4.131473	3.461650
H	2.671451	-3.712085	2.645264
C	-0.691020	-2.314326	-0.822814
S	1.005649	-2.295487	1.178037
C	-0.000000	-1.435180	-0.000000
H	-1.368875	-1.993211	-1.623656
C	0.000000	0.000000	0.000000
S	0.158383	0.885376	1.510732
C	0.430876	2.436951	0.727629
C	0.157682	0.894430	-1.064665
C	0.397351	2.262384	-0.678287
C	0.147783	0.828765	-2.486150
C	0.367291	2.074406	-3.106916
S	0.580633	3.303533	-1.965735
C	0.416083	2.324204	-4.559972
O	0.256921	1.404367	-5.350277
O	0.642094	3.587338	-5.004375
F	-0.041828	-0.269113	-3.246290
C	0.714377	3.938827	-6.334976
H	0.906844	5.026898	-6.370268
H	-0.230661	3.710099	-6.875609
H	1.531918	3.398681	-6.861878
H	0.590699	3.342984	1.321510
H	-0.817932	-9.146471	0.349939
H	0.548939	-9.150570	-0.815247
H	-0.821835	-1.444158	0.700647
$end

$rem
JOBTYPE		SP
EXCHANGE	HF
CORRELATION	pRIMP2
BASIS		cc-pvtz
METHOD		rimp2
AUX_BASIS	rimp2-cc-pvtz
SOLVENT_METHOD	PCM
PURECART	11111
SYMMETRY	false
MEM_TOTAL	110000
SCF_CONVERGENCE = 6
THRESH=10
GUI = 2
$end

$solvent
dielectric 4.90
$end
--------------------------------------------------------------

             Standard Nuclear Orientation (Angstroms)
    I     Atom           X                Y                Z
 ----------------------------------------------------------------
    1      C      -0.1354570000    -8.5197410000    -0.2359930000
    2      C       0.5581880000    -7.6359670000     0.5778580000
    3      S      -1.1488500000    -7.6517400000    -1.4147050000
    4      C       0.3086480000    -6.2618940000     0.2830200000
    5      H       1.2385600000    -7.9547380000     1.3775970000
    6      C      -0.6090260000    -6.0799850000    -0.8108870000
    7      C      -0.9968280000    -4.7983820000    -1.2315810000
    8      C       0.8657400000    -5.1535420000     0.9829010000
    9      C       0.4744080000    -3.8696260000     0.5647130000
   10      C      -0.4420460000    -3.6889270000    -0.5321960000
   11      O       1.7381370000    -5.4810750000     1.9763320000
   12      O      -1.8740520000    -4.4798710000    -2.2287090000
   13      C      -2.0160620000    -5.3560260000    -3.3402980000
   14      H      -2.5738770000    -4.7904960000    -4.1108070000
   15      H      -2.5984840000    -6.2685130000    -3.0859980000
   16      H      -1.0286950000    -5.6581870000    -3.7516790000
   17      C       2.0331950000    -4.5469990000     3.0075650000
   18      H       2.5948330000    -5.1075640000     3.7786550000
   19      H       1.1080670000    -4.1314730000     3.4616500000
   20      H       2.6714510000    -3.7120850000     2.6452640000
   21      C      -0.6910200000    -2.3143260000    -0.8228140000
   22      S       1.0056490000    -2.2954870000     1.1780370000
   23      C       0.0000000000    -1.4351800000     0.0000000000
   24      H      -1.3688750000    -1.9932110000    -1.6236560000
   25      C       0.0000000000     0.0000000000     0.0000000000
   26      S       0.1583830000     0.8853760000     1.5107320000
   27      C       0.4308760000     2.4369510000     0.7276290000
   28      C       0.1576820000     0.8944300000    -1.0646650000
   29      C       0.3973510000     2.2623840000    -0.6782870000
   30      C       0.1477830000     0.8287650000    -2.4861500000
   31      C       0.3672910000     2.0744060000    -3.1069160000
   32      S       0.5806330000     3.3035330000    -1.9657350000
   33      C       0.4160830000     2.3242040000    -4.5599720000
   34      O       0.2569210000     1.4043670000    -5.3502770000
   35      O       0.6420940000     3.5873380000    -5.0043750000
   36      F      -0.0418280000    -0.2691130000    -3.2462900000
   37      C       0.7143770000     3.9388270000    -6.3349760000
   38      H       0.9068440000     5.0268980000    -6.3702680000
   39      H      -0.2306610000     3.7100990000    -6.8756090000
   40      H       1.5319180000     3.3986810000    -6.8618780000
   41      H       0.5906990000     3.3429840000     1.3215100000
   42      H      -0.8179320000    -9.1464710000     0.3499390000
   43      H       0.5489390000    -9.1505700000    -0.8152470000
   44      H      -0.8218350000    -1.4441580000     0.7006470000
 ----------------------------------------------------------------

   11   -2755.3249331825      7.80e-07  Convergence criterion met
 Total energy in the final basis set =    -2755.3249331825
        RIMP2         total energy =     -2760.4153919287 a.u.

                    Orbital Energies (a.u.)
 --------------------------------------------------------------

 Alpha MOs
 -- Occupied --
-92.0163 -91.9937 -91.9817 -91.9585 -26.3369 -20.6120 -20.5881 -20.5869
-20.5495 -11.4100 -11.3788 -11.3191 -11.3093 -11.3091 -11.2970 -11.2960
-11.2907 -11.2885 -11.2855 -11.2844 -11.2839 -11.2821 -11.2792 -11.2735
-11.2730 -11.2592 -11.2589 -11.2500 -11.2381  -9.0149  -8.9978  -8.9839
 -8.9611  -6.6957  -6.6951  -6.6946  -6.6791  -6.6784  -6.6771  -6.6649
 -6.6640  -6.6627  -6.6423  -6.6414  -6.6404  -1.6499  -1.4716  -1.4114
 -1.4088  -1.3669  -1.2381  -1.2103  -1.1762  -1.1439  -1.1000  -1.0500
 -1.0471  -1.0300  -1.0095  -0.9991  -0.9721  -0.9599  -0.9492  -0.9405
 -0.8947  -0.8716  -0.8645  -0.8080  -0.7963  -0.7864  -0.7773  -0.7710
 -0.7651  -0.7328  -0.7222  -0.7177  -0.6980  -0.6927  -0.6831  -0.6785
 -0.6721  -0.6666  -0.6571  -0.6488  -0.6373  -0.6304  -0.6204  -0.6149
 -0.6105  -0.6062  -0.5950  -0.5927  -0.5793  -0.5687  -0.5593  -0.5514
 -0.5498  -0.5365  -0.5317  -0.5227  -0.5143  -0.5082  -0.5052  -0.5007
 -0.4860  -0.4846  -0.4794  -0.4725  -0.4622  -0.4612  -0.4596  -0.4464
 -0.4292  -0.4001  -0.3866  -0.3711  -0.3516  -0.2936  -0.2858  -0.2190

          Ground-State Mulliken Net Atomic Charges

     Atom                 Charge (a.u.)
  ----------------------------------------
      1 C                    -0.070320
      2 C                    -0.257018
      3 S                    -0.133917
      4 C                    -0.045093
      5 H                     0.193798
      6 C                    -0.051865
      7 C                     0.225458
      8 C                     0.226506
      9 C                    -0.076976
     10 C                    -0.053365
     11 O                    -0.334040
     12 O                    -0.343227
     13 C                    -0.082500
     14 H                     0.120870
     15 H                     0.091626
     16 H                     0.093149
     17 C                    -0.087709
     18 H                     0.124013
     19 H                     0.092461
     20 H                     0.090100
     21 C                    -0.263103
     22 S                    -0.075556
     23 C                     0.100832
     24 H                     0.204860
     25 C                    -0.118825
     26 S                     0.083867
     27 C                    -0.240778
     28 C                    -0.041195
     29 C                    -0.015499
     30 C                     0.385821
     31 C                    -0.148657
     32 S                     0.032615
     33 C                     0.459832
     34 O                    -0.451946
     35 O                    -0.297999
     36 F                    -0.213561
     37 C                    -0.055051
     38 H                     0.116569
     39 H                     0.084339
     40 H                     0.084509
     41 H                     0.215584
     42 H                     0.117704
     43 H                     0.115551
     44 H                     0.198135
  ----------------------------------------
  Sum of atomic charges =     0.000000

                    Cartesian Multipole Moments
 -----------------------------------------------------------------
    Charge (ESU x 10^10)
                 0.0000
    Dipole Moment (Debye)
         X       0.1892      Y       2.7927      Z       3.8429
       Tot       4.7543
    Quadrupole Moments (Debye-Ang)
        XX    -198.5915     XY       0.0350     YY    -173.2126
        XZ       4.5070     YZ     -13.2997     ZZ    -190.5805

 Total job time:  332.11s(wall), 10291.84s(cpu)
        *  Thank you very much for using Q-Chem.  Have a nice day.  *
