 Q-Chem 5.4, Q-Chem, Inc., Pleasanton, CA (2021)
 Q-Chem 5.4.0 for Intel X86 EM64T Linux

User input:
--------------------------------------------------------------
$molecule
0 1
C	-0.175432	-8.519741	0.208002
C	0.352097	-7.635967	-0.722164
S	-0.936458	-7.651740	1.563424
C	0.160388	-6.261894	-0.386833
H	0.870905	-7.954738	-1.635031
C	-0.553685	-6.079985	0.849637
C	-0.816372	-4.798382	1.357938
C	0.627524	-5.153542	-1.149702
C	0.368399	-3.869626	-0.638941
C	-0.348912	-3.688927	0.597409
O	1.262667	-5.481075	-2.309260
O	-1.453338	-4.479871	2.523296
C	-2.449320	-5.356026	3.036927
H	-2.982577	-4.790496	3.824632
H	-2.011155	-6.268513	3.497250
H	-3.173591	-5.658187	2.249807
C	2.130793	-4.546999	-2.939226
H	2.663289	-5.107564	-3.730721
H	2.873906	-4.131473	-2.225196
H	1.572045	-3.712085	-3.415077
C	-0.536849	-2.314326	0.930765
S	0.763041	-2.295487	-1.347913
C	0.000000	-1.435180	0.000000
H	-1.057554	-1.993211	1.841645
C	0.000000	0.000000	0.000000
S	0.002233	0.899428	1.510732
C	0.001157	2.474749	0.727629
C	-0.000030	0.908223	-1.064665
C	-0.001545	2.297013	-0.678287
C	0.001624	0.841837	-2.486150
C	0.001494	2.106670	-3.106916
S	-0.001841	3.354171	-1.965735
C	0.006168	2.361146	-4.559972
O	0.009152	1.427646	-5.350277
O	0.009405	3.644337	-5.004375
F	0.005539	-0.272288	-3.246290
C	0.019554	4.003038	-6.334976
H	0.020155	5.108000	-6.370268
H	-0.871409	3.613681	-6.875609
H	0.918470	3.613062	-6.861878
H	0.001222	3.394771	1.321510
H	0.608584	-9.146471	0.648918
H	-0.953830	-9.150570	-0.237003
H	0.939477	-1.444158	0.532637
$end

$rem
JOBTYPE		SP
EXCHANGE	HF
CORRELATION	pRIMP2
BASIS		cc-pvtz
METHOD		rimp2
AUX_BASIS	rimp2-cc-pvtz
SOLVENT_METHOD	PCM
PURECART	11111
SYMMETRY	false
MEM_TOTAL	110000
SCF_CONVERGENCE = 6
THRESH=10
GUI = 2
$end

$solvent
dielectric 4.90
$end
--------------------------------------------------------------

             Standard Nuclear Orientation (Angstroms)
    I     Atom           X                Y                Z
 ----------------------------------------------------------------
    1      C      -0.1754320000    -8.5197410000     0.2080020000
    2      C       0.3520970000    -7.6359670000    -0.7221640000
    3      S      -0.9364580000    -7.6517400000     1.5634240000
    4      C       0.1603880000    -6.2618940000    -0.3868330000
    5      H       0.8709050000    -7.9547380000    -1.6350310000
    6      C      -0.5536850000    -6.0799850000     0.8496370000
    7      C      -0.8163720000    -4.7983820000     1.3579380000
    8      C       0.6275240000    -5.1535420000    -1.1497020000
    9      C       0.3683990000    -3.8696260000    -0.6389410000
   10      C      -0.3489120000    -3.6889270000     0.5974090000
   11      O       1.2626670000    -5.4810750000    -2.3092600000
   12      O      -1.4533380000    -4.4798710000     2.5232960000
   13      C      -2.4493200000    -5.3560260000     3.0369270000
   14      H      -2.9825770000    -4.7904960000     3.8246320000
   15      H      -2.0111550000    -6.2685130000     3.4972500000
   16      H      -3.1735910000    -5.6581870000     2.2498070000
   17      C       2.1307930000    -4.5469990000    -2.9392260000
   18      H       2.6632890000    -5.1075640000    -3.7307210000
   19      H       2.8739060000    -4.1314730000    -2.2251960000
   20      H       1.5720450000    -3.7120850000    -3.4150770000
   21      C      -0.5368490000    -2.3143260000     0.9307650000
   22      S       0.7630410000    -2.2954870000    -1.3479130000
   23      C       0.0000000000    -1.4351800000     0.0000000000
   24      H      -1.0575540000    -1.9932110000     1.8416450000
   25      C       0.0000000000     0.0000000000     0.0000000000
   26      S       0.0022330000     0.8994280000     1.5107320000
   27      C       0.0011570000     2.4747490000     0.7276290000
   28      C      -0.0000300000     0.9082230000    -1.0646650000
   29      C      -0.0015450000     2.2970130000    -0.6782870000
   30      C       0.0016240000     0.8418370000    -2.4861500000
   31      C       0.0014940000     2.1066700000    -3.1069160000
   32      S      -0.0018410000     3.3541710000    -1.9657350000
   33      C       0.0061680000     2.3611460000    -4.5599720000
   34      O       0.0091520000     1.4276460000    -5.3502770000
   35      O       0.0094050000     3.6443370000    -5.0043750000
   36      F       0.0055390000    -0.2722880000    -3.2462900000
   37      C       0.0195540000     4.0030380000    -6.3349760000
   38      H       0.0201550000     5.1080000000    -6.3702680000
   39      H      -0.8714090000     3.6136810000    -6.8756090000
   40      H       0.9184700000     3.6130620000    -6.8618780000
   41      H       0.0012220000     3.3947710000     1.3215100000
   42      H       0.6085840000    -9.1464710000     0.6489180000
   43      H      -0.9538300000    -9.1505700000    -0.2370030000
   44      H       0.9394770000    -1.4441580000     0.5326370000
 ----------------------------------------------------------------

   11   -2755.3236770467      7.67e-07  Convergence criterion met
 Total energy in the final basis set =    -2755.3236770467
        RIMP2         total energy =     -2760.4140258280 a.u.

                    Orbital Energies (a.u.)
 --------------------------------------------------------------

 Alpha MOs
 -- Occupied --
-92.0141 -91.9917 -91.9770 -91.9601 -26.3340 -20.6110 -20.5880 -20.5876
-20.5477 -11.4084 -11.3787 -11.3243 -11.3098 -11.3093 -11.2962 -11.2927
-11.2879 -11.2859 -11.2858 -11.2841 -11.2835 -11.2835 -11.2776 -11.2758
-11.2729 -11.2621 -11.2595 -11.2514 -11.2409  -9.0128  -8.9959  -8.9795
 -8.9627  -6.6936  -6.6930  -6.6925  -6.6772  -6.6765  -6.6752  -6.6605
 -6.6597  -6.6583  -6.6439  -6.6430  -6.6419  -1.6484  -1.4705  -1.4111
 -1.4098  -1.3655  -1.2376  -1.2102  -1.1773  -1.1432  -1.1005  -1.0501
 -1.0468  -1.0299  -1.0085  -0.9997  -0.9712  -0.9601  -0.9493  -0.9404
 -0.8947  -0.8711  -0.8645  -0.8117  -0.7935  -0.7860  -0.7764  -0.7672
 -0.7657  -0.7333  -0.7209  -0.7158  -0.6975  -0.6933  -0.6838  -0.6776
 -0.6710  -0.6688  -0.6568  -0.6492  -0.6390  -0.6293  -0.6217  -0.6155
 -0.6106  -0.6048  -0.5960  -0.5918  -0.5785  -0.5674  -0.5644  -0.5586
 -0.5497  -0.5336  -0.5282  -0.5213  -0.5133  -0.5086  -0.5040  -0.5006
 -0.4851  -0.4829  -0.4787  -0.4686  -0.4620  -0.4604  -0.4592  -0.4480
 -0.4294  -0.4004  -0.3852  -0.3721  -0.3513  -0.2930  -0.2844  -0.2190

          Ground-State Mulliken Net Atomic Charges

     Atom                 Charge (a.u.)
  ----------------------------------------
      1 C                    -0.070704
      2 C                    -0.247935
      3 S                    -0.131376
      4 C                    -0.051111
      5 H                     0.195164
      6 C                    -0.048287
      7 C                     0.220674
      8 C                     0.232682
      9 C                    -0.078298
     10 C                    -0.015319
     11 O                    -0.334584
     12 O                    -0.343831
     13 C                    -0.082733
     14 H                     0.120087
     15 H                     0.092095
     16 H                     0.093238
     17 C                    -0.088692
     18 H                     0.124049
     19 H                     0.092142
     20 H                     0.092836
     21 C                    -0.340082
     22 S                    -0.081537
     23 C                     0.175210
     24 H                     0.198412
     25 C                    -0.089443
     26 S                     0.081896
     27 C                    -0.257172
     28 C                    -0.100486
     29 C                    -0.014902
     30 C                     0.398176
     31 C                    -0.151498
     32 S                     0.026661
     33 C                     0.461081
     34 O                    -0.454406
     35 O                    -0.298475
     36 F                    -0.207932
     37 C                    -0.055188
     38 H                     0.116349
     39 H                     0.084320
     40 H                     0.083973
     41 H                     0.214256
     42 H                     0.118998
     43 H                     0.116869
     44 H                     0.204825
  ----------------------------------------
  Sum of atomic charges =     0.000000

                    Cartesian Multipole Moments
 -----------------------------------------------------------------
    Charge (ESU x 10^10)
                -0.0000
    Dipole Moment (Debye)
         X       0.6936      Y       1.8642      Z       3.3394
       Tot       3.8869
    Quadrupole Moments (Debye-Ang)
        XX    -191.0738     XY      -1.9657     YY    -169.3495
        XZ      -9.3648     YZ      -6.1686     ZZ    -199.1633

 Total job time:  331.99s(wall), 10900.13s(cpu)
        *  Thank you very much for using Q-Chem.  Have a nice day.  *
