 Q-Chem 5.4, Q-Chem, Inc., Pleasanton, CA (2021)
 Q-Chem 5.4.0 for Intel X86 EM64T Linux

User input:
--------------------------------------------------------------
$molecule
0 1
C	0.255929	-8.519741	-0.092419
C	-0.666007	-7.635967	0.449364
S	1.592708	-7.651740	-0.885736
C	-0.332317	-6.261894	0.254813
H	-1.571741	-7.954738	0.980526
C	0.904324	-6.079985	-0.458965
C	1.385968	-4.798382	-0.767823
C	-1.118303	-5.153542	0.681909
C	-0.638514	-3.869626	0.369139
C	0.600871	-3.688927	-0.342916
O	-2.248132	-5.481075	1.368544
O	2.520275	-4.479871	-1.458570
C	3.639637	-5.356026	-1.405396
H	4.495304	-4.790496	-1.820940
H	3.490336	-6.268513	-2.023129
H	3.873314	-5.658187	-0.361595
C	-3.314934	-4.546999	1.480048
H	-4.171837	-5.107564	1.899255
H	-3.601473	-4.131473	0.490123
H	-3.068969	-3.712085	2.171521
C	0.930308	-2.314326	-0.537642
S	-1.334769	-2.295487	0.785807
C	0.000000	-1.435180	0.000000
H	1.836691	-1.993211	-1.066134
C	0.000000	0.000000	0.000000
S	0.234946	0.868203	1.510732
C	0.641630	2.390125	0.727629
C	0.235036	0.877284	-1.064665
C	0.593019	2.219143	-0.678287
C	0.219452	0.812732	-2.486150
C	0.546689	2.034501	-3.106916
S	0.866345	3.240357	-1.965735
C	0.617067	2.279095	-4.559972
O	0.378342	1.376631	-5.350277
O	0.952308	3.517725	-5.004375
F	-0.065123	-0.264443	-3.246290
C	1.054950	3.861577	-6.334976
H	1.341516	4.928732	-6.370268
H	0.093573	3.716085	-6.875609
H	1.822303	3.252232	-6.861878
H	0.879812	3.278780	1.321510
H	-0.202590	-9.146471	-0.866272
H	0.707539	-9.150570	0.682165
H	-0.547293	-1.444158	-0.931016
$end

$rem
JOBTYPE		SP
EXCHANGE	HF
CORRELATION	pRIMP2
BASIS		cc-pvtz
METHOD		rimp2
AUX_BASIS	rimp2-cc-pvtz
SOLVENT_METHOD	PCM
PURECART	11111
SYMMETRY	false
MEM_TOTAL	110000
SCF_CONVERGENCE = 6
THRESH=10
GUI = 2
$end

$solvent
dielectric 4.90
$end
--------------------------------------------------------------

             Standard Nuclear Orientation (Angstroms)
    I     Atom           X                Y                Z
 ----------------------------------------------------------------
    1      C       0.2559290000    -8.5197410000    -0.0924190000
    2      C      -0.6660070000    -7.6359670000     0.4493640000
    3      S       1.5927080000    -7.6517400000    -0.8857360000
    4      C      -0.3323170000    -6.2618940000     0.2548130000
    5      H      -1.5717410000    -7.9547380000     0.9805260000
    6      C       0.9043240000    -6.0799850000    -0.4589650000
    7      C       1.3859680000    -4.7983820000    -0.7678230000
    8      C      -1.1183030000    -5.1535420000     0.6819090000
    9      C      -0.6385140000    -3.8696260000     0.3691390000
   10      C       0.6008710000    -3.6889270000    -0.3429160000
   11      O      -2.2481320000    -5.4810750000     1.3685440000
   12      O       2.5202750000    -4.4798710000    -1.4585700000
   13      C       3.6396370000    -5.3560260000    -1.4053960000
   14      H       4.4953040000    -4.7904960000    -1.8209400000
   15      H       3.4903360000    -6.2685130000    -2.0231290000
   16      H       3.8733140000    -5.6581870000    -0.3615950000
   17      C      -3.3149340000    -4.5469990000     1.4800480000
   18      H      -4.1718370000    -5.1075640000     1.8992550000
   19      H      -3.6014730000    -4.1314730000     0.4901230000
   20      H      -3.0689690000    -3.7120850000     2.1715210000
   21      C       0.9303080000    -2.3143260000    -0.5376420000
   22      S      -1.3347690000    -2.2954870000     0.7858070000
   23      C       0.0000000000    -1.4351800000     0.0000000000
   24      H       1.8366910000    -1.9932110000    -1.0661340000
   25      C       0.0000000000     0.0000000000     0.0000000000
   26      S       0.2349460000     0.8682030000     1.5107320000
   27      C       0.6416300000     2.3901250000     0.7276290000
   28      C       0.2350360000     0.8772840000    -1.0646650000
   29      C       0.5930190000     2.2191430000    -0.6782870000
   30      C       0.2194520000     0.8127320000    -2.4861500000
   31      C       0.5466890000     2.0345010000    -3.1069160000
   32      S       0.8663450000     3.2403570000    -1.9657350000
   33      C       0.6170670000     2.2790950000    -4.5599720000
   34      O       0.3783420000     1.3766310000    -5.3502770000
   35      O       0.9523080000     3.5177250000    -5.0043750000
   36      F      -0.0651230000    -0.2644430000    -3.2462900000
   37      C       1.0549500000     3.8615770000    -6.3349760000
   38      H       1.3415160000     4.9287320000    -6.3702680000
   39      H       0.0935730000     3.7160850000    -6.8756090000
   40      H       1.8223030000     3.2522320000    -6.8618780000
   41      H       0.8798120000     3.2787800000     1.3215100000
   42      H      -0.2025900000    -9.1464710000    -0.8662720000
   43      H       0.7075390000    -9.1505700000     0.6821650000
   44      H      -0.5472930000    -1.4441580000    -0.9310160000
 ----------------------------------------------------------------

   11   -2755.3252168756      7.27e-07  Convergence criterion met
 Total energy in the final basis set =    -2755.3252168756
        RIMP2         total energy =     -2760.4177660309 a.u.

                    Orbital Energies (a.u.)
 --------------------------------------------------------------

 Alpha MOs
 -- Occupied --
-92.0134 -91.9966 -91.9789 -91.9582 -26.3387 -20.6132 -20.5873 -20.5870
-20.5516 -11.4118 -11.3797 -11.3141 -11.3091 -11.3079 -11.2999 -11.2982
-11.2951 -11.2892 -11.2854 -11.2847 -11.2834 -11.2826 -11.2819 -11.2732
-11.2731 -11.2585 -11.2584 -11.2497 -11.2374  -9.0120  -9.0006  -8.9810
 -8.9608  -6.6927  -6.6921  -6.6917  -6.6819  -6.6812  -6.6799  -6.6622
 -6.6613  -6.6600  -6.6421  -6.6412  -6.6401  -1.6517  -1.4730  -1.4107
 -1.4088  -1.3685  -1.2394  -1.2091  -1.1754  -1.1437  -1.1002  -1.0520
 -1.0463  -1.0295  -1.0092  -0.9982  -0.9727  -0.9598  -0.9489  -0.9412
 -0.8938  -0.8745  -0.8626  -0.8085  -0.7946  -0.7857  -0.7795  -0.7723
 -0.7622  -0.7339  -0.7202  -0.7192  -0.6981  -0.6930  -0.6870  -0.6796
 -0.6760  -0.6734  -0.6558  -0.6486  -0.6347  -0.6276  -0.6201  -0.6149
 -0.6112  -0.6075  -0.5962  -0.5937  -0.5828  -0.5673  -0.5584  -0.5536
 -0.5469  -0.5346  -0.5297  -0.5228  -0.5128  -0.5076  -0.5037  -0.5022
 -0.4869  -0.4850  -0.4760  -0.4705  -0.4625  -0.4622  -0.4611  -0.4464
 -0.4247  -0.4028  -0.3857  -0.3703  -0.3506  -0.2934  -0.2885  -0.2200

          Ground-State Mulliken Net Atomic Charges

     Atom                 Charge (a.u.)
  ----------------------------------------
      1 C                    -0.070396
      2 C                    -0.258047
      3 S                    -0.134579
      4 C                    -0.046531
      5 H                     0.193528
      6 C                    -0.052356
      7 C                     0.221528
      8 C                     0.231995
      9 C                    -0.083126
     10 C                    -0.042252
     11 O                    -0.334924
     12 O                    -0.342952
     13 C                    -0.082551
     14 H                     0.120168
     15 H                     0.092106
     16 H                     0.092522
     17 C                    -0.086641
     18 H                     0.123426
     19 H                     0.092943
     20 H                     0.089961
     21 C                    -0.270780
     22 S                    -0.071564
     23 C                     0.074700
     24 H                     0.207966
     25 C                    -0.081372
     26 S                     0.101561
     27 C                    -0.234149
     28 C                    -0.106453
     29 C                    -0.006725
     30 C                     0.392870
     31 C                    -0.141091
     32 S                     0.041349
     33 C                     0.460729
     34 O                    -0.449089
     35 O                    -0.297641
     36 F                    -0.215268
     37 C                    -0.055035
     38 H                     0.116862
     39 H                     0.084870
     40 H                     0.084735
     41 H                     0.214842
     42 H                     0.117711
     43 H                     0.115179
     44 H                     0.191971
  ----------------------------------------
  Sum of atomic charges =     0.000000

                    Cartesian Multipole Moments
 -----------------------------------------------------------------
    Charge (ESU x 10^10)
                 0.0000
    Dipole Moment (Debye)
         X       0.5328      Y       3.3608      Z       2.6596
       Tot       4.3189
    Quadrupole Moments (Debye-Ang)
        XX    -182.4558     XY       7.4469     YY    -174.1310
        XZ      -6.5510     YZ     -12.7119     ZZ    -205.4228

 Total job time:  326.33s(wall), 10501.07s(cpu)
        *  Thank you very much for using Q-Chem.  Have a nice day.  *
