 Q-Chem 5.4, Q-Chem, Inc., Pleasanton, CA (2021)
 Q-Chem 5.4.0 for Intel X86 EM64T Linux

User input:
--------------------------------------------------------------
$molecule
0 1
C	0.235306	-8.519741	0.136647
C	-0.772334	-7.635967	-0.221346
S	1.702286	-7.651740	0.650746
C	-0.408807	-6.261894	-0.090779
H	-1.761423	-7.954738	-0.573754
C	0.932876	-6.079985	0.397735
C	1.479069	-4.798382	0.568166
C	-1.241204	-5.153542	-0.418347
C	-0.693206	-3.869626	-0.251852
C	0.648921	-3.688927	0.239872
O	-2.493437	-5.481075	-0.842486
O	2.737331	-4.479871	0.993092
C	3.416110	-5.356026	1.884752
H	4.284447	-4.790496	2.273124
H	3.793352	-6.268513	1.373310
H	2.766716	-5.658187	2.734702
C	-3.264581	-4.546999	-1.588030
H	-4.136519	-5.107564	-1.974995
H	-2.690439	-4.131473	-2.443843
H	-3.636177	-3.712085	-0.955140
C	1.009848	-2.314326	0.367068
S	-1.459936	-2.295487	-0.517386
C	0.000000	-1.435180	0.000000
H	1.997308	-1.993211	0.721689
C	0.000000	0.000000	0.000000
S	0.780044	0.447780	1.510732
C	2.143774	1.236372	0.727629
C	0.786529	0.454137	-1.064665
C	1.988499	1.149844	-0.678287
C	0.729864	0.419512	-2.486150
C	1.825177	1.052041	-3.106916
S	2.903877	1.678680	-1.965735
C	2.047896	1.175232	-4.559972
O	1.240953	0.705897	-5.350277
O	3.160791	1.814024	-5.004375
F	-0.233039	-0.140940	-3.246290
C	3.476510	1.984585	-6.334976
H	4.433735	2.536545	-6.370268
H	2.693835	2.561503	-6.875609
H	3.588239	1.011113	-6.861878
H	2.940569	1.696327	1.321510
H	0.533380	-9.146471	-0.712022
H	-0.067771	-9.150570	0.980494
H	0.361406	-1.444158	-1.017696
$end

$rem
JOBTYPE		SP
EXCHANGE	HF
CORRELATION	pRIMP2
BASIS		cc-pvtz
METHOD		rimp2
AUX_BASIS	rimp2-cc-pvtz
SOLVENT_METHOD	PCM
PURECART	11111
SYMMETRY	false
MEM_TOTAL	110000
SCF_CONVERGENCE = 6
THRESH=10
GUI = 2
$end

$solvent
dielectric 4.90
$end
--------------------------------------------------------------

             Standard Nuclear Orientation (Angstroms)
    I     Atom           X                Y                Z
 ----------------------------------------------------------------
    1      C       0.2353060000    -8.5197410000     0.1366470000
    2      C      -0.7723340000    -7.6359670000    -0.2213460000
    3      S       1.7022860000    -7.6517400000     0.6507460000
    4      C      -0.4088070000    -6.2618940000    -0.0907790000
    5      H      -1.7614230000    -7.9547380000    -0.5737540000
    6      C       0.9328760000    -6.0799850000     0.3977350000
    7      C       1.4790690000    -4.7983820000     0.5681660000
    8      C      -1.2412040000    -5.1535420000    -0.4183470000
    9      C      -0.6932060000    -3.8696260000    -0.2518520000
   10      C       0.6489210000    -3.6889270000     0.2398720000
   11      O      -2.4934370000    -5.4810750000    -0.8424860000
   12      O       2.7373310000    -4.4798710000     0.9930920000
   13      C       3.4161100000    -5.3560260000     1.8847520000
   14      H       4.2844470000    -4.7904960000     2.2731240000
   15      H       3.7933520000    -6.2685130000     1.3733100000
   16      H       2.7667160000    -5.6581870000     2.7347020000
   17      C      -3.2645810000    -4.5469990000    -1.5880300000
   18      H      -4.1365190000    -5.1075640000    -1.9749950000
   19      H      -2.6904390000    -4.1314730000    -2.4438430000
   20      H      -3.6361770000    -3.7120850000    -0.9551400000
   21      C       1.0098480000    -2.3143260000     0.3670680000
   22      S      -1.4599360000    -2.2954870000    -0.5173860000
   23      C       0.0000000000    -1.4351800000     0.0000000000
   24      H       1.9973080000    -1.9932110000     0.7216890000
   25      C       0.0000000000     0.0000000000     0.0000000000
   26      S       0.7800440000     0.4477800000     1.5107320000
   27      C       2.1437740000     1.2363720000     0.7276290000
   28      C       0.7865290000     0.4541370000    -1.0646650000
   29      C       1.9884990000     1.1498440000    -0.6782870000
   30      C       0.7298640000     0.4195120000    -2.4861500000
   31      C       1.8251770000     1.0520410000    -3.1069160000
   32      S       2.9038770000     1.6786800000    -1.9657350000
   33      C       2.0478960000     1.1752320000    -4.5599720000
   34      O       1.2409530000     0.7058970000    -5.3502770000
   35      O       3.1607910000     1.8140240000    -5.0043750000
   36      F      -0.2330390000    -0.1409400000    -3.2462900000
   37      C       3.4765100000     1.9845850000    -6.3349760000
   38      H       4.4337350000     2.5365450000    -6.3702680000
   39      H       2.6938350000     2.5615030000    -6.8756090000
   40      H       3.5882390000     1.0111130000    -6.8618780000
   41      H       2.9405690000     1.6963270000     1.3215100000
   42      H       0.5333800000    -9.1464710000    -0.7120220000
   43      H      -0.0677710000    -9.1505700000     0.9804940000
   44      H       0.3614060000    -1.4441580000    -1.0176960000
 ----------------------------------------------------------------

   11   -2755.2512542287      8.45e-07  Convergence criterion met
 Total energy in the final basis set =    -2755.2512542287
        RIMP2         total energy =     -2760.3641738816 a.u.

                    Orbital Energies (a.u.)
 --------------------------------------------------------------

 Alpha MOs
 -- Occupied --
-92.0161 -92.0100 -91.9647 -91.9557 -26.3378 -20.6177 -20.5863 -20.5822
-20.5597 -11.4187 -11.3783 -11.3276 -11.3168 -11.3071 -11.3027 -11.2999
-11.2963 -11.2915 -11.2824 -11.2806 -11.2776 -11.2744 -11.2708 -11.2695
-11.2693 -11.2549 -11.2529 -11.2469 -11.2305  -9.0152  -9.0133  -8.9674
 -8.9584  -6.6958  -6.6950  -6.6949  -6.6944  -6.6939  -6.6926  -6.6484
 -6.6476  -6.6463  -6.6396  -6.6387  -6.6377  -1.6510  -1.4781  -1.4083
 -1.4053  -1.3745  -1.2526  -1.2058  -1.1743  -1.1472  -1.0983  -1.0575
 -1.0419  -1.0358  -1.0053  -0.9933  -0.9778  -0.9583  -0.9472  -0.9404
 -0.8894  -0.8808  -0.8555  -0.8125  -0.7980  -0.7858  -0.7807  -0.7674
 -0.7578  -0.7329  -0.7214  -0.7176  -0.6985  -0.6920  -0.6891  -0.6834
 -0.6796  -0.6757  -0.6529  -0.6462  -0.6307  -0.6278  -0.6174  -0.6148
 -0.6135  -0.6093  -0.6046  -0.5940  -0.5757  -0.5631  -0.5566  -0.5541
 -0.5513  -0.5335  -0.5240  -0.5216  -0.5102  -0.5063  -0.5053  -0.4977
 -0.4931  -0.4843  -0.4706  -0.4683  -0.4661  -0.4619  -0.4535  -0.4420
 -0.4231  -0.3938  -0.3801  -0.3670  -0.3471  -0.3064  -0.2846  -0.2147

          Ground-State Mulliken Net Atomic Charges

     Atom                 Charge (a.u.)
  ----------------------------------------
      1 C                    -0.068917
      2 C                    -0.277032
      3 S                    -0.141585
      4 C                    -0.038716
      5 H                     0.191390
      6 C                    -0.053111
      7 C                     0.222961
      8 C                     0.214807
      9 C                    -0.069040
     10 C                    -0.064924
     11 O                    -0.337087
     12 O                    -0.344975
     13 C                    -0.082574
     14 H                     0.118638
     15 H                     0.092171
     16 H                     0.092734
     17 C                    -0.086197
     18 H                     0.121412
     19 H                     0.091748
     20 H                     0.090074
     21 C                    -0.261889
     22 S                    -0.111116
     23 C                     0.070891
     24 H                     0.205470
     25 C                    -0.195157
     26 S                     0.119765
     27 C                    -0.156188
     28 C                    -0.016244
     29 C                    -0.022949
     30 C                     0.336567
     31 C                    -0.113491
     32 S                     0.083167
     33 C                     0.458468
     34 O                    -0.435359
     35 O                    -0.296160
     36 F                    -0.210433
     37 C                    -0.054688
     38 H                     0.117904
     39 H                     0.086194
     40 H                     0.086253
     41 H                     0.222399
     42 H                     0.115148
     43 H                     0.112609
     44 H                     0.187062
  ----------------------------------------
  Sum of atomic charges =     0.000000

                    Cartesian Multipole Moments
 -----------------------------------------------------------------
    Charge (ESU x 10^10)
                -0.0000
    Dipole Moment (Debye)
         X       5.6153      Y       4.5647      Z       1.9267
       Tot       7.4887
    Quadrupole Moments (Debye-Ang)
        XX    -175.1424     XY      12.0470     YY    -195.2634
        XZ      -2.9540     YZ      -5.8049     ZZ    -193.8559

 Total job time:  338.99s(wall), 10869.51s(cpu)
        *  Thank you very much for using Q-Chem.  Have a nice day.  *
