 Q-Chem 5.4, Q-Chem, Inc., Pleasanton, CA (2021)
 Q-Chem 5.4.0 for Intel X86 EM64T Linux

User input:
--------------------------------------------------------------
$molecule
0 1
C	0.208886	-8.519741	-0.174379
C	-0.472151	-7.635967	0.650052
S	1.193717	-7.651740	-1.377058
C	-0.225125	-6.261894	0.353105
H	-1.141594	-7.954738	1.458961
C	0.692811	-6.079985	-0.740583
C	1.039773	-4.798382	-1.195546
C	-0.817634	-5.153542	1.023267
C	-0.473754	-3.869626	0.565262
C	0.447350	-3.688927	-0.527745
O	-1.644483	-5.481075	2.054917
O	1.869424	-4.479871	-2.232592
C	2.939466	-5.356026	-2.565470
H	3.601405	-4.790496	-3.248608
H	2.587892	-6.268513	-3.094885
H	3.516052	-5.658187	-1.664539
C	-2.608813	-4.546999	2.524564
H	-3.270661	-5.107564	3.211568
H	-3.216646	-4.131473	1.692342
H	-2.141184	-3.712085	3.090211
C	0.690319	-2.314326	-0.823402
S	-0.985511	-2.295487	1.194935
C	0.000000	-1.435180	0.000000
H	1.361286	-1.993211	-1.630024
C	0.000000	0.000000	0.000000
S	0.002233	0.899428	1.510732
C	0.001157	2.474749	0.727629
C	-0.000030	0.908223	-1.064665
C	-0.001545	2.297013	-0.678287
C	0.001624	0.841837	-2.486150
C	0.001494	2.106670	-3.106916
S	-0.001841	3.354171	-1.965735
C	0.006168	2.361146	-4.559972
O	0.009152	1.427646	-5.350277
O	0.009405	3.644337	-5.004375
F	0.005539	-0.272288	-3.246290
C	0.019554	4.003038	-6.334976
H	0.020155	5.108000	-6.370268
H	-0.871409	3.613681	-6.875609
H	0.918470	3.613062	-6.861878
H	0.001222	3.394771	1.321510
H	-0.486655	-9.146471	-0.744739
H	0.898184	-9.150570	0.399033
H	-0.832713	-1.444158	-0.687683
$end

$rem
JOBTYPE		SP
EXCHANGE	HF
CORRELATION	pRIMP2
BASIS		cc-pvtz
METHOD		rimp2
AUX_BASIS	rimp2-cc-pvtz
SOLVENT_METHOD	PCM
PURECART	11111
SYMMETRY	false
MEM_TOTAL	110000
SCF_CONVERGENCE = 6
THRESH=10
GUI = 2
$end

$solvent
dielectric 4.90
$end
--------------------------------------------------------------

             Standard Nuclear Orientation (Angstroms)
    I     Atom           X                Y                Z
 ----------------------------------------------------------------
    1      C       0.2088860000    -8.5197410000    -0.1743790000
    2      C      -0.4721510000    -7.6359670000     0.6500520000
    3      S       1.1937170000    -7.6517400000    -1.3770580000
    4      C      -0.2251250000    -6.2618940000     0.3531050000
    5      H      -1.1415940000    -7.9547380000     1.4589610000
    6      C       0.6928110000    -6.0799850000    -0.7405830000
    7      C       1.0397730000    -4.7983820000    -1.1955460000
    8      C      -0.8176340000    -5.1535420000     1.0232670000
    9      C      -0.4737540000    -3.8696260000     0.5652620000
   10      C       0.4473500000    -3.6889270000    -0.5277450000
   11      O      -1.6444830000    -5.4810750000     2.0549170000
   12      O       1.8694240000    -4.4798710000    -2.2325920000
   13      C       2.9394660000    -5.3560260000    -2.5654700000
   14      H       3.6014050000    -4.7904960000    -3.2486080000
   15      H       2.5878920000    -6.2685130000    -3.0948850000
   16      H       3.5160520000    -5.6581870000    -1.6645390000
   17      C      -2.6088130000    -4.5469990000     2.5245640000
   18      H      -3.2706610000    -5.1075640000     3.2115680000
   19      H      -3.2166460000    -4.1314730000     1.6923420000
   20      H      -2.1411840000    -3.7120850000     3.0902110000
   21      C       0.6903190000    -2.3143260000    -0.8234020000
   22      S      -0.9855110000    -2.2954870000     1.1949350000
   23      C       0.0000000000    -1.4351800000     0.0000000000
   24      H       1.3612860000    -1.9932110000    -1.6300240000
   25      C       0.0000000000     0.0000000000     0.0000000000
   26      S       0.0022330000     0.8994280000     1.5107320000
   27      C       0.0011570000     2.4747490000     0.7276290000
   28      C      -0.0000300000     0.9082230000    -1.0646650000
   29      C      -0.0015450000     2.2970130000    -0.6782870000
   30      C       0.0016240000     0.8418370000    -2.4861500000
   31      C       0.0014940000     2.1066700000    -3.1069160000
   32      S      -0.0018410000     3.3541710000    -1.9657350000
   33      C       0.0061680000     2.3611460000    -4.5599720000
   34      O       0.0091520000     1.4276460000    -5.3502770000
   35      O       0.0094050000     3.6443370000    -5.0043750000
   36      F       0.0055390000    -0.2722880000    -3.2462900000
   37      C       0.0195540000     4.0030380000    -6.3349760000
   38      H       0.0201550000     5.1080000000    -6.3702680000
   39      H      -0.8714090000     3.6136810000    -6.8756090000
   40      H       0.9184700000     3.6130620000    -6.8618780000
   41      H       0.0012220000     3.3947710000     1.3215100000
   42      H      -0.4866550000    -9.1464710000    -0.7447390000
   43      H       0.8981840000    -9.1505700000     0.3990330000
   44      H      -0.8327130000    -1.4441580000    -0.6876830000
 ----------------------------------------------------------------

   11   -2755.3284804296      7.20e-07  Convergence criterion met
 Total energy in the final basis set =    -2755.3284804296
        RIMP2         total energy =     -2760.4191832855 a.u.

                    Orbital Energies (a.u.)
 --------------------------------------------------------------

 Alpha MOs
 -- Occupied --
-92.0154 -91.9941 -91.9822 -91.9592 -26.3384 -20.6118 -20.5889 -20.5872
-20.5490 -11.4096 -11.3795 -11.3229 -11.3105 -11.3097 -11.2975 -11.2949
-11.2884 -11.2864 -11.2858 -11.2858 -11.2849 -11.2826 -11.2795 -11.2744
-11.2732 -11.2605 -11.2595 -11.2508 -11.2398  -9.0138  -8.9982  -8.9843
 -8.9618  -6.6945  -6.6939  -6.6935  -6.6795  -6.6788  -6.6774  -6.6655
 -6.6646  -6.6633  -6.6430  -6.6421  -6.6411  -1.6515  -1.4714  -1.4121
 -1.4091  -1.3666  -1.2385  -1.2105  -1.1768  -1.1435  -1.1011  -1.0509
 -1.0477  -1.0286  -1.0102  -0.9997  -0.9718  -0.9604  -0.9498  -0.9409
 -0.8954  -0.8739  -0.8627  -0.8087  -0.7949  -0.7870  -0.7769  -0.7722
 -0.7625  -0.7344  -0.7201  -0.7190  -0.6989  -0.6945  -0.6861  -0.6784
 -0.6758  -0.6720  -0.6569  -0.6492  -0.6373  -0.6288  -0.6211  -0.6155
 -0.6108  -0.6059  -0.5951  -0.5924  -0.5806  -0.5692  -0.5597  -0.5517
 -0.5483  -0.5371  -0.5304  -0.5231  -0.5137  -0.5085  -0.5057  -0.5024
 -0.4860  -0.4844  -0.4781  -0.4705  -0.4632  -0.4612  -0.4601  -0.4478
 -0.4299  -0.3999  -0.3872  -0.3715  -0.3509  -0.2938  -0.2861  -0.2197

          Ground-State Mulliken Net Atomic Charges

     Atom                 Charge (a.u.)
  ----------------------------------------
      1 C                    -0.070659
      2 C                    -0.251668
      3 S                    -0.132452
      4 C                    -0.047559
      5 H                     0.194395
      6 C                    -0.051825
      7 C                     0.224327
      8 C                     0.232142
      9 C                    -0.078505
     10 C                    -0.037995
     11 O                    -0.334182
     12 O                    -0.342361
     13 C                    -0.082887
     14 H                     0.120820
     15 H                     0.092139
     16 H                     0.092508
     17 C                    -0.087513
     18 H                     0.124287
     19 H                     0.093434
     20 H                     0.090293
     21 C                    -0.292903
     22 S                    -0.083654
     23 C                     0.105341
     24 H                     0.203925
     25 C                    -0.083653
     26 S                     0.095656
     27 C                    -0.260659
     28 C                    -0.078756
     29 C                    -0.005491
     30 C                     0.396573
     31 C                    -0.149535
     32 S                     0.033652
     33 C                     0.461636
     34 O                    -0.453573
     35 O                    -0.298253
     36 F                    -0.215851
     37 C                    -0.055135
     38 H                     0.116553
     39 H                     0.084420
     40 H                     0.084258
     41 H                     0.213983
     42 H                     0.118561
     43 H                     0.116148
     44 H                     0.200018
  ----------------------------------------
  Sum of atomic charges =     0.000000

                    Cartesian Multipole Moments
 -----------------------------------------------------------------
    Charge (ESU x 10^10)
                 0.0000
    Dipole Moment (Debye)
         X      -0.6265      Y       2.2863      Z       3.1376
       Tot       3.9325
    Quadrupole Moments (Debye-Ang)
        XX    -187.7637     XY       2.8302     YY    -170.4250
        XZ      -8.4872     YZ     -13.6804     ZZ    -202.2279

 Total job time:  329.30s(wall), 10685.56s(cpu)
        *  Thank you very much for using Q-Chem.  Have a nice day.  *
