 Q-Chem 5.4, Q-Chem, Inc., Pleasanton, CA (2021)
 Q-Chem 5.4.0 for Intel X86 EM64T Linux

User input:
--------------------------------------------------------------
$molecule
0 1
C	0.255459	-8.519741	0.093711
C	-0.799036	-7.635967	-0.083869
S	1.789425	-7.651740	0.345260
C	-0.418360	-6.261894	-0.018411
H	-1.834294	-7.954738	-0.259169
C	0.987769	-6.079985	0.229701
C	1.555260	-4.798382	0.302697
C	-1.294992	-5.153542	-0.196459
C	-0.726408	-3.869626	-0.127651
C	0.680716	-3.688927	0.123544
O	-2.601852	-5.481075	-0.396706
O	2.868193	-4.479871	0.502673
C	3.691495	-5.356026	1.262918
H	4.614080	-4.790496	1.494604
H	3.974195	-6.268513	0.693738
H	3.199559	-5.658187	2.212720
C	-3.490743	-4.546999	-0.997016
H	-4.416630	-5.107564	-1.226691
H	-3.073934	-4.131473	-1.939526
H	-3.746794	-3.712085	-0.309214
C	1.058247	-2.314326	0.186133
S	-1.527599	-2.295487	-0.256010
C	0.000000	-1.435180	0.000000
H	2.092285	-1.993211	0.363896
C	0.000000	0.000000	0.000000
S	0.002233	0.899428	1.510732
C	0.001157	2.474749	0.727629
C	-0.000030	0.908223	-1.064665
C	-0.001545	2.297013	-0.678287
C	0.001624	0.841837	-2.486150
C	0.001494	2.106670	-3.106916
S	-0.001841	3.354171	-1.965735
C	0.006168	2.361146	-4.559972
O	0.009152	1.427646	-5.350277
O	0.009405	3.644337	-5.004375
F	0.005539	-0.272288	-3.246290
C	0.019554	4.003038	-6.334976
H	0.020155	5.108000	-6.370268
H	-0.871409	3.613681	-6.875609
H	0.918470	3.613062	-6.861878
H	0.001222	3.394771	1.321510
H	0.401636	-9.146471	-0.793825
H	0.103519	-9.150570	0.977367
H	0.179195	-1.444158	-1.064992
$end

$rem
JOBTYPE		SP
EXCHANGE	HF
CORRELATION	pRIMP2
BASIS		cc-pvtz
METHOD		rimp2
AUX_BASIS	rimp2-cc-pvtz
SOLVENT_METHOD	PCM
PURECART	11111
SYMMETRY	false
MEM_TOTAL	110000
SCF_CONVERGENCE = 6
THRESH=10
GUI = 2
$end

$solvent
dielectric 4.90
$end
--------------------------------------------------------------

             Standard Nuclear Orientation (Angstroms)
    I     Atom           X                Y                Z
 ----------------------------------------------------------------
    1      C       0.2554590000    -8.5197410000     0.0937110000
    2      C      -0.7990360000    -7.6359670000    -0.0838690000
    3      S       1.7894250000    -7.6517400000     0.3452600000
    4      C      -0.4183600000    -6.2618940000    -0.0184110000
    5      H      -1.8342940000    -7.9547380000    -0.2591690000
    6      C       0.9877690000    -6.0799850000     0.2297010000
    7      C       1.5552600000    -4.7983820000     0.3026970000
    8      C      -1.2949920000    -5.1535420000    -0.1964590000
    9      C      -0.7264080000    -3.8696260000    -0.1276510000
   10      C       0.6807160000    -3.6889270000     0.1235440000
   11      O      -2.6018520000    -5.4810750000    -0.3967060000
   12      O       2.8681930000    -4.4798710000     0.5026730000
   13      C       3.6914950000    -5.3560260000     1.2629180000
   14      H       4.6140800000    -4.7904960000     1.4946040000
   15      H       3.9741950000    -6.2685130000     0.6937380000
   16      H       3.1995590000    -5.6581870000     2.2127200000
   17      C      -3.4907430000    -4.5469990000    -0.9970160000
   18      H      -4.4166300000    -5.1075640000    -1.2266910000
   19      H      -3.0739340000    -4.1314730000    -1.9395260000
   20      H      -3.7467940000    -3.7120850000    -0.3092140000
   21      C       1.0582470000    -2.3143260000     0.1861330000
   22      S      -1.5275990000    -2.2954870000    -0.2560100000
   23      C       0.0000000000    -1.4351800000     0.0000000000
   24      H       2.0922850000    -1.9932110000     0.3638960000
   25      C       0.0000000000     0.0000000000     0.0000000000
   26      S       0.0022330000     0.8994280000     1.5107320000
   27      C       0.0011570000     2.4747490000     0.7276290000
   28      C      -0.0000300000     0.9082230000    -1.0646650000
   29      C      -0.0015450000     2.2970130000    -0.6782870000
   30      C       0.0016240000     0.8418370000    -2.4861500000
   31      C       0.0014940000     2.1066700000    -3.1069160000
   32      S      -0.0018410000     3.3541710000    -1.9657350000
   33      C       0.0061680000     2.3611460000    -4.5599720000
   34      O       0.0091520000     1.4276460000    -5.3502770000
   35      O       0.0094050000     3.6443370000    -5.0043750000
   36      F       0.0055390000    -0.2722880000    -3.2462900000
   37      C       0.0195540000     4.0030380000    -6.3349760000
   38      H       0.0201550000     5.1080000000    -6.3702680000
   39      H      -0.8714090000     3.6136810000    -6.8756090000
   40      H       0.9184700000     3.6130620000    -6.8618780000
   41      H       0.0012220000     3.3947710000     1.3215100000
   42      H       0.4016360000    -9.1464710000    -0.7938250000
   43      H       0.1035190000    -9.1505700000     0.9773670000
   44      H       0.1791950000    -1.4441580000    -1.0649920000
 ----------------------------------------------------------------

   11   -2755.3295861829      6.99e-07  Convergence criterion met
 Total energy in the final basis set =    -2755.3295861829
        RIMP2         total energy =     -2760.4205470946 a.u.

                    Orbital Energies (a.u.)
 --------------------------------------------------------------

 Alpha MOs
 -- Occupied --
-92.0130 -91.9967 -91.9773 -91.9582 -26.3389 -20.6135 -20.5872 -20.5867
-20.5521 -11.4122 -11.3796 -11.3133 -11.3089 -11.3071 -11.3008 -11.2977
-11.2960 -11.2893 -11.2864 -11.2840 -11.2828 -11.2827 -11.2806 -11.2730
-11.2724 -11.2581 -11.2580 -11.2496 -11.2370  -9.0116  -9.0007  -8.9795
 -8.9608  -6.6923  -6.6917  -6.6914  -6.6820  -6.6813  -6.6800  -6.6606
 -6.6597  -6.6584  -6.6420  -6.6411  -6.6401  -1.6521  -1.4733  -1.4102
 -1.4089  -1.3689  -1.2391  -1.2084  -1.1750  -1.1434  -1.1000  -1.0521
 -1.0457  -1.0297  -1.0089  -0.9976  -0.9729  -0.9596  -0.9486  -0.9409
 -0.8931  -0.8745  -0.8630  -0.8101  -0.7936  -0.7850  -0.7813  -0.7697
 -0.7629  -0.7338  -0.7200  -0.7195  -0.6977  -0.6923  -0.6876  -0.6798
 -0.6762  -0.6738  -0.6553  -0.6484  -0.6312  -0.6292  -0.6200  -0.6148
 -0.6109  -0.6077  -0.5964  -0.5930  -0.5838  -0.5650  -0.5579  -0.5552
 -0.5494  -0.5330  -0.5286  -0.5219  -0.5130  -0.5075  -0.5032  -0.5009
 -0.4878  -0.4854  -0.4779  -0.4693  -0.4631  -0.4625  -0.4604  -0.4459
 -0.4228  -0.4042  -0.3855  -0.3700  -0.3500  -0.2925  -0.2892  -0.2209

          Ground-State Mulliken Net Atomic Charges

     Atom                 Charge (a.u.)
  ----------------------------------------
      1 C                    -0.070301
      2 C                    -0.258321
      3 S                    -0.135219
      4 C                    -0.044258
      5 H                     0.193603
      6 C                    -0.052000
      7 C                     0.227304
      8 C                     0.227580
      9 C                    -0.080652
     10 C                    -0.060827
     11 O                    -0.335173
     12 O                    -0.343462
     13 C                    -0.082504
     14 H                     0.119927
     15 H                     0.092127
     16 H                     0.092544
     17 C                    -0.086736
     18 H                     0.122841
     19 H                     0.093501
     20 H                     0.089852
     21 C                    -0.238295
     22 S                    -0.069718
     23 C                     0.058717
     24 H                     0.205373
     25 C                    -0.094449
     26 S                     0.098575
     27 C                    -0.231515
     28 C                    -0.082958
     29 C                    -0.007544
     30 C                     0.377262
     31 C                    -0.130500
     32 S                     0.040762
     33 C                     0.459473
     34 O                    -0.448395
     35 O                    -0.297350
     36 F                    -0.214696
     37 C                    -0.055114
     38 H                     0.117006
     39 H                     0.084912
     40 H                     0.084812
     41 H                     0.215149
     42 H                     0.117618
     43 H                     0.115071
     44 H                     0.185975
  ----------------------------------------
  Sum of atomic charges =     0.000000

                    Cartesian Multipole Moments
 -----------------------------------------------------------------
    Charge (ESU x 10^10)
                -0.0000
    Dipole Moment (Debye)
         X      -0.0275      Y       3.6768      Z       2.4773
       Tot       4.4336
    Quadrupole Moments (Debye-Ang)
        XX    -187.3308     XY       3.7909     YY    -173.5317
        XZ       7.8536     YZ     -10.6722     ZZ    -201.5189

 Total job time:  334.90s(wall), 10766.22s(cpu)
        *  Thank you very much for using Q-Chem.  Have a nice day.  *
