 Q-Chem 5.4, Q-Chem, Inc., Pleasanton, CA (2021)
 Q-Chem 5.4.0 for Intel X86 EM64T Linux

User input:
--------------------------------------------------------------
$molecule
0 1
C	-0.267851	-8.519741	-0.047927
C	0.801461	-7.635967	-0.056157
S	-1.822194	-7.651740	-0.029285
C	0.415201	-6.261894	-0.054516
H	1.851431	-7.954738	-0.063290
C	-1.012650	-6.079985	-0.054687
C	-1.584194	-4.798382	-0.028030
C	1.309433	-5.153542	-0.031399
C	0.737539	-3.869626	-0.000427
C	-0.691828	-3.688927	-0.003462
O	2.631211	-5.481075	-0.061128
O	-2.911907	-4.479871	0.003021
C	-3.854716	-5.356026	-0.602710
H	-4.803517	-4.790496	-0.670671
H	-4.034285	-6.268513	0.006913
H	-3.535185	-5.658187	-1.623507
C	3.610841	-4.546999	0.375708
H	4.562544	-5.107564	0.441115
H	3.364029	-4.131473	1.376277
H	3.743566	-3.712085	-0.346107
C	-1.074491	-2.314326	0.000458
S	1.548848	-2.295487	-0.013144
C	-0.000000	-1.435180	-0.000000
H	-2.123688	-1.993211	0.004953
C	0.000000	0.000000	0.000000
S	0.579852	0.687566	1.510732
C	1.591625	1.895024	0.727629
C	0.583771	0.695758	-1.064665
C	1.475308	1.760606	-0.678287
C	0.542366	0.643841	-2.486150
C	1.355286	1.612843	-3.106916
S	2.154609	2.570627	-1.965735
C	1.522440	1.804778	-4.559972
O	0.924684	1.087757	-5.350277
O	2.349739	2.785679	-5.004375
F	-0.170780	-0.212144	-3.246290
C	2.588082	3.053936	-6.334976
H	3.298799	3.899999	-6.370268
H	1.655291	3.328371	-6.875609
H	3.026021	2.177385	-6.861878
H	2.183053	2.599759	1.321510
H	-0.257688	-9.146471	0.851509
H	-0.271664	-9.150570	-0.944542
H	0.008462	-1.444158	1.079930
$end

$rem
JOBTYPE		SP
EXCHANGE	HF
CORRELATION	pRIMP2
BASIS		cc-pvtz
METHOD		rimp2
AUX_BASIS	rimp2-cc-pvtz
SOLVENT_METHOD	PCM
PURECART	11111
SYMMETRY	false
MEM_TOTAL	110000
SCF_CONVERGENCE = 6
THRESH=10
GUI = 2
$end

$solvent
dielectric 4.90
$end
--------------------------------------------------------------

             Standard Nuclear Orientation (Angstroms)
    I     Atom           X                Y                Z
 ----------------------------------------------------------------
    1      C      -0.2678510000    -8.5197410000    -0.0479270000
    2      C       0.8014610000    -7.6359670000    -0.0561570000
    3      S      -1.8221940000    -7.6517400000    -0.0292850000
    4      C       0.4152010000    -6.2618940000    -0.0545160000
    5      H       1.8514310000    -7.9547380000    -0.0632900000
    6      C      -1.0126500000    -6.0799850000    -0.0546870000
    7      C      -1.5841940000    -4.7983820000    -0.0280300000
    8      C       1.3094330000    -5.1535420000    -0.0313990000
    9      C       0.7375390000    -3.8696260000    -0.0004270000
   10      C      -0.6918280000    -3.6889270000    -0.0034620000
   11      O       2.6312110000    -5.4810750000    -0.0611280000
   12      O      -2.9119070000    -4.4798710000     0.0030210000
   13      C      -3.8547160000    -5.3560260000    -0.6027100000
   14      H      -4.8035170000    -4.7904960000    -0.6706710000
   15      H      -4.0342850000    -6.2685130000     0.0069130000
   16      H      -3.5351850000    -5.6581870000    -1.6235070000
   17      C       3.6108410000    -4.5469990000     0.3757080000
   18      H       4.5625440000    -5.1075640000     0.4411150000
   19      H       3.3640290000    -4.1314730000     1.3762770000
   20      H       3.7435660000    -3.7120850000    -0.3461070000
   21      C      -1.0744910000    -2.3143260000     0.0004580000
   22      S       1.5488480000    -2.2954870000    -0.0131440000
   23      C       0.0000000000    -1.4351800000     0.0000000000
   24      H      -2.1236880000    -1.9932110000     0.0049530000
   25      C       0.0000000000     0.0000000000     0.0000000000
   26      S       0.5798520000     0.6875660000     1.5107320000
   27      C       1.5916250000     1.8950240000     0.7276290000
   28      C       0.5837710000     0.6957580000    -1.0646650000
   29      C       1.4753080000     1.7606060000    -0.6782870000
   30      C       0.5423660000     0.6438410000    -2.4861500000
   31      C       1.3552860000     1.6128430000    -3.1069160000
   32      S       2.1546090000     2.5706270000    -1.9657350000
   33      C       1.5224400000     1.8047780000    -4.5599720000
   34      O       0.9246840000     1.0877570000    -5.3502770000
   35      O       2.3497390000     2.7856790000    -5.0043750000
   36      F      -0.1707800000    -0.2121440000    -3.2462900000
   37      C       2.5880820000     3.0539360000    -6.3349760000
   38      H       3.2987990000     3.8999990000    -6.3702680000
   39      H       1.6552910000     3.3283710000    -6.8756090000
   40      H       3.0260210000     2.1773850000    -6.8618780000
   41      H       2.1830530000     2.5997590000     1.3215100000
   42      H      -0.2576880000    -9.1464710000     0.8515090000
   43      H      -0.2716640000    -9.1505700000    -0.9445420000
   44      H       0.0084620000    -1.4441580000     1.0799300000
 ----------------------------------------------------------------

   11   -2755.2963842609      7.28e-07  Convergence criterion met
 Total energy in the final basis set =    -2755.2963842609
        RIMP2         total energy =     -2760.3962663457 a.u.

                    Orbital Energies (a.u.)
 --------------------------------------------------------------

 Alpha MOs
 -- Occupied --
-92.0177 -92.0007 -91.9748 -91.9558 -26.3354 -20.6147 -20.5860 -20.5852
-20.5546 -11.4142 -11.3770 -11.3112 -11.3076 -11.3064 -11.3044 -11.2991
-11.2937 -11.2898 -11.2869 -11.2836 -11.2817 -11.2813 -11.2760 -11.2701
-11.2693 -11.2562 -11.2524 -11.2475 -11.2325  -9.0166  -9.0045  -8.9772
 -8.9585  -6.6973  -6.6965  -6.6962  -6.6857  -6.6851  -6.6838  -6.6583
 -6.6574  -6.6561  -6.6397  -6.6388  -6.6377  -1.6483  -1.4747  -1.4087
 -1.4075  -1.3705  -1.2425  -1.2072  -1.1739  -1.1455  -1.0970  -1.0526
 -1.0436  -1.0335  -1.0069  -0.9952  -0.9747  -0.9593  -0.9472  -0.9397
 -0.8916  -0.8743  -0.8608  -0.8087  -0.7948  -0.7831  -0.7783  -0.7740
 -0.7634  -0.7333  -0.7208  -0.7170  -0.6961  -0.6939  -0.6807  -0.6797
 -0.6752  -0.6639  -0.6549  -0.6473  -0.6311  -0.6289  -0.6179  -0.6137
 -0.6113  -0.6096  -0.5999  -0.5920  -0.5779  -0.5625  -0.5600  -0.5545
 -0.5439  -0.5353  -0.5289  -0.5217  -0.5115  -0.5061  -0.5049  -0.4995
 -0.4896  -0.4847  -0.4726  -0.4697  -0.4650  -0.4631  -0.4594  -0.4445
 -0.4207  -0.4027  -0.3835  -0.3682  -0.3494  -0.2971  -0.2876  -0.2181

          Ground-State Mulliken Net Atomic Charges

     Atom                 Charge (a.u.)
  ----------------------------------------
      1 C                    -0.069476
      2 C                    -0.271403
      3 S                    -0.140719
      4 C                    -0.041632
      5 H                     0.191823
      6 C                    -0.055743
      7 C                     0.224996
      8 C                     0.222443
      9 C                    -0.073403
     10 C                    -0.052941
     11 O                    -0.335134
     12 O                    -0.343047
     13 C                    -0.082278
     14 H                     0.119539
     15 H                     0.091471
     16 H                     0.093161
     17 C                    -0.086799
     18 H                     0.123000
     19 H                     0.091025
     20 H                     0.089974
     21 C                    -0.256873
     22 S                    -0.080302
     23 C                     0.013393
     24 H                     0.204938
     25 C                    -0.056283
     26 S                     0.109927
     27 C                    -0.193860
     28 C                    -0.102658
     29 C                    -0.000036
     30 C                     0.370762
     31 C                    -0.138573
     32 S                     0.057490
     33 C                     0.457703
     34 O                    -0.442445
     35 O                    -0.297067
     36 F                    -0.209943
     37 C                    -0.054720
     38 H                     0.117128
     39 H                     0.085305
     40 H                     0.085416
     41 H                     0.219207
     42 H                     0.115378
     43 H                     0.113374
     44 H                     0.187882
  ----------------------------------------
  Sum of atomic charges =     0.000000

                    Cartesian Multipole Moments
 -----------------------------------------------------------------
    Charge (ESU x 10^10)
                 0.0000
    Dipole Moment (Debye)
         X       3.1304      Y       4.6388      Z       3.3913
       Tot       6.5436
    Quadrupole Moments (Debye-Ang)
        XX    -177.6589     XY       5.5964     YY    -186.7688
        XZ      -2.0783     YZ      -8.8207     ZZ    -201.7904

 Total job time:  329.89s(wall), 10866.68s(cpu)
        *  Thank you very much for using Q-Chem.  Have a nice day.  *
