 Q-Chem 5.4, Q-Chem, Inc., Pleasanton, CA (2021)
 Q-Chem 5.4.0 for Intel X86 EM64T Linux

User input:
--------------------------------------------------------------
$molecule
0 1
C	-0.136647	-8.519741	0.235306
C	0.221346	-7.635967	-0.772334
S	-0.650746	-7.651740	1.702286
C	0.090779	-6.261894	-0.408807
H	0.573754	-7.954738	-1.761423
C	-0.397735	-6.079985	0.932876
C	-0.568166	-4.798382	1.479069
C	0.418347	-5.153542	-1.241204
C	0.251852	-3.869626	-0.693206
C	-0.239872	-3.688927	0.648921
O	0.842486	-5.481075	-2.493437
O	-0.993092	-4.479871	2.737331
C	-1.884752	-5.356026	3.416110
H	-2.273124	-4.790496	4.284447
H	-1.373310	-6.268513	3.793352
H	-2.734702	-5.658187	2.766716
C	1.588030	-4.546999	-3.264581
H	1.974995	-5.107564	-4.136519
H	2.443843	-4.131473	-2.690439
H	0.955140	-3.712085	-3.636177
C	-0.367068	-2.314326	1.009848
S	0.517386	-2.295487	-1.459936
C	0.000000	-1.435180	0.000000
H	-0.721689	-1.993211	1.997308
C	0.000000	0.000000	0.000000
S	0.780044	0.447780	1.510732
C	2.143774	1.236372	0.727629
C	0.786529	0.454137	-1.064665
C	1.988499	1.149844	-0.678287
C	0.729864	0.419512	-2.486150
C	1.825177	1.052041	-3.106916
S	2.903877	1.678680	-1.965735
C	2.047896	1.175232	-4.559972
O	1.240953	0.705897	-5.350277
O	3.160791	1.814024	-5.004375
F	-0.233039	-0.140940	-3.246290
C	3.476510	1.984585	-6.334976
H	4.433735	2.536545	-6.370268
H	2.693835	2.561503	-6.875609
H	3.588239	1.011113	-6.861878
H	2.940569	1.696327	1.321510
H	0.712022	-9.146471	0.533380
H	-0.980494	-9.150570	-0.067771
H	1.017696	-1.444158	0.361406
$end

$rem
JOBTYPE		SP
EXCHANGE	HF
CORRELATION	pRIMP2
BASIS		cc-pvtz
METHOD		rimp2
AUX_BASIS	rimp2-cc-pvtz
SOLVENT_METHOD	PCM
PURECART	11111
SYMMETRY	false
MEM_TOTAL	110000
SCF_CONVERGENCE = 6
THRESH=10
GUI = 2
$end

$solvent
dielectric 4.90
$end
--------------------------------------------------------------

             Standard Nuclear Orientation (Angstroms)
    I     Atom           X                Y                Z
 ----------------------------------------------------------------
    1      C      -0.1366470000    -8.5197410000     0.2353060000
    2      C       0.2213460000    -7.6359670000    -0.7723340000
    3      S      -0.6507460000    -7.6517400000     1.7022860000
    4      C       0.0907790000    -6.2618940000    -0.4088070000
    5      H       0.5737540000    -7.9547380000    -1.7614230000
    6      C      -0.3977350000    -6.0799850000     0.9328760000
    7      C      -0.5681660000    -4.7983820000     1.4790690000
    8      C       0.4183470000    -5.1535420000    -1.2412040000
    9      C       0.2518520000    -3.8696260000    -0.6932060000
   10      C      -0.2398720000    -3.6889270000     0.6489210000
   11      O       0.8424860000    -5.4810750000    -2.4934370000
   12      O      -0.9930920000    -4.4798710000     2.7373310000
   13      C      -1.8847520000    -5.3560260000     3.4161100000
   14      H      -2.2731240000    -4.7904960000     4.2844470000
   15      H      -1.3733100000    -6.2685130000     3.7933520000
   16      H      -2.7347020000    -5.6581870000     2.7667160000
   17      C       1.5880300000    -4.5469990000    -3.2645810000
   18      H       1.9749950000    -5.1075640000    -4.1365190000
   19      H       2.4438430000    -4.1314730000    -2.6904390000
   20      H       0.9551400000    -3.7120850000    -3.6361770000
   21      C      -0.3670680000    -2.3143260000     1.0098480000
   22      S       0.5173860000    -2.2954870000    -1.4599360000
   23      C       0.0000000000    -1.4351800000     0.0000000000
   24      H      -0.7216890000    -1.9932110000     1.9973080000
   25      C       0.0000000000     0.0000000000     0.0000000000
   26      S       0.7800440000     0.4477800000     1.5107320000
   27      C       2.1437740000     1.2363720000     0.7276290000
   28      C       0.7865290000     0.4541370000    -1.0646650000
   29      C       1.9884990000     1.1498440000    -0.6782870000
   30      C       0.7298640000     0.4195120000    -2.4861500000
   31      C       1.8251770000     1.0520410000    -3.1069160000
   32      S       2.9038770000     1.6786800000    -1.9657350000
   33      C       2.0478960000     1.1752320000    -4.5599720000
   34      O       1.2409530000     0.7058970000    -5.3502770000
   35      O       3.1607910000     1.8140240000    -5.0043750000
   36      F      -0.2330390000    -0.1409400000    -3.2462900000
   37      C       3.4765100000     1.9845850000    -6.3349760000
   38      H       4.4337350000     2.5365450000    -6.3702680000
   39      H       2.6938350000     2.5615030000    -6.8756090000
   40      H       3.5882390000     1.0111130000    -6.8618780000
   41      H       2.9405690000     1.6963270000     1.3215100000
   42      H       0.7120220000    -9.1464710000     0.5333800000
   43      H      -0.9804940000    -9.1505700000    -0.0677710000
   44      H       1.0176960000    -1.4441580000     0.3614060000
 ----------------------------------------------------------------

   11   -2755.2485630909      7.29e-07  Convergence criterion met
 Total energy in the final basis set =    -2755.2485630909
        RIMP2         total energy =     -2760.3667017718 a.u.

                    Orbital Energies (a.u.)
 --------------------------------------------------------------

 Alpha MOs
 -- Occupied --
-92.0057 -92.0008 -91.9724 -91.9593 -26.3347 -20.6145 -20.5873 -20.5870
-20.5539 -11.4137 -11.3790 -11.3157 -11.3089 -11.3084 -11.3052 -11.3009
-11.2923 -11.2898 -11.2892 -11.2835 -11.2829 -11.2804 -11.2776 -11.2742
-11.2644 -11.2587 -11.2587 -11.2511 -11.2409  -9.0063  -9.0046  -8.9752
 -8.9619  -6.6870  -6.6861  -6.6858  -6.6858  -6.6852  -6.6839  -6.6562
 -6.6554  -6.6541  -6.6431  -6.6422  -6.6412  -1.6490  -1.4744  -1.4106
 -1.4088  -1.3701  -1.2523  -1.2075  -1.1785  -1.1474  -1.0979  -1.0565
 -1.0454  -1.0353  -1.0061  -0.9972  -0.9751  -0.9589  -0.9500  -0.9416
 -0.8935  -0.8755  -0.8568  -0.8137  -0.7970  -0.7861  -0.7771  -0.7673
 -0.7623  -0.7334  -0.7226  -0.7159  -0.6985  -0.6958  -0.6842  -0.6805
 -0.6762  -0.6734  -0.6556  -0.6484  -0.6366  -0.6276  -0.6213  -0.6152
 -0.6110  -0.6095  -0.6029  -0.5936  -0.5769  -0.5680  -0.5614  -0.5583
 -0.5443  -0.5330  -0.5316  -0.5218  -0.5133  -0.5077  -0.5045  -0.5014
 -0.4877  -0.4828  -0.4765  -0.4652  -0.4633  -0.4607  -0.4566  -0.4467
 -0.4246  -0.3987  -0.3798  -0.3720  -0.3511  -0.2998  -0.2836  -0.2147

          Ground-State Mulliken Net Atomic Charges

     Atom                 Charge (a.u.)
  ----------------------------------------
      1 C                    -0.071163
      2 C                    -0.247050
      3 S                    -0.132824
      4 C                    -0.052367
      5 H                     0.195204
      6 C                    -0.047793
      7 C                     0.216521
      8 C                     0.231303
      9 C                    -0.071212
     10 C                    -0.017442
     11 O                    -0.334355
     12 O                    -0.343174
     13 C                    -0.082839
     14 H                     0.119849
     15 H                     0.091547
     16 H                     0.093101
     17 C                    -0.089214
     18 H                     0.124061
     19 H                     0.091220
     20 H                     0.093989
     21 C                    -0.336803
     22 S                    -0.110573
     23 C                     0.128297
     24 H                     0.198631
     25 C                    -0.110298
     26 S                     0.074606
     27 C                    -0.175541
     28 C                    -0.052560
     29 C                    -0.029650
     30 C                     0.343845
     31 C                    -0.126663
     32 S                     0.059193
     33 C                     0.459448
     34 O                    -0.444312
     35 O                    -0.297513
     36 F                    -0.210732
     37 C                    -0.054810
     38 H                     0.117162
     39 H                     0.085425
     40 H                     0.084903
     41 H                     0.219038
     42 H                     0.118985
     43 H                     0.116902
     44 H                     0.175660
  ----------------------------------------
  Sum of atomic charges =     0.000000

                    Cartesian Multipole Moments
 -----------------------------------------------------------------
    Charge (ESU x 10^10)
                -0.0000
    Dipole Moment (Debye)
         X       4.6903      Y       1.5433      Z       2.5884
       Tot       5.5749
    Quadrupole Moments (Debye-Ang)
        XX    -180.3123     XY       7.0919     YY    -179.7604
        XZ     -19.2984     YZ      -1.6073     ZZ    -192.9473

 Total job time:  341.99s(wall), 11282.24s(cpu)
        *  Thank you very much for using Q-Chem.  Have a nice day.  *
