 Q-Chem 5.4, Q-Chem, Inc., Pleasanton, CA (2021)
 Q-Chem 5.4.0 for Intel X86 EM64T Linux

User input:
--------------------------------------------------------------
$molecule
0 1
C	-0.000687	-8.519741	0.272104
C	-0.194476	-7.635967	-0.779533
S	0.287581	-7.651740	1.799596
C	-0.125787	-6.261894	-0.399427
H	-0.383826	-7.954738	-1.812314
C	0.121989	-6.079985	1.006762
C	0.247488	-4.798382	1.564994
C	-0.258303	-5.153542	-1.284087
C	-0.128493	-3.869626	-0.726260
C	0.116725	-3.688927	0.681918
O	-0.517104	-5.481075	-2.580622
O	0.508622	-4.479871	2.867144
C	0.075811	-5.356026	3.900814
H	0.173640	-4.790496	4.847002
H	0.707354	-6.268513	3.971794
H	-0.984963	-5.658187	3.763397
C	-0.257016	-4.546999	-3.621225
H	-0.357864	-5.107564	-4.569828
H	0.771211	-4.131473	-3.551910
H	-0.990913	-3.712085	-3.626592
C	0.187034	-2.314326	1.058088
S	-0.281899	-2.295487	-1.523035
C	-0.000000	-1.435180	-0.000000
H	0.373653	-1.993211	2.090565
C	0.000000	0.000000	0.000000
S	0.690437	0.576430	1.510732
C	1.896512	1.589852	0.727629
C	0.695720	0.583817	-1.064665
C	1.758621	1.477674	-0.678287
C	0.645928	0.539878	-2.486150
C	1.614763	1.352997	-3.106916
S	2.568261	2.157430	-1.965735
C	1.812707	1.512991	-4.559972
O	1.099523	0.910662	-5.350277
O	2.797769	2.335330	-5.004375
F	-0.205024	-0.179266	-3.246290
C	3.079074	2.558124	-6.334976
H	3.925910	3.267919	-6.370268
H	2.208109	2.990367	-6.875609
H	3.358147	1.618843	-6.861878
H	2.601331	2.181180	1.321510
H	0.883319	-9.146471	0.105910
H	-0.883019	-9.150570	0.431555
H	1.062054	-1.444158	-0.195861
$end

$rem
JOBTYPE		SP
EXCHANGE	HF
CORRELATION	pRIMP2
BASIS		cc-pvtz
METHOD		rimp2
AUX_BASIS	rimp2-cc-pvtz
SOLVENT_METHOD	PCM
PURECART	11111
SYMMETRY	false
MEM_TOTAL	110000
SCF_CONVERGENCE = 6
THRESH=10
GUI = 2
$end

$solvent
dielectric 4.90
$end
--------------------------------------------------------------

             Standard Nuclear Orientation (Angstroms)
    I     Atom           X                Y                Z
 ----------------------------------------------------------------
    1      C      -0.0006870000    -8.5197410000     0.2721040000
    2      C      -0.1944760000    -7.6359670000    -0.7795330000
    3      S       0.2875810000    -7.6517400000     1.7995960000
    4      C      -0.1257870000    -6.2618940000    -0.3994270000
    5      H      -0.3838260000    -7.9547380000    -1.8123140000
    6      C       0.1219890000    -6.0799850000     1.0067620000
    7      C       0.2474880000    -4.7983820000     1.5649940000
    8      C      -0.2583030000    -5.1535420000    -1.2840870000
    9      C      -0.1284930000    -3.8696260000    -0.7262600000
   10      C       0.1167250000    -3.6889270000     0.6819180000
   11      O      -0.5171040000    -5.4810750000    -2.5806220000
   12      O       0.5086220000    -4.4798710000     2.8671440000
   13      C       0.0758110000    -5.3560260000     3.9008140000
   14      H       0.1736400000    -4.7904960000     4.8470020000
   15      H       0.7073540000    -6.2685130000     3.9717940000
   16      H      -0.9849630000    -5.6581870000     3.7633970000
   17      C      -0.2570160000    -4.5469990000    -3.6212250000
   18      H      -0.3578640000    -5.1075640000    -4.5698280000
   19      H       0.7712110000    -4.1314730000    -3.5519100000
   20      H      -0.9909130000    -3.7120850000    -3.6265920000
   21      C       0.1870340000    -2.3143260000     1.0580880000
   22      S      -0.2818990000    -2.2954870000    -1.5230350000
   23      C       0.0000000000    -1.4351800000     0.0000000000
   24      H       0.3736530000    -1.9932110000     2.0905650000
   25      C       0.0000000000     0.0000000000     0.0000000000
   26      S       0.6904370000     0.5764300000     1.5107320000
   27      C       1.8965120000     1.5898520000     0.7276290000
   28      C       0.6957200000     0.5838170000    -1.0646650000
   29      C       1.7586210000     1.4776740000    -0.6782870000
   30      C       0.6459280000     0.5398780000    -2.4861500000
   31      C       1.6147630000     1.3529970000    -3.1069160000
   32      S       2.5682610000     2.1574300000    -1.9657350000
   33      C       1.8127070000     1.5129910000    -4.5599720000
   34      O       1.0995230000     0.9106620000    -5.3502770000
   35      O       2.7977690000     2.3353300000    -5.0043750000
   36      F      -0.2050240000    -0.1792660000    -3.2462900000
   37      C       3.0790740000     2.5581240000    -6.3349760000
   38      H       3.9259100000     3.2679190000    -6.3702680000
   39      H       2.2081090000     2.9903670000    -6.8756090000
   40      H       3.3581470000     1.6188430000    -6.8618780000
   41      H       2.6013310000     2.1811800000     1.3215100000
   42      H       0.8833190000    -9.1464710000     0.1059100000
   43      H      -0.8830190000    -9.1505700000     0.4315550000
   44      H       1.0620540000    -1.4441580000    -0.1958610000
 ----------------------------------------------------------------

   11   -2755.2734257817      6.58e-07  Convergence criterion met
 Total energy in the final basis set =    -2755.2734257817
        RIMP2         total energy =     -2760.3849661047 a.u.

                    Orbital Energies (a.u.)
 --------------------------------------------------------------

 Alpha MOs
 -- Occupied --
-92.0141 -91.9984 -91.9723 -91.9591 -26.3348 -20.6126 -20.5873 -20.5869
-20.5506 -11.4109 -11.3782 -11.3087 -11.3086 -11.3054 -11.3027 -11.3003
-11.2988 -11.2889 -11.2831 -11.2830 -11.2823 -11.2812 -11.2802 -11.2738
-11.2683 -11.2586 -11.2581 -11.2508 -11.2400  -9.0134  -9.0022  -8.9752
 -8.9617  -6.6941  -6.6933  -6.6930  -6.6834  -6.6828  -6.6815  -6.6561
 -6.6553  -6.6539  -6.6429  -6.6420  -6.6409  -1.6502  -1.4724  -1.4103
 -1.4090  -1.3677  -1.2468  -1.2078  -1.1775  -1.1459  -1.0983  -1.0540
 -1.0457  -1.0321  -1.0061  -0.9982  -0.9737  -0.9588  -0.9491  -0.9410
 -0.8934  -0.8748  -0.8582  -0.8136  -0.7960  -0.7859  -0.7765  -0.7651
 -0.7599  -0.7327  -0.7221  -0.7169  -0.6993  -0.6949  -0.6861  -0.6792
 -0.6754  -0.6745  -0.6552  -0.6483  -0.6352  -0.6282  -0.6210  -0.6148
 -0.6108  -0.6072  -0.5998  -0.5951  -0.5743  -0.5670  -0.5618  -0.5582
 -0.5483  -0.5324  -0.5300  -0.5209  -0.5127  -0.5079  -0.5040  -0.5000
 -0.4856  -0.4837  -0.4773  -0.4627  -0.4618  -0.4605  -0.4556  -0.4468
 -0.4302  -0.3993  -0.3803  -0.3709  -0.3517  -0.2960  -0.2850  -0.2150

          Ground-State Mulliken Net Atomic Charges

     Atom                 Charge (a.u.)
  ----------------------------------------
      1 C                    -0.070808
      2 C                    -0.249762
      3 S                    -0.134170
      4 C                    -0.047521
      5 H                     0.194991
      6 C                    -0.047490
      7 C                     0.218823
      8 C                     0.229214
      9 C                    -0.072693
     10 C                    -0.035267
     11 O                    -0.334669
     12 O                    -0.344121
     13 C                    -0.082844
     14 H                     0.119723
     15 H                     0.091970
     16 H                     0.093004
     17 C                    -0.087539
     18 H                     0.123536
     19 H                     0.092323
     20 H                     0.092350
     21 C                    -0.297791
     22 S                    -0.097923
     23 C                     0.079679
     24 H                     0.198927
     25 C                    -0.066064
     26 S                     0.097965
     27 C                    -0.218348
     28 C                    -0.076226
     29 C                    -0.022561
     30 C                     0.352100
     31 C                    -0.132161
     32 S                     0.054155
     33 C                     0.457514
     34 O                    -0.450196
     35 O                    -0.298445
     36 F                    -0.208250
     37 C                    -0.054709
     38 H                     0.116710
     39 H                     0.084643
     40 H                     0.084390
     41 H                     0.217428
     42 H                     0.118716
     43 H                     0.116455
     44 H                     0.194942
  ----------------------------------------
  Sum of atomic charges =     0.000000

                    Cartesian Multipole Moments
 -----------------------------------------------------------------
    Charge (ESU x 10^10)
                 0.0000
    Dipole Moment (Debye)
         X       3.5473      Y       1.8979      Z       2.8141
       Tot       4.9097
    Quadrupole Moments (Debye-Ang)
        XX    -191.3505     XY       9.2709     YY    -179.0170
        XZ     -11.1556     YZ      -2.4013     ZZ    -187.6018

 Total job time:  335.11s(wall), 10849.06s(cpu)
        *  Thank you very much for using Q-Chem.  Have a nice day.  *
