 Q-Chem 5.4, Q-Chem, Inc., Pleasanton, CA (2021)
 Q-Chem 5.4.0 for Intel X86 EM64T Linux

User input:
--------------------------------------------------------------
$molecule
0 1
C	-0.208002	-8.519741	-0.175432
C	0.722164	-7.635967	0.352097
S	-1.563424	-7.651740	-0.936458
C	0.386833	-6.261894	0.160388
H	1.635031	-7.954738	0.870905
C	-0.849637	-6.079985	-0.553685
C	-1.357938	-4.798382	-0.816372
C	1.149702	-5.153542	0.627524
C	0.638941	-3.869626	0.368399
C	-0.597409	-3.688927	-0.348912
O	2.309260	-5.481075	1.262667
O	-2.523296	-4.479871	-1.453338
C	-3.036927	-5.356026	-2.449320
H	-3.824632	-4.790496	-2.982577
H	-3.497250	-6.268513	-2.011155
H	-2.249807	-5.658187	-3.173591
C	2.939226	-4.546999	2.130793
H	3.730721	-5.107564	2.663289
H	2.225196	-4.131473	2.873906
H	3.415077	-3.712085	1.572045
C	-0.930765	-2.314326	-0.536849
S	1.347913	-2.295487	0.763041
C	0.000000	-1.435180	0.000000
H	-1.841645	-1.993211	-1.057554
C	0.000000	0.000000	0.000000
S	0.234946	0.868203	1.510732
C	0.641630	2.390125	0.727629
C	0.235036	0.877284	-1.064665
C	0.593019	2.219143	-0.678287
C	0.219452	0.812732	-2.486150
C	0.546689	2.034501	-3.106916
S	0.866345	3.240357	-1.965735
C	0.617067	2.279095	-4.559972
O	0.378342	1.376631	-5.350277
O	0.952308	3.517725	-5.004375
F	-0.065123	-0.264443	-3.246290
C	1.054950	3.861577	-6.334976
H	1.341516	4.928732	-6.370268
H	0.093573	3.716085	-6.875609
H	1.822303	3.252232	-6.861878
H	0.879812	3.278780	1.321510
H	-0.648918	-9.146471	0.608584
H	0.237003	-9.150570	-0.953830
H	-0.532637	-1.444158	0.939477
$end

$rem
JOBTYPE		SP
EXCHANGE	HF
CORRELATION	pRIMP2
BASIS		cc-pvtz
METHOD		rimp2
AUX_BASIS	rimp2-cc-pvtz
SOLVENT_METHOD	PCM
PURECART	11111
SYMMETRY	false
MEM_TOTAL	110000
SCF_CONVERGENCE = 6
THRESH=10
GUI = 2
$end

$solvent
dielectric 4.90
$end
--------------------------------------------------------------

             Standard Nuclear Orientation (Angstroms)
    I     Atom           X                Y                Z
 ----------------------------------------------------------------
    1      C      -0.2080020000    -8.5197410000    -0.1754320000
    2      C       0.7221640000    -7.6359670000     0.3520970000
    3      S      -1.5634240000    -7.6517400000    -0.9364580000
    4      C       0.3868330000    -6.2618940000     0.1603880000
    5      H       1.6350310000    -7.9547380000     0.8709050000
    6      C      -0.8496370000    -6.0799850000    -0.5536850000
    7      C      -1.3579380000    -4.7983820000    -0.8163720000
    8      C       1.1497020000    -5.1535420000     0.6275240000
    9      C       0.6389410000    -3.8696260000     0.3683990000
   10      C      -0.5974090000    -3.6889270000    -0.3489120000
   11      O       2.3092600000    -5.4810750000     1.2626670000
   12      O      -2.5232960000    -4.4798710000    -1.4533380000
   13      C      -3.0369270000    -5.3560260000    -2.4493200000
   14      H      -3.8246320000    -4.7904960000    -2.9825770000
   15      H      -3.4972500000    -6.2685130000    -2.0111550000
   16      H      -2.2498070000    -5.6581870000    -3.1735910000
   17      C       2.9392260000    -4.5469990000     2.1307930000
   18      H       3.7307210000    -5.1075640000     2.6632890000
   19      H       2.2251960000    -4.1314730000     2.8739060000
   20      H       3.4150770000    -3.7120850000     1.5720450000
   21      C      -0.9307650000    -2.3143260000    -0.5368490000
   22      S       1.3479130000    -2.2954870000     0.7630410000
   23      C       0.0000000000    -1.4351800000     0.0000000000
   24      H      -1.8416450000    -1.9932110000    -1.0575540000
   25      C       0.0000000000     0.0000000000     0.0000000000
   26      S       0.2349460000     0.8682030000     1.5107320000
   27      C       0.6416300000     2.3901250000     0.7276290000
   28      C       0.2350360000     0.8772840000    -1.0646650000
   29      C       0.5930190000     2.2191430000    -0.6782870000
   30      C       0.2194520000     0.8127320000    -2.4861500000
   31      C       0.5466890000     2.0345010000    -3.1069160000
   32      S       0.8663450000     3.2403570000    -1.9657350000
   33      C       0.6170670000     2.2790950000    -4.5599720000
   34      O       0.3783420000     1.3766310000    -5.3502770000
   35      O       0.9523080000     3.5177250000    -5.0043750000
   36      F      -0.0651230000    -0.2644430000    -3.2462900000
   37      C       1.0549500000     3.8615770000    -6.3349760000
   38      H       1.3415160000     4.9287320000    -6.3702680000
   39      H       0.0935730000     3.7160850000    -6.8756090000
   40      H       1.8223030000     3.2522320000    -6.8618780000
   41      H       0.8798120000     3.2787800000     1.3215100000
   42      H      -0.6489180000    -9.1464710000     0.6085840000
   43      H       0.2370030000    -9.1505700000    -0.9538300000
   44      H      -0.5326370000    -1.4441580000     0.9394770000
 ----------------------------------------------------------------

   11   -2755.3228712126      7.66e-07  Convergence criterion met
 Total energy in the final basis set =    -2755.3228712126
        RIMP2         total energy =     -2760.4143640775 a.u.

                    Orbital Energies (a.u.)
 --------------------------------------------------------------

 Alpha MOs
 -- Occupied --
-92.0184 -91.9955 -91.9788 -91.9577 -26.3360 -20.6128 -20.5868 -20.5866
-20.5511 -11.4112 -11.3780 -11.3119 -11.3087 -11.3070 -11.2990 -11.2978
-11.2965 -11.2889 -11.2847 -11.2832 -11.2820 -11.2811 -11.2811 -11.2726
-11.2724 -11.2579 -11.2573 -11.2491 -11.2361  -9.0168  -8.9996  -8.9810
 -8.9603  -6.6975  -6.6970  -6.6965  -6.6809  -6.6802  -6.6788  -6.6621
 -6.6612  -6.6599  -6.6415  -6.6406  -6.6396  -1.6488  -1.4725  -1.4102
 -1.4084  -1.3679  -1.2382  -1.2092  -1.1751  -1.1441  -1.0991  -1.0502
 -1.0458  -1.0309  -1.0086  -0.9977  -0.9727  -0.9596  -0.9484  -0.9402
 -0.8935  -0.8717  -0.8644  -0.8076  -0.7951  -0.7851  -0.7778  -0.7728
 -0.7650  -0.7328  -0.7216  -0.7170  -0.6972  -0.6925  -0.6817  -0.6791
 -0.6728  -0.6646  -0.6562  -0.6482  -0.6338  -0.6302  -0.6196  -0.6143
 -0.6111  -0.6072  -0.5958  -0.5927  -0.5803  -0.5663  -0.5585  -0.5528
 -0.5482  -0.5364  -0.5296  -0.5227  -0.5133  -0.5074  -0.5041  -0.5006
 -0.4872  -0.4855  -0.4776  -0.4722  -0.4625  -0.4618  -0.4602  -0.4457
 -0.4253  -0.4016  -0.3852  -0.3701  -0.3512  -0.2931  -0.2876  -0.2196

          Ground-State Mulliken Net Atomic Charges

     Atom                 Charge (a.u.)
  ----------------------------------------
      1 C                    -0.070082
      2 C                    -0.262048
      3 S                    -0.135814
      4 C                    -0.043178
      5 H                     0.193065
      6 C                    -0.051712
      7 C                     0.224565
      8 C                     0.223501
      9 C                    -0.076294
     10 C                    -0.051675
     11 O                    -0.334719
     12 O                    -0.343536
     13 C                    -0.082270
     14 H                     0.120168
     15 H                     0.091488
     16 H                     0.093366
     17 C                    -0.087051
     18 H                     0.123336
     19 H                     0.091828
     20 H                     0.090174
     21 C                    -0.252301
     22 S                    -0.069060
     23 C                     0.056927
     24 H                     0.205788
     25 C                    -0.092430
     26 S                     0.098747
     27 C                    -0.232061
     28 C                    -0.058638
     29 C                    -0.004965
     30 C                     0.374835
     31 C                    -0.148348
     32 S                     0.039477
     33 C                     0.459021
     34 O                    -0.448879
     35 O                    -0.297658
     36 F                    -0.211943
     37 C                    -0.054999
     38 H                     0.116713
     39 H                     0.084657
     40 H                     0.084779
     41 H                     0.216483
     42 H                     0.116924
     43 H                     0.114848
     44 H                     0.188972
  ----------------------------------------
  Sum of atomic charges =     0.000000

                    Cartesian Multipole Moments
 -----------------------------------------------------------------
    Charge (ESU x 10^10)
                -0.0000
    Dipole Moment (Debye)
         X       0.7714      Y       3.6921      Z       3.7479
       Tot       5.3172
    Quadrupole Moments (Debye-Ang)
        XX    -192.4083     XY       0.8324     YY    -176.2320
        XZ       6.3449     YZ     -12.2035     ZZ    -195.4237

 Total job time:  317.18s(wall), 10366.73s(cpu)
        *  Thank you very much for using Q-Chem.  Have a nice day.  *
