 Q-Chem 5.4, Q-Chem, Inc., Pleasanton, CA (2021)
 Q-Chem 5.4.0 for Intel X86 EM64T Linux

User input:
--------------------------------------------------------------
$molecule
0 1
C	-0.208002	-8.519741	-0.175432
C	0.722164	-7.635967	0.352097
S	-1.563424	-7.651740	-0.936458
C	0.386833	-6.261894	0.160388
H	1.635031	-7.954738	0.870905
C	-0.849637	-6.079985	-0.553685
C	-1.357938	-4.798382	-0.816372
C	1.149702	-5.153542	0.627524
C	0.638941	-3.869626	0.368399
C	-0.597409	-3.688927	-0.348912
O	2.309260	-5.481075	1.262667
O	-2.523296	-4.479871	-1.453338
C	-3.036927	-5.356026	-2.449320
H	-3.824632	-4.790496	-2.982577
H	-3.497250	-6.268513	-2.011155
H	-2.249807	-5.658187	-3.173591
C	2.939226	-4.546999	2.130793
H	3.730721	-5.107564	2.663289
H	2.225196	-4.131473	2.873906
H	3.415077	-3.712085	1.572045
C	-0.930765	-2.314326	-0.536849
S	1.347913	-2.295487	0.763041
C	0.000000	-1.435180	0.000000
H	-1.841645	-1.993211	-1.057554
C	0.000000	0.000000	0.000000
S	0.309721	0.844422	1.510732
C	0.847502	2.325108	0.727629
C	0.310602	0.853460	-1.064665
C	0.784173	2.159014	-0.678287
C	0.289451	0.790512	-2.486150
C	0.721927	1.979112	-3.106916
S	1.145464	3.152519	-1.965735
C	0.813355	2.216642	-4.559972
O	0.496884	1.338418	-5.350277
O	1.255274	3.421340	-5.004375
F	-0.087923	-0.257761	-3.246290
C	1.387494	3.754937	-6.334976
H	1.765978	4.793056	-6.370268
H	0.417095	3.693789	-6.875609
H	2.098820	3.081033	-6.861878
H	1.162229	3.189623	1.321510
H	-0.648918	-9.146471	0.608584
H	0.237003	-9.150570	-0.953830
H	-0.532637	-1.444158	0.939477
$end

$rem
JOBTYPE		SP
EXCHANGE	HF
CORRELATION	pRIMP2
BASIS		cc-pvtz
METHOD		rimp2
AUX_BASIS	rimp2-cc-pvtz
SOLVENT_METHOD	PCM
PURECART	11111
SYMMETRY	false
MEM_TOTAL	110000
SCF_CONVERGENCE = 6
THRESH=10
GUI = 2
$end

$solvent
dielectric 4.90
$end
--------------------------------------------------------------

             Standard Nuclear Orientation (Angstroms)
    I     Atom           X                Y                Z
 ----------------------------------------------------------------
    1      C      -0.2080020000    -8.5197410000    -0.1754320000
    2      C       0.7221640000    -7.6359670000     0.3520970000
    3      S      -1.5634240000    -7.6517400000    -0.9364580000
    4      C       0.3868330000    -6.2618940000     0.1603880000
    5      H       1.6350310000    -7.9547380000     0.8709050000
    6      C      -0.8496370000    -6.0799850000    -0.5536850000
    7      C      -1.3579380000    -4.7983820000    -0.8163720000
    8      C       1.1497020000    -5.1535420000     0.6275240000
    9      C       0.6389410000    -3.8696260000     0.3683990000
   10      C      -0.5974090000    -3.6889270000    -0.3489120000
   11      O       2.3092600000    -5.4810750000     1.2626670000
   12      O      -2.5232960000    -4.4798710000    -1.4533380000
   13      C      -3.0369270000    -5.3560260000    -2.4493200000
   14      H      -3.8246320000    -4.7904960000    -2.9825770000
   15      H      -3.4972500000    -6.2685130000    -2.0111550000
   16      H      -2.2498070000    -5.6581870000    -3.1735910000
   17      C       2.9392260000    -4.5469990000     2.1307930000
   18      H       3.7307210000    -5.1075640000     2.6632890000
   19      H       2.2251960000    -4.1314730000     2.8739060000
   20      H       3.4150770000    -3.7120850000     1.5720450000
   21      C      -0.9307650000    -2.3143260000    -0.5368490000
   22      S       1.3479130000    -2.2954870000     0.7630410000
   23      C       0.0000000000    -1.4351800000     0.0000000000
   24      H      -1.8416450000    -1.9932110000    -1.0575540000
   25      C       0.0000000000     0.0000000000     0.0000000000
   26      S       0.3097210000     0.8444220000     1.5107320000
   27      C       0.8475020000     2.3251080000     0.7276290000
   28      C       0.3106020000     0.8534600000    -1.0646650000
   29      C       0.7841730000     2.1590140000    -0.6782870000
   30      C       0.2894510000     0.7905120000    -2.4861500000
   31      C       0.7219270000     1.9791120000    -3.1069160000
   32      S       1.1454640000     3.1525190000    -1.9657350000
   33      C       0.8133550000     2.2166420000    -4.5599720000
   34      O       0.4968840000     1.3384180000    -5.3502770000
   35      O       1.2552740000     3.4213400000    -5.0043750000
   36      F      -0.0879230000    -0.2577610000    -3.2462900000
   37      C       1.3874940000     3.7549370000    -6.3349760000
   38      H       1.7659780000     4.7930560000    -6.3702680000
   39      H       0.4170950000     3.6937890000    -6.8756090000
   40      H       2.0988200000     3.0810330000    -6.8618780000
   41      H       1.1622290000     3.1896230000     1.3215100000
   42      H      -0.6489180000    -9.1464710000     0.6085840000
   43      H       0.2370030000    -9.1505700000    -0.9538300000
   44      H      -0.5326370000    -1.4441580000     0.9394770000
 ----------------------------------------------------------------

   11   -2755.3195264186      7.55e-07  Convergence criterion met
 Total energy in the final basis set =    -2755.3195264186
        RIMP2         total energy =     -2760.4123581567 a.u.

                    Orbital Energies (a.u.)
 --------------------------------------------------------------

 Alpha MOs
 -- Occupied --
-92.0185 -91.9961 -91.9783 -91.9574 -26.3359 -20.6130 -20.5866 -20.5865
-20.5514 -11.4115 -11.3778 -11.3097 -11.3085 -11.3066 -11.2998 -11.2988
-11.2974 -11.2890 -11.2845 -11.2829 -11.2819 -11.2816 -11.2804 -11.2724
-11.2720 -11.2577 -11.2568 -11.2489 -11.2355  -9.0169  -9.0002  -8.9806
 -8.9600  -6.6976  -6.6971  -6.6966  -6.6814  -6.6807  -6.6794  -6.6617
 -6.6608  -6.6595  -6.6413  -6.6403  -6.6393  -1.6488  -1.4728  -1.4100
 -1.4083  -1.3682  -1.2386  -1.2089  -1.1748  -1.1443  -1.0988  -1.0505
 -1.0455  -1.0311  -1.0084  -0.9974  -0.9729  -0.9596  -0.9482  -0.9401
 -0.8933  -0.8719  -0.8640  -0.8075  -0.7952  -0.7849  -0.7776  -0.7729
 -0.7647  -0.7327  -0.7216  -0.7170  -0.6970  -0.6926  -0.6815  -0.6793
 -0.6730  -0.6644  -0.6560  -0.6481  -0.6335  -0.6300  -0.6193  -0.6141
 -0.6111  -0.6075  -0.5963  -0.5927  -0.5795  -0.5660  -0.5584  -0.5530
 -0.5474  -0.5365  -0.5296  -0.5227  -0.5132  -0.5072  -0.5043  -0.5004
 -0.4871  -0.4856  -0.4768  -0.4725  -0.4627  -0.4620  -0.4599  -0.4455
 -0.4250  -0.4014  -0.3849  -0.3697  -0.3512  -0.2933  -0.2876  -0.2193

          Ground-State Mulliken Net Atomic Charges

     Atom                 Charge (a.u.)
  ----------------------------------------
      1 C                    -0.069988
      2 C                    -0.263716
      3 S                    -0.136390
      4 C                    -0.042705
      5 H                     0.192847
      6 C                    -0.051988
      7 C                     0.223380
      8 C                     0.222700
      9 C                    -0.076124
     10 C                    -0.049641
     11 O                    -0.334838
     12 O                    -0.343494
     13 C                    -0.082236
     14 H                     0.120124
     15 H                     0.091466
     16 H                     0.093327
     17 C                    -0.087045
     18 H                     0.123311
     19 H                     0.091719
     20 H                     0.090083
     21 C                    -0.254426
     22 S                    -0.068303
     23 C                     0.045145
     24 H                     0.205586
     25 C                    -0.083239
     26 S                     0.099177
     27 C                    -0.226180
     28 C                    -0.057706
     29 C                    -0.005160
     30 C                     0.368078
     31 C                    -0.145712
     32 S                     0.041908
     33 C                     0.458349
     34 O                    -0.448120
     35 O                    -0.297628
     36 F                    -0.211565
     37 C                    -0.054925
     38 H                     0.116770
     39 H                     0.084727
     40 H                     0.084827
     41 H                     0.216770
     42 H                     0.116706
     43 H                     0.114617
     44 H                     0.189517
  ----------------------------------------
  Sum of atomic charges =     0.000000

                    Cartesian Multipole Moments
 -----------------------------------------------------------------
    Charge (ESU x 10^10)
                -0.0000
    Dipole Moment (Debye)
         X       1.1207      Y       3.8377      Z       3.7076
       Tot       5.4525
    Quadrupole Moments (Debye-Ang)
        XX    -191.5924     XY       2.1102     YY    -177.7382
        XZ       5.3780     YZ     -11.9726     ZZ    -195.1883

 Total job time:  323.55s(wall), 10626.69s(cpu)
        *  Thank you very much for using Q-Chem.  Have a nice day.  *
