 Q-Chem 5.4, Q-Chem, Inc., Pleasanton, CA (2021)
 Q-Chem 5.4.0 for Intel X86 EM64T Linux

User input:
--------------------------------------------------------------
$molecule
0 1
C	0.694800	-8.491498	0.267851
C	0.609575	-7.611804	-0.801461
S	0.637720	-7.625175	1.822194
C	0.491451	-6.242817	-0.415201
H	0.630252	-7.929984	-1.851431
C	0.475427	-6.061615	1.012650
C	0.390283	-4.782565	1.584194
C	0.417881	-5.136668	-1.309433
C	0.336834	-3.854939	-0.737539
C	0.318062	-3.675191	0.691828
O	0.416812	-5.465546	-2.631211
O	0.393456	-4.462560	2.911907
C	-0.133608	-5.388174	3.854716
H	-0.250600	-4.830719	4.803517
H	0.553224	-6.244057	4.034285
H	-1.124185	-5.778154	3.535185
C	0.770575	-4.496951	-3.610841
H	0.884590	-5.049682	-4.562544
H	1.731122	-3.995801	-3.364029
H	-0.021261	-3.728125	-3.743566
C	0.202163	-2.305480	1.074491
S	0.186971	-2.287897	-1.548848
C	0.125084	-1.429719	0.000000
H	0.178654	-1.985194	2.123688
C	0.000000	0.000000	0.000000
S	0.309721	0.844422	1.510732
C	0.847502	2.325108	0.727629
C	0.310602	0.853460	-1.064665
C	0.784173	2.159014	-0.678287
C	0.289451	0.790512	-2.486150
C	0.721927	1.979112	-3.106916
S	1.145464	3.152519	-1.965735
C	0.813355	2.216642	-4.559972
O	0.496884	1.338418	-5.350277
O	1.255274	3.421340	-5.004375
F	-0.087923	-0.257761	-3.246290
C	1.387494	3.754937	-6.334976
H	1.765978	4.793056	-6.370268
H	0.417095	3.693789	-6.875609
H	2.098820	3.081033	-6.861878
H	1.162229	3.189623	1.321510
H	1.645436	-9.037452	0.257688
H	-0.143423	-9.198072	0.271664
H	1.201687	-1.344541	-0.008462
$end

$rem
JOBTYPE		SP
EXCHANGE	HF
CORRELATION	pRIMP2
BASIS		cc-pvtz
METHOD		rimp2
AUX_BASIS	rimp2-cc-pvtz
SOLVENT_METHOD	PCM
PURECART	11111
SYMMETRY	false
MEM_TOTAL	110000
SCF_CONVERGENCE = 6
THRESH=10
GUI = 2
$end

$solvent
dielectric 4.90
$end
--------------------------------------------------------------

             Standard Nuclear Orientation (Angstroms)
    I     Atom           X                Y                Z
 ----------------------------------------------------------------
    1      C       0.6948000000    -8.4914980000     0.2678510000
    2      C       0.6095750000    -7.6118040000    -0.8014610000
    3      S       0.6377200000    -7.6251750000     1.8221940000
    4      C       0.4914510000    -6.2428170000    -0.4152010000
    5      H       0.6302520000    -7.9299840000    -1.8514310000
    6      C       0.4754270000    -6.0616150000     1.0126500000
    7      C       0.3902830000    -4.7825650000     1.5841940000
    8      C       0.4178810000    -5.1366680000    -1.3094330000
    9      C       0.3368340000    -3.8549390000    -0.7375390000
   10      C       0.3180620000    -3.6751910000     0.6918280000
   11      O       0.4168120000    -5.4655460000    -2.6312110000
   12      O       0.3934560000    -4.4625600000     2.9119070000
   13      C      -0.1336080000    -5.3881740000     3.8547160000
   14      H      -0.2506000000    -4.8307190000     4.8035170000
   15      H       0.5532240000    -6.2440570000     4.0342850000
   16      H      -1.1241850000    -5.7781540000     3.5351850000
   17      C       0.7705750000    -4.4969510000    -3.6108410000
   18      H       0.8845900000    -5.0496820000    -4.5625440000
   19      H       1.7311220000    -3.9958010000    -3.3640290000
   20      H      -0.0212610000    -3.7281250000    -3.7435660000
   21      C       0.2021630000    -2.3054800000     1.0744910000
   22      S       0.1869710000    -2.2878970000    -1.5488480000
   23      C       0.1250840000    -1.4297190000     0.0000000000
   24      H       0.1786540000    -1.9851940000     2.1236880000
   25      C       0.0000000000     0.0000000000     0.0000000000
   26      S       0.3097210000     0.8444220000     1.5107320000
   27      C       0.8475020000     2.3251080000     0.7276290000
   28      C       0.3106020000     0.8534600000    -1.0646650000
   29      C       0.7841730000     2.1590140000    -0.6782870000
   30      C       0.2894510000     0.7905120000    -2.4861500000
   31      C       0.7219270000     1.9791120000    -3.1069160000
   32      S       1.1454640000     3.1525190000    -1.9657350000
   33      C       0.8133550000     2.2166420000    -4.5599720000
   34      O       0.4968840000     1.3384180000    -5.3502770000
   35      O       1.2552740000     3.4213400000    -5.0043750000
   36      F      -0.0879230000    -0.2577610000    -3.2462900000
   37      C       1.3874940000     3.7549370000    -6.3349760000
   38      H       1.7659780000     4.7930560000    -6.3702680000
   39      H       0.4170950000     3.6937890000    -6.8756090000
   40      H       2.0988200000     3.0810330000    -6.8618780000
   41      H       1.1622290000     3.1896230000     1.3215100000
   42      H       1.6454360000    -9.0374520000     0.2576880000
   43      H      -0.1434230000    -9.1980720000     0.2716640000
   44      H       1.2016870000    -1.3445410000    -0.0084620000
 ----------------------------------------------------------------

   11   -2755.3125878514      6.25e-07  Convergence criterion met
 Total energy in the final basis set =    -2755.3125878514
        RIMP2         total energy =     -2760.4078629036 a.u.

                    Orbital Energies (a.u.)
 --------------------------------------------------------------

 Alpha MOs
 -- Occupied --
-92.0123 -91.9920 -91.9754 -91.9612 -26.3353 -20.6106 -20.5887 -20.5882
-20.5471 -11.4079 -11.3791 -11.3240 -11.3115 -11.3098 -11.2967 -11.2917
-11.2879 -11.2870 -11.2841 -11.2841 -11.2838 -11.2817 -11.2771 -11.2758
-11.2698 -11.2632 -11.2604 -11.2528 -11.2443  -9.0111  -8.9962  -8.9781
 -8.9638  -6.6920  -6.6913  -6.6908  -6.6774  -6.6768  -6.6754  -6.6590
 -6.6582  -6.6567  -6.6450  -6.6441  -6.6430  -1.6512  -1.4701  -1.4120
 -1.4101  -1.3651  -1.2395  -1.2095  -1.1787  -1.1437  -1.1003  -1.0511
 -1.0472  -1.0296  -1.0079  -1.0004  -0.9714  -0.9600  -0.9500  -0.9404
 -0.8952  -0.8718  -0.8627  -0.8132  -0.7960  -0.7862  -0.7763  -0.7659
 -0.7622  -0.7339  -0.7215  -0.7177  -0.6984  -0.6959  -0.6846  -0.6775
 -0.6738  -0.6721  -0.6567  -0.6495  -0.6373  -0.6297  -0.6229  -0.6160
 -0.6110  -0.6045  -0.5975  -0.5919  -0.5764  -0.5681  -0.5641  -0.5596
 -0.5490  -0.5332  -0.5291  -0.5209  -0.5138  -0.5089  -0.5046  -0.4998
 -0.4838  -0.4830  -0.4795  -0.4653  -0.4603  -0.4597  -0.4585  -0.4486
 -0.4315  -0.4002  -0.3846  -0.3730  -0.3510  -0.2938  -0.2833  -0.2188

          Ground-State Mulliken Net Atomic Charges

     Atom                 Charge (a.u.)
  ----------------------------------------
      1 C                    -0.071430
      2 C                    -0.237741
      3 S                    -0.129163
      4 C                    -0.052570
      5 H                     0.196557
      6 C                    -0.045667
      7 C                     0.216263
      8 C                     0.236014
      9 C                    -0.078871
     10 C                    -0.021141
     11 O                    -0.334094
     12 O                    -0.343881
     13 C                    -0.082682
     14 H                     0.120236
     15 H                     0.091826
     16 H                     0.093062
     17 C                    -0.088865
     18 H                     0.124621
     19 H                     0.092910
     20 H                     0.093081
     21 C                    -0.334019
     22 S                    -0.091507
     23 C                     0.106794
     24 H                     0.197887
     25 C                     0.046003
     26 S                     0.078140
     27 C                    -0.266000
     28 C                    -0.152305
     29 C                    -0.016759
     30 C                     0.367384
     31 C                    -0.142832
     32 S                     0.035141
     33 C                     0.457964
     34 O                    -0.455898
     35 O                    -0.298867
     36 F                    -0.208071
     37 C                    -0.054929
     38 H                     0.116318
     39 H                     0.084119
     40 H                     0.083722
     41 H                     0.214271
     42 H                     0.120425
     43 H                     0.118150
     44 H                     0.216403
  ----------------------------------------
  Sum of atomic charges =     0.000000

                    Cartesian Multipole Moments
 -----------------------------------------------------------------
    Charge (ESU x 10^10)
                 0.0000
    Dipole Moment (Debye)
         X       1.7104      Y       1.0071      Z       2.9310
       Tot       3.5399
    Quadrupole Moments (Debye-Ang)
        XX    -197.8589     XY       2.7956     YY    -166.4745
        XZ      -9.5512     YZ      -4.9878     ZZ    -190.7764

 Total job time:  338.66s(wall), 10488.73s(cpu)
        *  Thank you very much for using Q-Chem.  Have a nice day.  *
