 Q-Chem 5.4, Q-Chem, Inc., Pleasanton, CA (2021)
 Q-Chem 5.4.0 for Intel X86 EM64T Linux

User input:
--------------------------------------------------------------
$molecule
0 1
C	-0.136647	-8.519741	0.235306
C	0.221346	-7.635967	-0.772334
S	-0.650746	-7.651740	1.702286
C	0.090779	-6.261894	-0.408807
H	0.573754	-7.954738	-1.761423
C	-0.397735	-6.079985	0.932876
C	-0.568166	-4.798382	1.479069
C	0.418347	-5.153542	-1.241204
C	0.251852	-3.869626	-0.693206
C	-0.239872	-3.688927	0.648921
O	0.842486	-5.481075	-2.493437
O	-0.993092	-4.479871	2.737331
C	-1.884752	-5.356026	3.416110
H	-2.273124	-4.790496	4.284447
H	-1.373310	-6.268513	3.793352
H	-2.734702	-5.658187	2.766716
C	1.588030	-4.546999	-3.264581
H	1.974995	-5.107564	-4.136519
H	2.443843	-4.131473	-2.690439
H	0.955140	-3.712085	-3.636177
C	-0.367068	-2.314326	1.009848
S	0.517386	-2.295487	-1.459936
C	-0.000000	-1.435180	-0.000000
H	-0.721689	-1.993211	1.997308
C	0.000000	0.000000	0.000000
S	0.579852	0.687566	1.510732
C	1.591625	1.895024	0.727629
C	0.583771	0.695758	-1.064665
C	1.475308	1.760606	-0.678287
C	0.542366	0.643841	-2.486150
C	1.355286	1.612843	-3.106916
S	2.154609	2.570627	-1.965735
C	1.522440	1.804778	-4.559972
O	0.924684	1.087757	-5.350277
O	2.349739	2.785679	-5.004375
F	-0.170780	-0.212144	-3.246290
C	2.588082	3.053936	-6.334976
H	3.298799	3.899999	-6.370268
H	1.655291	3.328371	-6.875609
H	3.026021	2.177385	-6.861878
H	2.183053	2.599759	1.321510
H	0.712022	-9.146471	0.533380
H	-0.980494	-9.150570	-0.067771
H	1.017696	-1.444158	0.361406
$end

$rem
JOBTYPE		SP
EXCHANGE	HF
CORRELATION	pRIMP2
BASIS		cc-pvtz
METHOD		rimp2
AUX_BASIS	rimp2-cc-pvtz
SOLVENT_METHOD	PCM
PURECART	11111
SYMMETRY	false
MEM_TOTAL	110000
SCF_CONVERGENCE = 6
THRESH=10
GUI = 2
$end

$solvent
dielectric 4.90
$end
--------------------------------------------------------------

             Standard Nuclear Orientation (Angstroms)
    I     Atom           X                Y                Z
 ----------------------------------------------------------------
    1      C      -0.1366470000    -8.5197410000     0.2353060000
    2      C       0.2213460000    -7.6359670000    -0.7723340000
    3      S      -0.6507460000    -7.6517400000     1.7022860000
    4      C       0.0907790000    -6.2618940000    -0.4088070000
    5      H       0.5737540000    -7.9547380000    -1.7614230000
    6      C      -0.3977350000    -6.0799850000     0.9328760000
    7      C      -0.5681660000    -4.7983820000     1.4790690000
    8      C       0.4183470000    -5.1535420000    -1.2412040000
    9      C       0.2518520000    -3.8696260000    -0.6932060000
   10      C      -0.2398720000    -3.6889270000     0.6489210000
   11      O       0.8424860000    -5.4810750000    -2.4934370000
   12      O      -0.9930920000    -4.4798710000     2.7373310000
   13      C      -1.8847520000    -5.3560260000     3.4161100000
   14      H      -2.2731240000    -4.7904960000     4.2844470000
   15      H      -1.3733100000    -6.2685130000     3.7933520000
   16      H      -2.7347020000    -5.6581870000     2.7667160000
   17      C       1.5880300000    -4.5469990000    -3.2645810000
   18      H       1.9749950000    -5.1075640000    -4.1365190000
   19      H       2.4438430000    -4.1314730000    -2.6904390000
   20      H       0.9551400000    -3.7120850000    -3.6361770000
   21      C      -0.3670680000    -2.3143260000     1.0098480000
   22      S       0.5173860000    -2.2954870000    -1.4599360000
   23      C       0.0000000000    -1.4351800000     0.0000000000
   24      H      -0.7216890000    -1.9932110000     1.9973080000
   25      C       0.0000000000     0.0000000000     0.0000000000
   26      S       0.5798520000     0.6875660000     1.5107320000
   27      C       1.5916250000     1.8950240000     0.7276290000
   28      C       0.5837710000     0.6957580000    -1.0646650000
   29      C       1.4753080000     1.7606060000    -0.6782870000
   30      C       0.5423660000     0.6438410000    -2.4861500000
   31      C       1.3552860000     1.6128430000    -3.1069160000
   32      S       2.1546090000     2.5706270000    -1.9657350000
   33      C       1.5224400000     1.8047780000    -4.5599720000
   34      O       0.9246840000     1.0877570000    -5.3502770000
   35      O       2.3497390000     2.7856790000    -5.0043750000
   36      F      -0.1707800000    -0.2121440000    -3.2462900000
   37      C       2.5880820000     3.0539360000    -6.3349760000
   38      H       3.2987990000     3.8999990000    -6.3702680000
   39      H       1.6552910000     3.3283710000    -6.8756090000
   40      H       3.0260210000     2.1773850000    -6.8618780000
   41      H       2.1830530000     2.5997590000     1.3215100000
   42      H       0.7120220000    -9.1464710000     0.5333800000
   43      H      -0.9804940000    -9.1505700000    -0.0677710000
   44      H       1.0176960000    -1.4441580000     0.3614060000
 ----------------------------------------------------------------

   11   -2755.2940900144      6.17e-07  Convergence criterion met
 Total energy in the final basis set =    -2755.2940900144
        RIMP2         total energy =     -2760.3963260045 a.u.

                    Orbital Energies (a.u.)
 --------------------------------------------------------------

 Alpha MOs
 -- Occupied --
-92.0085 -91.9943 -91.9752 -91.9604 -26.3345 -20.6121 -20.5881 -20.5878
-20.5496 -11.4101 -11.3790 -11.3137 -11.3103 -11.3093 -11.2977 -11.2967
-11.2950 -11.2886 -11.2840 -11.2834 -11.2830 -11.2823 -11.2811 -11.2760
-11.2681 -11.2616 -11.2598 -11.2520 -11.2426  -9.0082  -8.9984  -8.9778
 -8.9630  -6.6890  -6.6883  -6.6878  -6.6797  -6.6790  -6.6777  -6.6588
 -6.6580  -6.6566  -6.6442  -6.6433  -6.6422  -1.6492  -1.4717  -1.4114
 -1.4096  -1.3669  -1.2431  -1.2086  -1.1783  -1.1451  -1.0991  -1.0527
 -1.0465  -1.0316  -1.0072  -0.9990  -0.9724  -0.9596  -0.9499  -0.9410
 -0.8945  -0.8717  -0.8613  -0.8123  -0.7953  -0.7858  -0.7762  -0.7663
 -0.7646  -0.7333  -0.7217  -0.7164  -0.6972  -0.6954  -0.6842  -0.6785
 -0.6728  -0.6720  -0.6564  -0.6491  -0.6374  -0.6283  -0.6222  -0.6157
 -0.6113  -0.6062  -0.5976  -0.5941  -0.5775  -0.5670  -0.5634  -0.5593
 -0.5472  -0.5337  -0.5292  -0.5211  -0.5136  -0.5085  -0.5041  -0.5010
 -0.4850  -0.4834  -0.4786  -0.4638  -0.4620  -0.4611  -0.4600  -0.4481
 -0.4281  -0.4014  -0.3824  -0.3730  -0.3514  -0.2954  -0.2835  -0.2172

          Ground-State Mulliken Net Atomic Charges

     Atom                 Charge (a.u.)
  ----------------------------------------
      1 C                    -0.071258
      2 C                    -0.243226
      3 S                    -0.130582
      4 C                    -0.052928
      5 H                     0.195825
      6 C                    -0.046210
      7 C                     0.215335
      8 C                     0.231616
      9 C                    -0.077455
     10 C                    -0.011984
     11 O                    -0.334169
     12 O                    -0.343485
     13 C                    -0.082720
     14 H                     0.120061
     15 H                     0.091724
     16 H                     0.093180
     17 C                    -0.089986
     18 H                     0.124418
     19 H                     0.092101
     20 H                     0.093662
     21 C                    -0.343346
     22 S                    -0.093837
     23 C                     0.122274
     24 H                     0.200112
     25 C                     0.009943
     26 S                     0.075261
     27 C                    -0.235045
     28 C                    -0.139076
     29 C                    -0.014864
     30 C                     0.351015
     31 C                    -0.139724
     32 S                     0.041951
     33 C                     0.458347
     34 O                    -0.451135
     35 O                    -0.298383
     36 F                    -0.206985
     37 C                    -0.054722
     38 H                     0.116624
     39 H                     0.084618
     40 H                     0.084146
     41 H                     0.215385
     42 H                     0.119687
     43 H                     0.117527
     44 H                     0.206309
  ----------------------------------------
  Sum of atomic charges =     0.000000

                    Cartesian Multipole Moments
 -----------------------------------------------------------------
    Charge (ESU x 10^10)
                -0.0000
    Dipole Moment (Debye)
         X       2.8448      Y       1.3236      Z       2.9697
       Tot       4.3202
    Quadrupole Moments (Debye-Ang)
        XX    -187.7955     XY       6.3238     YY    -172.2723
        XZ     -16.0255     YZ      -3.6803     ZZ    -195.1272

 Total job time:  358.27s(wall), 11909.55s(cpu)
        *  Thank you very much for using Q-Chem.  Have a nice day.  *
