 Q-Chem 5.4, Q-Chem, Inc., Pleasanton, CA (2021)
 Q-Chem 5.4.0 for Intel X86 EM64T Linux

User input:
--------------------------------------------------------------
$molecule
0 1
C	0.092419	-8.519741	0.255929
C	-0.449364	-7.635967	-0.666007
S	0.885736	-7.651740	1.592708
C	-0.254813	-6.261894	-0.332317
H	-0.980526	-7.954738	-1.571741
C	0.458965	-6.079985	0.904324
C	0.767823	-4.798382	1.385968
C	-0.681909	-5.153542	-1.118303
C	-0.369139	-3.869626	-0.638514
C	0.342916	-3.688927	0.600871
O	-1.368544	-5.481075	-2.248132
O	1.458570	-4.479871	2.520275
C	1.405396	-5.356026	3.639637
H	1.820940	-4.790496	4.495304
H	2.023129	-6.268513	3.490336
H	0.361595	-5.658187	3.873314
C	-1.480048	-4.546999	-3.314934
H	-1.899255	-5.107564	-4.171837
H	-0.490123	-4.131473	-3.601473
H	-2.171521	-3.712085	-3.068969
C	0.537642	-2.314326	0.930308
S	-0.785807	-2.295487	-1.334769
C	-0.000000	-1.435180	-0.000000
H	1.066134	-1.993211	1.836691
C	0.000000	0.000000	0.000000
S	0.451648	0.777811	1.510732
C	1.238377	2.142617	0.727629
C	0.454085	0.786559	-1.064665
C	1.147169	1.990043	-0.678287
C	0.422325	0.728240	-2.486150
C	1.054629	1.823683	-3.106916
S	1.675491	2.905718	-1.965735
C	1.185914	2.041729	-4.559972
O	0.721749	1.231802	-5.350277
O	1.830313	3.151386	-5.004375
F	-0.131347	-0.238577	-3.246290
C	2.018453	3.456956	-6.334976
H	2.571455	4.413580	-6.370268
H	1.052178	3.565244	-6.875609
H	2.601950	2.669768	-6.861878
H	1.698444	2.939346	1.321510
H	0.866272	-9.146471	-0.202590
H	-0.682165	-9.150570	0.707539
H	0.931016	-1.444158	-0.547293
$end

$rem
JOBTYPE		SP
EXCHANGE	HF
CORRELATION	pRIMP2
BASIS		cc-pvtz
METHOD		rimp2
AUX_BASIS	rimp2-cc-pvtz
SOLVENT_METHOD	PCM
PURECART	11111
SYMMETRY	false
MEM_TOTAL	110000
SCF_CONVERGENCE = 6
THRESH=10
GUI = 2
$end

$solvent
dielectric 4.90
$end
--------------------------------------------------------------

             Standard Nuclear Orientation (Angstroms)
    I     Atom           X                Y                Z
 ----------------------------------------------------------------
    1      C       0.0924190000    -8.5197410000     0.2559290000
    2      C      -0.4493640000    -7.6359670000    -0.6660070000
    3      S       0.8857360000    -7.6517400000     1.5927080000
    4      C      -0.2548130000    -6.2618940000    -0.3323170000
    5      H      -0.9805260000    -7.9547380000    -1.5717410000
    6      C       0.4589650000    -6.0799850000     0.9043240000
    7      C       0.7678230000    -4.7983820000     1.3859680000
    8      C      -0.6819090000    -5.1535420000    -1.1183030000
    9      C      -0.3691390000    -3.8696260000    -0.6385140000
   10      C       0.3429160000    -3.6889270000     0.6008710000
   11      O      -1.3685440000    -5.4810750000    -2.2481320000
   12      O       1.4585700000    -4.4798710000     2.5202750000
   13      C       1.4053960000    -5.3560260000     3.6396370000
   14      H       1.8209400000    -4.7904960000     4.4953040000
   15      H       2.0231290000    -6.2685130000     3.4903360000
   16      H       0.3615950000    -5.6581870000     3.8733140000
   17      C      -1.4800480000    -4.5469990000    -3.3149340000
   18      H      -1.8992550000    -5.1075640000    -4.1718370000
   19      H      -0.4901230000    -4.1314730000    -3.6014730000
   20      H      -2.1715210000    -3.7120850000    -3.0689690000
   21      C       0.5376420000    -2.3143260000     0.9303080000
   22      S      -0.7858070000    -2.2954870000    -1.3347690000
   23      C       0.0000000000    -1.4351800000     0.0000000000
   24      H       1.0661340000    -1.9932110000     1.8366910000
   25      C       0.0000000000     0.0000000000     0.0000000000
   26      S       0.4516480000     0.7778110000     1.5107320000
   27      C       1.2383770000     2.1426170000     0.7276290000
   28      C       0.4540850000     0.7865590000    -1.0646650000
   29      C       1.1471690000     1.9900430000    -0.6782870000
   30      C       0.4223250000     0.7282400000    -2.4861500000
   31      C       1.0546290000     1.8236830000    -3.1069160000
   32      S       1.6754910000     2.9057180000    -1.9657350000
   33      C       1.1859140000     2.0417290000    -4.5599720000
   34      O       0.7217490000     1.2318020000    -5.3502770000
   35      O       1.8303130000     3.1513860000    -5.0043750000
   36      F      -0.1313470000    -0.2385770000    -3.2462900000
   37      C       2.0184530000     3.4569560000    -6.3349760000
   38      H       2.5714550000     4.4135800000    -6.3702680000
   39      H       1.0521780000     3.5652440000    -6.8756090000
   40      H       2.6019500000     2.6697680000    -6.8618780000
   41      H       1.6984440000     2.9393460000     1.3215100000
   42      H       0.8662720000    -9.1464710000    -0.2025900000
   43      H      -0.6821650000    -9.1505700000     0.7075390000
   44      H       0.9310160000    -1.4441580000    -0.5472930000
 ----------------------------------------------------------------

   11   -2755.3067226794      6.87e-07  Convergence criterion met
 Total energy in the final basis set =    -2755.3067226794
        RIMP2         total energy =     -2760.4054703073 a.u.

                    Orbital Energies (a.u.)
 --------------------------------------------------------------

 Alpha MOs
 -- Occupied --
-92.0165 -91.9954 -91.9743 -91.9591 -26.3346 -20.6119 -20.5876 -20.5865
-20.5493 -11.4098 -11.3783 -11.3180 -11.3092 -11.3074 -11.2984 -11.2957
-11.2902 -11.2886 -11.2840 -11.2833 -11.2832 -11.2822 -11.2783 -11.2743
-11.2718 -11.2596 -11.2585 -11.2504 -11.2387  -9.0150  -8.9994  -8.9770
 -8.9617  -6.6957  -6.6951  -6.6947  -6.6807  -6.6800  -6.6787  -6.6580
 -6.6571  -6.6558  -6.6429  -6.6420  -6.6410  -1.6492  -1.4715  -1.4103
 -1.4091  -1.3667  -1.2409  -1.2087  -1.1765  -1.1442  -1.0994  -1.0517
 -1.0460  -1.0298  -1.0075  -0.9986  -0.9724  -0.9594  -0.9486  -0.9406
 -0.8935  -0.8736  -0.8611  -0.8123  -0.7933  -0.7858  -0.7772  -0.7657
 -0.7612  -0.7331  -0.7194  -0.7172  -0.6982  -0.6938  -0.6862  -0.6785
 -0.6756  -0.6725  -0.6554  -0.6485  -0.6342  -0.6294  -0.6207  -0.6149
 -0.6105  -0.6060  -0.5970  -0.5935  -0.5769  -0.5661  -0.5609  -0.5580
 -0.5507  -0.5312  -0.5291  -0.5207  -0.5129  -0.5081  -0.5043  -0.4997
 -0.4865  -0.4842  -0.4783  -0.4658  -0.4612  -0.4606  -0.4596  -0.4466
 -0.4311  -0.3979  -0.3836  -0.3704  -0.3512  -0.2929  -0.2855  -0.2170

          Ground-State Mulliken Net Atomic Charges

     Atom                 Charge (a.u.)
  ----------------------------------------
      1 C                    -0.070450
      2 C                    -0.254164
      3 S                    -0.133804
      4 C                    -0.046182
      5 H                     0.194396
      6 C                    -0.049043
      7 C                     0.220148
      8 C                     0.229328
      9 C                    -0.078122
     10 C                    -0.039477
     11 O                    -0.335378
     12 O                    -0.344175
     13 C                    -0.082481
     14 H                     0.119841
     15 H                     0.092038
     16 H                     0.092878
     17 C                    -0.087382
     18 H                     0.123238
     19 H                     0.093470
     20 H                     0.090191
     21 C                    -0.295326
     22 S                    -0.072349
     23 C                     0.059825
     24 H                     0.203842
     25 C                    -0.021469
     26 S                     0.094891
     27 C                    -0.245568
     28 C                    -0.109441
     29 C                    -0.008135
     30 C                     0.369222
     31 C                    -0.141586
     32 S                     0.043531
     33 C                     0.457755
     34 O                    -0.452464
     35 O                    -0.298518
     36 F                    -0.207184
     37 C                    -0.055005
     38 H                     0.116588
     39 H                     0.084379
     40 H                     0.084283
     41 H                     0.214970
     42 H                     0.118315
     43 H                     0.115872
     44 H                     0.208699
  ----------------------------------------
  Sum of atomic charges =     0.000000

                    Cartesian Multipole Moments
 -----------------------------------------------------------------
    Charge (ESU x 10^10)
                -0.0000
    Dipole Moment (Debye)
         X       2.0878      Y       2.3507      Z       2.7427
       Tot       4.1722
    Quadrupole Moments (Debye-Ang)
        XX    -197.0722     XY       8.5653     YY    -176.0211
        XZ      -1.8208     YZ      -5.3796     ZZ    -188.7150

 Total job time:  332.36s(wall), 10581.56s(cpu)
        *  Thank you very much for using Q-Chem.  Have a nice day.  *
