 Q-Chem 5.4, Q-Chem, Inc., Pleasanton, CA (2021)
 Q-Chem 5.4.0 for Intel X86 EM64T Linux

User input:
--------------------------------------------------------------
$molecule
0 1
C	0.235306	-8.519741	0.136647
C	-0.772334	-7.635967	-0.221346
S	1.702286	-7.651740	0.650746
C	-0.408807	-6.261894	-0.090779
H	-1.761423	-7.954738	-0.573754
C	0.932876	-6.079985	0.397735
C	1.479069	-4.798382	0.568166
C	-1.241204	-5.153542	-0.418347
C	-0.693206	-3.869626	-0.251852
C	0.648921	-3.688927	0.239872
O	-2.493437	-5.481075	-0.842486
O	2.737331	-4.479871	0.993092
C	3.416110	-5.356026	1.884752
H	4.284447	-4.790496	2.273124
H	3.793352	-6.268513	1.373310
H	2.766716	-5.658187	2.734702
C	-3.264581	-4.546999	-1.588030
H	-4.136519	-5.107564	-1.974995
H	-2.690439	-4.131473	-2.443843
H	-3.636177	-3.712085	-0.955140
C	1.009848	-2.314326	0.367068
S	-1.459936	-2.295487	-0.517386
C	0.000000	-1.435180	0.000000
H	1.997308	-1.993211	0.721689
C	0.000000	0.000000	0.000000
S	0.080615	0.895811	1.510732
C	0.216842	2.465231	0.727629
C	0.079127	0.904769	-1.064665
C	0.198659	2.288406	-0.678287
C	0.074988	0.838492	-2.486150
C	0.185097	2.098524	-3.106916
S	0.290501	3.341568	-1.965735
C	0.211932	2.351623	-4.559972
O	0.133545	1.421416	-5.350277
O	0.326994	3.629649	-5.004375
F	-0.018214	-0.271734	-3.246290
C	0.368367	3.986101	-6.334976
H	0.465270	5.086806	-6.370268
H	-0.553140	3.675878	-6.875609
H	1.229874	3.519263	-6.861878
H	0.297091	3.381746	1.321510
H	0.533380	-9.146471	-0.712022
H	-0.067771	-9.150570	0.980494
H	0.361406	-1.444158	-1.017696
$end

$rem
JOBTYPE		SP
EXCHANGE	HF
CORRELATION	pRIMP2
BASIS		cc-pvtz
METHOD		rimp2
AUX_BASIS	rimp2-cc-pvtz
SOLVENT_METHOD	PCM
PURECART	11111
SYMMETRY	false
MEM_TOTAL	110000
SCF_CONVERGENCE = 6
THRESH=10
GUI = 2
$end

$solvent
dielectric 4.90
$end
--------------------------------------------------------------

             Standard Nuclear Orientation (Angstroms)
    I     Atom           X                Y                Z
 ----------------------------------------------------------------
    1      C       0.2353060000    -8.5197410000     0.1366470000
    2      C      -0.7723340000    -7.6359670000    -0.2213460000
    3      S       1.7022860000    -7.6517400000     0.6507460000
    4      C      -0.4088070000    -6.2618940000    -0.0907790000
    5      H      -1.7614230000    -7.9547380000    -0.5737540000
    6      C       0.9328760000    -6.0799850000     0.3977350000
    7      C       1.4790690000    -4.7983820000     0.5681660000
    8      C      -1.2412040000    -5.1535420000    -0.4183470000
    9      C      -0.6932060000    -3.8696260000    -0.2518520000
   10      C       0.6489210000    -3.6889270000     0.2398720000
   11      O      -2.4934370000    -5.4810750000    -0.8424860000
   12      O       2.7373310000    -4.4798710000     0.9930920000
   13      C       3.4161100000    -5.3560260000     1.8847520000
   14      H       4.2844470000    -4.7904960000     2.2731240000
   15      H       3.7933520000    -6.2685130000     1.3733100000
   16      H       2.7667160000    -5.6581870000     2.7347020000
   17      C      -3.2645810000    -4.5469990000    -1.5880300000
   18      H      -4.1365190000    -5.1075640000    -1.9749950000
   19      H      -2.6904390000    -4.1314730000    -2.4438430000
   20      H      -3.6361770000    -3.7120850000    -0.9551400000
   21      C       1.0098480000    -2.3143260000     0.3670680000
   22      S      -1.4599360000    -2.2954870000    -0.5173860000
   23      C       0.0000000000    -1.4351800000     0.0000000000
   24      H       1.9973080000    -1.9932110000     0.7216890000
   25      C       0.0000000000     0.0000000000     0.0000000000
   26      S       0.0806150000     0.8958110000     1.5107320000
   27      C       0.2168420000     2.4652310000     0.7276290000
   28      C       0.0791270000     0.9047690000    -1.0646650000
   29      C       0.1986590000     2.2884060000    -0.6782870000
   30      C       0.0749880000     0.8384920000    -2.4861500000
   31      C       0.1850970000     2.0985240000    -3.1069160000
   32      S       0.2905010000     3.3415680000    -1.9657350000
   33      C       0.2119320000     2.3516230000    -4.5599720000
   34      O       0.1335450000     1.4214160000    -5.3502770000
   35      O       0.3269940000     3.6296490000    -5.0043750000
   36      F      -0.0182140000    -0.2717340000    -3.2462900000
   37      C       0.3683670000     3.9861010000    -6.3349760000
   38      H       0.4652700000     5.0868060000    -6.3702680000
   39      H      -0.5531400000     3.6758780000    -6.8756090000
   40      H       1.2298740000     3.5192630000    -6.8618780000
   41      H       0.2970910000     3.3817460000     1.3215100000
   42      H       0.5333800000    -9.1464710000    -0.7120220000
   43      H      -0.0677710000    -9.1505700000     0.9804940000
   44      H       0.3614060000    -1.4441580000    -1.0176960000
 ----------------------------------------------------------------

   11   -2755.3287466330      7.16e-07  Convergence criterion met
 Total energy in the final basis set =    -2755.3287466330
        RIMP2         total energy =     -2760.4200674174 a.u.

                    Orbital Energies (a.u.)
 --------------------------------------------------------------

 Alpha MOs
 -- Occupied --
-92.0137 -91.9964 -91.9771 -91.9584 -26.3385 -20.6133 -20.5873 -20.5867
-20.5517 -11.4119 -11.3795 -11.3146 -11.3091 -11.3073 -11.3000 -11.2978
-11.2948 -11.2892 -11.2853 -11.2838 -11.2830 -11.2828 -11.2812 -11.2734
-11.2726 -11.2586 -11.2583 -11.2498 -11.2375  -9.0123  -9.0005  -8.9793
 -8.9610  -6.6930  -6.6924  -6.6920  -6.6817  -6.6811  -6.6797  -6.6604
 -6.6595  -6.6582  -6.6423  -6.6413  -6.6403  -1.6516  -1.4731  -1.4102
 -1.4090  -1.3685  -1.2391  -1.2086  -1.1753  -1.1435  -1.1002  -1.0520
 -1.0459  -1.0296  -1.0089  -0.9978  -0.9727  -0.9596  -0.9487  -0.9410
 -0.8932  -0.8744  -0.8630  -0.8106  -0.7931  -0.7854  -0.7811  -0.7690
 -0.7630  -0.7338  -0.7196  -0.7194  -0.6977  -0.6924  -0.6875  -0.6796
 -0.6763  -0.6735  -0.6553  -0.6485  -0.6310  -0.6297  -0.6202  -0.6150
 -0.6108  -0.6075  -0.5962  -0.5934  -0.5833  -0.5650  -0.5581  -0.5559
 -0.5504  -0.5324  -0.5283  -0.5216  -0.5132  -0.5076  -0.5035  -0.5007
 -0.4881  -0.4853  -0.4783  -0.4691  -0.4628  -0.4623  -0.4605  -0.4460
 -0.4245  -0.4029  -0.3855  -0.3702  -0.3502  -0.2927  -0.2886  -0.2206

          Ground-State Mulliken Net Atomic Charges

     Atom                 Charge (a.u.)
  ----------------------------------------
      1 C                    -0.070359
      2 C                    -0.257167
      3 S                    -0.134595
      4 C                    -0.045375
      5 H                     0.193747
      6 C                    -0.051228
      7 C                     0.224741
      8 C                     0.230473
      9 C                    -0.082958
     10 C                    -0.060379
     11 O                    -0.335296
     12 O                    -0.343664
     13 C                    -0.082543
     14 H                     0.119923
     15 H                     0.092043
     16 H                     0.092672
     17 C                    -0.086824
     18 H                     0.122837
     19 H                     0.093804
     20 H                     0.089775
     21 C                    -0.236903
     22 S                    -0.068922
     23 C                     0.054563
     24 H                     0.207489
     25 C                    -0.088466
     26 S                     0.099069
     27 C                    -0.235682
     28 C                    -0.086173
     29 C                    -0.007128
     30 C                     0.378047
     31 C                    -0.132982
     32 S                     0.040631
     33 C                     0.459427
     34 O                    -0.449053
     35 O                    -0.297462
     36 F                    -0.214401
     37 C                    -0.055173
     38 H                     0.116930
     39 H                     0.084852
     40 H                     0.084745
     41 H                     0.214964
     42 H                     0.117779
     43 H                     0.115210
     44 H                     0.189010
  ----------------------------------------
  Sum of atomic charges =     0.000000

                    Cartesian Multipole Moments
 -----------------------------------------------------------------
    Charge (ESU x 10^10)
                -0.0000
    Dipole Moment (Debye)
         X       0.3815      Y       3.4812      Z       2.5110
       Tot       4.3092
    Quadrupole Moments (Debye-Ang)
        XX    -190.1762     XY       5.0203     YY    -173.1422
        XZ       8.1040     YZ      -9.8622     ZZ    -198.6953

 Total job time:  328.24s(wall), 10577.43s(cpu)
        *  Thank you very much for using Q-Chem.  Have a nice day.  *
