 Q-Chem 5.4, Q-Chem, Inc., Pleasanton, CA (2021)
 Q-Chem 5.4.0 for Intel X86 EM64T Linux

User input:
--------------------------------------------------------------
$molecule
0 1
C	-0.208886	-8.519741	0.174379
C	0.472151	-7.635967	-0.650052
S	-1.193717	-7.651740	1.377058
C	0.225125	-6.261894	-0.353105
H	1.141594	-7.954738	-1.458961
C	-0.692811	-6.079985	0.740583
C	-1.039773	-4.798382	1.195546
C	0.817634	-5.153542	-1.023267
C	0.473754	-3.869626	-0.565262
C	-0.447350	-3.688927	0.527745
O	1.644483	-5.481075	-2.054917
O	-1.869424	-4.479871	2.232592
C	-2.939466	-5.356026	2.565470
H	-3.601405	-4.790496	3.248608
H	-2.587892	-6.268513	3.094885
H	-3.516052	-5.658187	1.664539
C	2.608813	-4.546999	-2.524564
H	3.270661	-5.107564	-3.211568
H	3.216646	-4.131473	-1.692342
H	2.141184	-3.712085	-3.090211
C	-0.690319	-2.314326	0.823402
S	0.985511	-2.295487	-1.194935
C	-0.000000	-1.435180	-0.000000
H	-1.361286	-1.993211	1.630024
C	0.000000	0.000000	0.000000
S	0.579852	0.687566	1.510732
C	1.591625	1.895024	0.727629
C	0.583771	0.695758	-1.064665
C	1.475308	1.760606	-0.678287
C	0.542366	0.643841	-2.486150
C	1.355286	1.612843	-3.106916
S	2.154609	2.570627	-1.965735
C	1.522440	1.804778	-4.559972
O	0.924684	1.087757	-5.350277
O	2.349739	2.785679	-5.004375
F	-0.170780	-0.212144	-3.246290
C	2.588082	3.053936	-6.334976
H	3.298799	3.899999	-6.370268
H	1.655291	3.328371	-6.875609
H	3.026021	2.177385	-6.861878
H	2.183053	2.599759	1.321510
H	0.486655	-9.146471	0.744739
H	-0.898184	-9.150570	-0.399033
H	0.832713	-1.444158	0.687683
$end

$rem
JOBTYPE		SP
EXCHANGE	HF
CORRELATION	pRIMP2
BASIS		cc-pvtz
METHOD		rimp2
AUX_BASIS	rimp2-cc-pvtz
SOLVENT_METHOD	PCM
PURECART	11111
SYMMETRY	false
MEM_TOTAL	110000
SCF_CONVERGENCE = 6
THRESH=10
GUI = 2
$end

$solvent
dielectric 4.90
$end
--------------------------------------------------------------

             Standard Nuclear Orientation (Angstroms)
    I     Atom           X                Y                Z
 ----------------------------------------------------------------
    1      C      -0.2088860000    -8.5197410000     0.1743790000
    2      C       0.4721510000    -7.6359670000    -0.6500520000
    3      S      -1.1937170000    -7.6517400000     1.3770580000
    4      C       0.2251250000    -6.2618940000    -0.3531050000
    5      H       1.1415940000    -7.9547380000    -1.4589610000
    6      C      -0.6928110000    -6.0799850000     0.7405830000
    7      C      -1.0397730000    -4.7983820000     1.1955460000
    8      C       0.8176340000    -5.1535420000    -1.0232670000
    9      C       0.4737540000    -3.8696260000    -0.5652620000
   10      C      -0.4473500000    -3.6889270000     0.5277450000
   11      O       1.6444830000    -5.4810750000    -2.0549170000
   12      O      -1.8694240000    -4.4798710000     2.2325920000
   13      C      -2.9394660000    -5.3560260000     2.5654700000
   14      H      -3.6014050000    -4.7904960000     3.2486080000
   15      H      -2.5878920000    -6.2685130000     3.0948850000
   16      H      -3.5160520000    -5.6581870000     1.6645390000
   17      C       2.6088130000    -4.5469990000    -2.5245640000
   18      H       3.2706610000    -5.1075640000    -3.2115680000
   19      H       3.2166460000    -4.1314730000    -1.6923420000
   20      H       2.1411840000    -3.7120850000    -3.0902110000
   21      C      -0.6903190000    -2.3143260000     0.8234020000
   22      S       0.9855110000    -2.2954870000    -1.1949350000
   23      C       0.0000000000    -1.4351800000     0.0000000000
   24      H      -1.3612860000    -1.9932110000     1.6300240000
   25      C       0.0000000000     0.0000000000     0.0000000000
   26      S       0.5798520000     0.6875660000     1.5107320000
   27      C       1.5916250000     1.8950240000     0.7276290000
   28      C       0.5837710000     0.6957580000    -1.0646650000
   29      C       1.4753080000     1.7606060000    -0.6782870000
   30      C       0.5423660000     0.6438410000    -2.4861500000
   31      C       1.3552860000     1.6128430000    -3.1069160000
   32      S       2.1546090000     2.5706270000    -1.9657350000
   33      C       1.5224400000     1.8047780000    -4.5599720000
   34      O       0.9246840000     1.0877570000    -5.3502770000
   35      O       2.3497390000     2.7856790000    -5.0043750000
   36      F      -0.1707800000    -0.2121440000    -3.2462900000
   37      C       2.5880820000     3.0539360000    -6.3349760000
   38      H       3.2987990000     3.8999990000    -6.3702680000
   39      H       1.6552910000     3.3283710000    -6.8756090000
   40      H       3.0260210000     2.1773850000    -6.8618780000
   41      H       2.1830530000     2.5997590000     1.3215100000
   42      H       0.4866550000    -9.1464710000     0.7447390000
   43      H      -0.8981840000    -9.1505700000    -0.3990330000
   44      H       0.8327130000    -1.4441580000     0.6876830000
 ----------------------------------------------------------------

   11   -2755.2925581686      7.81e-07  Convergence criterion met
 Total energy in the final basis set =    -2755.2925581686
        RIMP2         total energy =     -2760.3937222409 a.u.

                    Orbital Energies (a.u.)
 --------------------------------------------------------------

 Alpha MOs
 -- Occupied --
-92.0097 -91.9966 -91.9766 -91.9583 -26.3343 -20.6135 -20.5872 -20.5865
-20.5522 -11.4122 -11.3788 -11.3087 -11.3085 -11.3071 -11.3016 -11.3013
-11.2979 -11.2892 -11.2852 -11.2838 -11.2828 -11.2824 -11.2790 -11.2731
-11.2695 -11.2581 -11.2580 -11.2497 -11.2372  -9.0096  -9.0007  -8.9789
 -8.9609  -6.6903  -6.6896  -6.6891  -6.6819  -6.6813  -6.6799  -6.6600
 -6.6592  -6.6579  -6.6422  -6.6412  -6.6402  -1.6478  -1.4733  -1.4100
 -1.4088  -1.3688  -1.2438  -1.2085  -1.1764  -1.1456  -1.0983  -1.0529
 -1.0453  -1.0330  -1.0073  -0.9974  -0.9735  -0.9595  -0.9488  -0.9408
 -0.8933  -0.8725  -0.8613  -0.8112  -0.7942  -0.7854  -0.7759  -0.7699
 -0.7647  -0.7331  -0.7211  -0.7160  -0.6965  -0.6943  -0.6826  -0.6796
 -0.6734  -0.6689  -0.6559  -0.6484  -0.6374  -0.6276  -0.6201  -0.6149
 -0.6113  -0.6080  -0.5982  -0.5936  -0.5792  -0.5662  -0.5626  -0.5576
 -0.5466  -0.5339  -0.5293  -0.5213  -0.5128  -0.5076  -0.5037  -0.5013
 -0.4871  -0.4833  -0.4768  -0.4665  -0.4625  -0.4621  -0.4607  -0.4466
 -0.4258  -0.4007  -0.3842  -0.3714  -0.3514  -0.2951  -0.2853  -0.2161

          Ground-State Mulliken Net Atomic Charges

     Atom                 Charge (a.u.)
  ----------------------------------------
      1 C                    -0.070219
      2 C                    -0.259059
      3 S                    -0.135455
      4 C                    -0.047900
      5 H                     0.193765
      6 C                    -0.046637
      7 C                     0.214487
      8 C                     0.223871
      9 C                    -0.072725
     10 C                    -0.019508
     11 O                    -0.334769
     12 O                    -0.343573
     13 C                    -0.082618
     14 H                     0.119752
     15 H                     0.091853
     16 H                     0.093174
     17 C                    -0.089134
     18 H                     0.123892
     19 H                     0.091660
     20 H                     0.091791
     21 C                    -0.326941
     22 S                    -0.095812
     23 C                     0.114756
     24 H                     0.202663
     25 C                    -0.029491
     26 S                     0.085238
     27 C                    -0.214939
     28 C                    -0.134028
     29 C                    -0.010728
     30 C                     0.370571
     31 C                    -0.138844
     32 S                     0.045275
     33 C                     0.459161
     34 O                    -0.446390
     35 O                    -0.297670
     36 F                    -0.207990
     37 C                    -0.054714
     38 H                     0.116921
     39 H                     0.085078
     40 H                     0.084733
     41 H                     0.216077
     42 H                     0.117495
     43 H                     0.115420
     44 H                     0.201510
  ----------------------------------------
  Sum of atomic charges =     0.000000

                    Cartesian Multipole Moments
 -----------------------------------------------------------------
    Charge (ESU x 10^10)
                -0.0000
    Dipole Moment (Debye)
         X       3.0866      Y       2.8134      Z       3.1225
       Tot       5.2146
    Quadrupole Moments (Debye-Ang)
        XX    -181.0693     XY       5.7967     YY    -179.8851
        XZ     -15.5444     YZ      -5.4036     ZZ    -200.2495

 Total job time:  341.95s(wall), 10841.47s(cpu)
        *  Thank you very much for using Q-Chem.  Have a nice day.  *
