 Q-Chem 5.4, Q-Chem, Inc., Pleasanton, CA (2021)
 Q-Chem 5.4.0 for Intel X86 EM64T Linux

User input:
--------------------------------------------------------------
$molecule
0 1
C	0.135457	-8.519741	0.235993
C	-0.558188	-7.635967	-0.577858
S	1.148850	-7.651740	1.414705
C	-0.308648	-6.261894	-0.283020
H	-1.238560	-7.954738	-1.377597
C	0.609026	-6.079985	0.810887
C	0.996828	-4.798382	1.231581
C	-0.865740	-5.153542	-0.982901
C	-0.474408	-3.869626	-0.564713
C	0.442046	-3.688927	0.532196
O	-1.738137	-5.481075	-1.976332
O	1.874052	-4.479871	2.228709
C	2.016062	-5.356026	3.340298
H	2.573877	-4.790496	4.110807
H	2.598484	-6.268513	3.085998
H	1.028695	-5.658187	3.751679
C	-2.033195	-4.546999	-3.007565
H	-2.594833	-5.107564	-3.778655
H	-1.108067	-4.131473	-3.461650
H	-2.671451	-3.712085	-2.645264
C	0.691020	-2.314326	0.822814
S	-1.005649	-2.295487	-1.178037
C	-0.000000	-1.435180	-0.000000
H	1.368875	-1.993211	1.623656
C	0.000000	0.000000	0.000000
S	0.158383	0.885376	1.510732
C	0.430876	2.436951	0.727629
C	0.157682	0.894430	-1.064665
C	0.397351	2.262384	-0.678287
C	0.147783	0.828765	-2.486150
C	0.367291	2.074406	-3.106916
S	0.580633	3.303533	-1.965735
C	0.416083	2.324204	-4.559972
O	0.256921	1.404367	-5.350277
O	0.642094	3.587338	-5.004375
F	-0.041828	-0.269113	-3.246290
C	0.714377	3.938827	-6.334976
H	0.906844	5.026898	-6.370268
H	-0.230661	3.710099	-6.875609
H	1.531918	3.398681	-6.861878
H	0.590699	3.342984	1.321510
H	0.817932	-9.146471	-0.349939
H	-0.548939	-9.150570	0.815247
H	0.821835	-1.444158	-0.700647
$end

$rem
JOBTYPE		SP
EXCHANGE	HF
CORRELATION	pRIMP2
BASIS		cc-pvtz
METHOD		rimp2
AUX_BASIS	rimp2-cc-pvtz
SOLVENT_METHOD	PCM
PURECART	11111
SYMMETRY	false
MEM_TOTAL	110000
SCF_CONVERGENCE = 6
THRESH=10
GUI = 2
$end

$solvent
dielectric 4.90
$end
--------------------------------------------------------------

             Standard Nuclear Orientation (Angstroms)
    I     Atom           X                Y                Z
 ----------------------------------------------------------------
    1      C       0.1354570000    -8.5197410000     0.2359930000
    2      C      -0.5581880000    -7.6359670000    -0.5778580000
    3      S       1.1488500000    -7.6517400000     1.4147050000
    4      C      -0.3086480000    -6.2618940000    -0.2830200000
    5      H      -1.2385600000    -7.9547380000    -1.3775970000
    6      C       0.6090260000    -6.0799850000     0.8108870000
    7      C       0.9968280000    -4.7983820000     1.2315810000
    8      C      -0.8657400000    -5.1535420000    -0.9829010000
    9      C      -0.4744080000    -3.8696260000    -0.5647130000
   10      C       0.4420460000    -3.6889270000     0.5321960000
   11      O      -1.7381370000    -5.4810750000    -1.9763320000
   12      O       1.8740520000    -4.4798710000     2.2287090000
   13      C       2.0160620000    -5.3560260000     3.3402980000
   14      H       2.5738770000    -4.7904960000     4.1108070000
   15      H       2.5984840000    -6.2685130000     3.0859980000
   16      H       1.0286950000    -5.6581870000     3.7516790000
   17      C      -2.0331950000    -4.5469990000    -3.0075650000
   18      H      -2.5948330000    -5.1075640000    -3.7786550000
   19      H      -1.1080670000    -4.1314730000    -3.4616500000
   20      H      -2.6714510000    -3.7120850000    -2.6452640000
   21      C       0.6910200000    -2.3143260000     0.8228140000
   22      S      -1.0056490000    -2.2954870000    -1.1780370000
   23      C       0.0000000000    -1.4351800000     0.0000000000
   24      H       1.3688750000    -1.9932110000     1.6236560000
   25      C       0.0000000000     0.0000000000     0.0000000000
   26      S       0.1583830000     0.8853760000     1.5107320000
   27      C       0.4308760000     2.4369510000     0.7276290000
   28      C       0.1576820000     0.8944300000    -1.0646650000
   29      C       0.3973510000     2.2623840000    -0.6782870000
   30      C       0.1477830000     0.8287650000    -2.4861500000
   31      C       0.3672910000     2.0744060000    -3.1069160000
   32      S       0.5806330000     3.3035330000    -1.9657350000
   33      C       0.4160830000     2.3242040000    -4.5599720000
   34      O       0.2569210000     1.4043670000    -5.3502770000
   35      O       0.6420940000     3.5873380000    -5.0043750000
   36      F      -0.0418280000    -0.2691130000    -3.2462900000
   37      C       0.7143770000     3.9388270000    -6.3349760000
   38      H       0.9068440000     5.0268980000    -6.3702680000
   39      H      -0.2306610000     3.7100990000    -6.8756090000
   40      H       1.5319180000     3.3986810000    -6.8618780000
   41      H       0.5906990000     3.3429840000     1.3215100000
   42      H       0.8179320000    -9.1464710000    -0.3499390000
   43      H      -0.5489390000    -9.1505700000     0.8152470000
   44      H       0.8218350000    -1.4441580000    -0.7006470000
 ----------------------------------------------------------------

   11   -2755.3246169315      7.26e-07  Convergence criterion met
 Total energy in the final basis set =    -2755.3246169315
        RIMP2         total energy =     -2760.4169089528 a.u.

                    Orbital Energies (a.u.)
 --------------------------------------------------------------

 Alpha MOs
 -- Occupied --
-92.0154 -91.9941 -91.9767 -91.9595 -26.3354 -20.6117 -20.5878 -20.5871
-20.5489 -11.4095 -11.3788 -11.3218 -11.3096 -11.3084 -11.2974 -11.2948
-11.2884 -11.2870 -11.2845 -11.2838 -11.2834 -11.2834 -11.2792 -11.2749
-11.2727 -11.2608 -11.2590 -11.2508 -11.2395  -9.0138  -8.9982  -8.9792
 -8.9621  -6.6946  -6.6940  -6.6935  -6.6794  -6.6788  -6.6774  -6.6603
 -6.6594  -6.6581  -6.6433  -6.6424  -6.6414  -1.6492  -1.4713  -1.4107
 -1.4095  -1.3664  -1.2385  -1.2095  -1.1766  -1.1433  -1.1005  -1.0510
 -1.0465  -1.0290  -1.0087  -0.9990  -0.9717  -0.9598  -0.9490  -0.9407
 -0.8940  -0.8734  -0.8626  -0.8117  -0.7922  -0.7860  -0.7784  -0.7669
 -0.7624  -0.7337  -0.7189  -0.7172  -0.6980  -0.6935  -0.6861  -0.6783
 -0.6758  -0.6716  -0.6558  -0.6489  -0.6340  -0.6300  -0.6211  -0.6153
 -0.6106  -0.6057  -0.5960  -0.5924  -0.5802  -0.5659  -0.5603  -0.5584
 -0.5505  -0.5320  -0.5282  -0.5209  -0.5136  -0.5083  -0.5042  -0.5000
 -0.4871  -0.4838  -0.4797  -0.4686  -0.4613  -0.4611  -0.4601  -0.4469
 -0.4298  -0.3996  -0.3849  -0.3710  -0.3508  -0.2928  -0.2855  -0.2191

          Ground-State Mulliken Net Atomic Charges

     Atom                 Charge (a.u.)
  ----------------------------------------
      1 C                    -0.070535
      2 C                    -0.251664
      3 S                    -0.132558
      4 C                    -0.047007
      5 H                     0.194686
      6 C                    -0.050253
      7 C                     0.222001
      8 C                     0.233004
      9 C                    -0.085060
     10 C                    -0.050944
     11 O                    -0.335168
     12 O                    -0.343971
     13 C                    -0.082593
     14 H                     0.120008
     15 H                     0.092154
     16 H                     0.092796
     17 C                    -0.087571
     18 H                     0.123378
     19 H                     0.094152
     20 H                     0.089882
     21 C                    -0.271251
     22 S                    -0.064965
     23 C                     0.078326
     24 H                     0.206346
     25 C                    -0.049167
     26 S                     0.093660
     27 C                    -0.255607
     28 C                    -0.106224
     29 C                    -0.005632
     30 C                     0.381212
     31 C                    -0.144942
     32 S                     0.035579
     33 C                     0.459429
     34 O                    -0.453328
     35 O                    -0.298290
     36 F                    -0.209921
     37 C                    -0.055078
     38 H                     0.116510
     39 H                     0.084301
     40 H                     0.084201
     41 H                     0.213911
     42 H                     0.118617
     43 H                     0.116113
     44 H                     0.201464
  ----------------------------------------
  Sum of atomic charges =     0.000000

                    Cartesian Multipole Moments
 -----------------------------------------------------------------
    Charge (ESU x 10^10)
                -0.0000
    Dipole Moment (Debye)
         X       0.8767      Y       2.3421      Z       2.6816
       Tot       3.6668
    Quadrupole Moments (Debye-Ang)
        XX    -198.6851     XY       5.1128     YY    -171.4549
        XZ       4.5317     YZ      -6.9808     ZZ    -190.8083

 Total job time:  331.44s(wall), 10580.93s(cpu)
        *  Thank you very much for using Q-Chem.  Have a nice day.  *
