 Q-Chem 5.4, Q-Chem, Inc., Pleasanton, CA (2021)
 Q-Chem 5.4.0 for Intel X86 EM64T Linux

User input:
--------------------------------------------------------------
$molecule
0 1
C	-0.135457	-8.519741	-0.235993
C	0.558188	-7.635967	0.577858
S	-1.148850	-7.651740	-1.414705
C	0.308648	-6.261894	0.283020
H	1.238560	-7.954738	1.377597
C	-0.609026	-6.079985	-0.810887
C	-0.996828	-4.798382	-1.231581
C	0.865740	-5.153542	0.982901
C	0.474408	-3.869626	0.564713
C	-0.442046	-3.688927	-0.532196
O	1.738137	-5.481075	1.976332
O	-1.874052	-4.479871	-2.228709
C	-2.016062	-5.356026	-3.340298
H	-2.573877	-4.790496	-4.110807
H	-2.598484	-6.268513	-3.085998
H	-1.028695	-5.658187	-3.751679
C	2.033195	-4.546999	3.007565
H	2.594833	-5.107564	3.778655
H	1.108067	-4.131473	3.461650
H	2.671451	-3.712085	2.645264
C	-0.691020	-2.314326	-0.822814
S	1.005649	-2.295487	1.178037
C	-0.000000	-1.435180	-0.000000
H	-1.368875	-1.993211	-1.623656
C	0.000000	0.000000	0.000000
S	0.382139	0.814215	1.510732
C	1.046923	2.242395	0.727629
C	0.383804	0.823142	-1.064665
C	0.969360	2.082453	-0.678287
C	0.357247	0.762277	-2.486150
C	0.891671	1.908660	-3.106916
S	1.415865	3.040689	-1.965735
C	1.003453	2.137318	-4.559972
O	0.611644	1.290019	-5.350277
O	1.548687	3.298916	-5.004375
F	-0.110054	-0.249117	-3.246290
C	1.709479	3.619721	-6.334976
H	2.177001	4.620902	-6.370268
H	0.737443	3.643380	-6.875609
H	2.359363	2.886384	-6.861878
H	1.435800	3.076190	1.321510
H	-0.817932	-9.146471	0.349939
H	0.548939	-9.150570	-0.815247
H	-0.821835	-1.444158	0.700647
$end

$rem
JOBTYPE		SP
EXCHANGE	HF
CORRELATION	pRIMP2
BASIS		cc-pvtz
METHOD		rimp2
AUX_BASIS	rimp2-cc-pvtz
SOLVENT_METHOD	PCM
PURECART	11111
SYMMETRY	false
MEM_TOTAL	110000
SCF_CONVERGENCE = 6
THRESH=10
GUI = 2
$end

$solvent
dielectric 4.90
$end
--------------------------------------------------------------

             Standard Nuclear Orientation (Angstroms)
    I     Atom           X                Y                Z
 ----------------------------------------------------------------
    1      C      -0.1354570000    -8.5197410000    -0.2359930000
    2      C       0.5581880000    -7.6359670000     0.5778580000
    3      S      -1.1488500000    -7.6517400000    -1.4147050000
    4      C       0.3086480000    -6.2618940000     0.2830200000
    5      H       1.2385600000    -7.9547380000     1.3775970000
    6      C      -0.6090260000    -6.0799850000    -0.8108870000
    7      C      -0.9968280000    -4.7983820000    -1.2315810000
    8      C       0.8657400000    -5.1535420000     0.9829010000
    9      C       0.4744080000    -3.8696260000     0.5647130000
   10      C      -0.4420460000    -3.6889270000    -0.5321960000
   11      O       1.7381370000    -5.4810750000     1.9763320000
   12      O      -1.8740520000    -4.4798710000    -2.2287090000
   13      C      -2.0160620000    -5.3560260000    -3.3402980000
   14      H      -2.5738770000    -4.7904960000    -4.1108070000
   15      H      -2.5984840000    -6.2685130000    -3.0859980000
   16      H      -1.0286950000    -5.6581870000    -3.7516790000
   17      C       2.0331950000    -4.5469990000     3.0075650000
   18      H       2.5948330000    -5.1075640000     3.7786550000
   19      H       1.1080670000    -4.1314730000     3.4616500000
   20      H       2.6714510000    -3.7120850000     2.6452640000
   21      C      -0.6910200000    -2.3143260000    -0.8228140000
   22      S       1.0056490000    -2.2954870000     1.1780370000
   23      C       0.0000000000    -1.4351800000     0.0000000000
   24      H      -1.3688750000    -1.9932110000    -1.6236560000
   25      C       0.0000000000     0.0000000000     0.0000000000
   26      S       0.3821390000     0.8142150000     1.5107320000
   27      C       1.0469230000     2.2423950000     0.7276290000
   28      C       0.3838040000     0.8231420000    -1.0646650000
   29      C       0.9693600000     2.0824530000    -0.6782870000
   30      C       0.3572470000     0.7622770000    -2.4861500000
   31      C       0.8916710000     1.9086600000    -3.1069160000
   32      S       1.4158650000     3.0406890000    -1.9657350000
   33      C       1.0034530000     2.1373180000    -4.5599720000
   34      O       0.6116440000     1.2900190000    -5.3502770000
   35      O       1.5486870000     3.2989160000    -5.0043750000
   36      F      -0.1100540000    -0.2491170000    -3.2462900000
   37      C       1.7094790000     3.6197210000    -6.3349760000
   38      H       2.1770010000     4.6209020000    -6.3702680000
   39      H       0.7374430000     3.6433800000    -6.8756090000
   40      H       2.3593630000     2.8863840000    -6.8618780000
   41      H       1.4358000000     3.0761900000     1.3215100000
   42      H      -0.8179320000    -9.1464710000     0.3499390000
   43      H       0.5489390000    -9.1505700000    -0.8152470000
   44      H      -0.8218350000    -1.4441580000     0.7006470000
 ----------------------------------------------------------------

   11   -2755.3130924854      7.67e-07  Convergence criterion met
 Total energy in the final basis set =    -2755.3130924854
        RIMP2         total energy =     -2760.4083279770 a.u.

                    Orbital Energies (a.u.)
 --------------------------------------------------------------

 Alpha MOs
 -- Occupied --
-92.0169 -91.9956 -91.9804 -91.9576 -26.3368 -20.6127 -20.5871 -20.5864
-20.5508 -11.4111 -11.3784 -11.3121 -11.3087 -11.3073 -11.2986 -11.2979
-11.2961 -11.2888 -11.2850 -11.2832 -11.2817 -11.2811 -11.2810 -11.2727
-11.2722 -11.2579 -11.2573 -11.2491 -11.2359  -9.0156  -8.9996  -8.9827
 -8.9602  -6.6963  -6.6957  -6.6953  -6.6809  -6.6802  -6.6789  -6.6637
 -6.6628  -6.6615  -6.6414  -6.6405  -6.6395  -1.6499  -1.4724  -1.4105
 -1.4083  -1.3678  -1.2391  -1.2094  -1.1752  -1.1443  -1.0990  -1.0507
 -1.0462  -1.0306  -1.0089  -0.9980  -0.9728  -0.9597  -0.9485  -0.9401
 -0.8940  -0.8721  -0.8638  -0.8077  -0.7966  -0.7858  -0.7769  -0.7713
 -0.7642  -0.7322  -0.7224  -0.7180  -0.6972  -0.6929  -0.6826  -0.6791
 -0.6730  -0.6655  -0.6564  -0.6482  -0.6365  -0.6296  -0.6195  -0.6141
 -0.6105  -0.6071  -0.5961  -0.5930  -0.5772  -0.5679  -0.5585  -0.5528
 -0.5471  -0.5367  -0.5314  -0.5228  -0.5139  -0.5079  -0.5056  -0.5001
 -0.4860  -0.4848  -0.4770  -0.4729  -0.4625  -0.4617  -0.4586  -0.4456
 -0.4284  -0.3990  -0.3855  -0.3699  -0.3515  -0.2939  -0.2861  -0.2175

          Ground-State Mulliken Net Atomic Charges

     Atom                 Charge (a.u.)
  ----------------------------------------
      1 C                    -0.069965
      2 C                    -0.263521
      3 S                    -0.135957
      4 C                    -0.043246
      5 H                     0.192953
      6 C                    -0.052684
      7 C                     0.222992
      8 C                     0.222474
      9 C                    -0.078342
     10 C                    -0.048901
     11 O                    -0.334504
     12 O                    -0.343270
     13 C                    -0.082368
     14 H                     0.120688
     15 H                     0.091564
     16 H                     0.092998
     17 C                    -0.087775
     18 H                     0.123860
     19 H                     0.092036
     20 H                     0.089723
     21 C                    -0.266382
     22 S                    -0.072799
     23 C                     0.063513
     24 H                     0.204569
     25 C                    -0.097375
     26 S                     0.086944
     27 C                    -0.220442
     28 C                    -0.035066
     29 C                    -0.017883
     30 C                     0.369309
     31 C                    -0.141336
     32 S                     0.040162
     33 C                     0.457798
     34 O                    -0.449493
     35 O                    -0.297857
     36 F                    -0.212310
     37 C                    -0.054882
     38 H                     0.116758
     39 H                     0.084546
     40 H                     0.084727
     41 H                     0.216504
     42 H                     0.116849
     43 H                     0.114639
     44 H                     0.200750
  ----------------------------------------
  Sum of atomic charges =     0.000000

                    Cartesian Multipole Moments
 -----------------------------------------------------------------
    Charge (ESU x 10^10)
                 0.0000
    Dipole Moment (Debye)
         X       1.1683      Y       3.3977      Z       3.7046
       Tot       5.1608
    Quadrupole Moments (Debye-Ang)
        XX    -196.2054     XY       3.7131     YY    -178.3988
        XZ       1.6595     YZ     -12.5603     ZZ    -189.8578

 Total job time:  341.61s(wall), 10644.69s(cpu)
        *  Thank you very much for using Q-Chem.  Have a nice day.  *
