 Q-Chem 5.4, Q-Chem, Inc., Pleasanton, CA (2021)
 Q-Chem 5.4.0 for Intel X86 EM64T Linux

User input:
--------------------------------------------------------------
$molecule
0 1
C	0.136647	-8.519741	-0.235306
C	-0.221346	-7.635967	0.772334
S	0.650746	-7.651740	-1.702286
C	-0.090779	-6.261894	0.408807
H	-0.573754	-7.954738	1.761423
C	0.397735	-6.079985	-0.932876
C	0.568166	-4.798382	-1.479069
C	-0.418347	-5.153542	1.241204
C	-0.251852	-3.869626	0.693206
C	0.239872	-3.688927	-0.648921
O	-0.842486	-5.481075	2.493437
O	0.993092	-4.479871	-2.737331
C	1.884752	-5.356026	-3.416110
H	2.273124	-4.790496	-4.284447
H	1.373310	-6.268513	-3.793352
H	2.734702	-5.658187	-2.766716
C	-1.588030	-4.546999	3.264581
H	-1.974995	-5.107564	4.136519
H	-2.443843	-4.131473	2.690439
H	-0.955140	-3.712085	3.636177
C	0.367068	-2.314326	-1.009848
S	-0.517386	-2.295487	1.459936
C	0.000000	-1.435180	0.000000
H	0.721689	-1.993211	-1.997308
C	0.000000	0.000000	0.000000
S	0.309721	0.844422	1.510732
C	0.847502	2.325108	0.727629
C	0.310602	0.853460	-1.064665
C	0.784173	2.159014	-0.678287
C	0.289451	0.790512	-2.486150
C	0.721927	1.979112	-3.106916
S	1.145464	3.152519	-1.965735
C	0.813355	2.216642	-4.559972
O	0.496884	1.338418	-5.350277
O	1.255274	3.421340	-5.004375
F	-0.087923	-0.257761	-3.246290
C	1.387494	3.754937	-6.334976
H	1.765978	4.793056	-6.370268
H	0.417095	3.693789	-6.875609
H	2.098820	3.081033	-6.861878
H	1.162229	3.189623	1.321510
H	-0.712022	-9.146471	-0.533380
H	0.980494	-9.150570	0.067771
H	-1.017696	-1.444158	-0.361406
$end

$rem
JOBTYPE		SP
EXCHANGE	HF
CORRELATION	pRIMP2
BASIS		cc-pvtz
METHOD		rimp2
AUX_BASIS	rimp2-cc-pvtz
SOLVENT_METHOD	PCM
PURECART	11111
SYMMETRY	false
MEM_TOTAL	110000
SCF_CONVERGENCE = 6
THRESH=10
GUI = 2
$end

$solvent
dielectric 4.90
$end
--------------------------------------------------------------

             Standard Nuclear Orientation (Angstroms)
    I     Atom           X                Y                Z
 ----------------------------------------------------------------
    1      C       0.1366470000    -8.5197410000    -0.2353060000
    2      C      -0.2213460000    -7.6359670000     0.7723340000
    3      S       0.6507460000    -7.6517400000    -1.7022860000
    4      C      -0.0907790000    -6.2618940000     0.4088070000
    5      H      -0.5737540000    -7.9547380000     1.7614230000
    6      C       0.3977350000    -6.0799850000    -0.9328760000
    7      C       0.5681660000    -4.7983820000    -1.4790690000
    8      C      -0.4183470000    -5.1535420000     1.2412040000
    9      C      -0.2518520000    -3.8696260000     0.6932060000
   10      C       0.2398720000    -3.6889270000    -0.6489210000
   11      O      -0.8424860000    -5.4810750000     2.4934370000
   12      O       0.9930920000    -4.4798710000    -2.7373310000
   13      C       1.8847520000    -5.3560260000    -3.4161100000
   14      H       2.2731240000    -4.7904960000    -4.2844470000
   15      H       1.3733100000    -6.2685130000    -3.7933520000
   16      H       2.7347020000    -5.6581870000    -2.7667160000
   17      C      -1.5880300000    -4.5469990000     3.2645810000
   18      H      -1.9749950000    -5.1075640000     4.1365190000
   19      H      -2.4438430000    -4.1314730000     2.6904390000
   20      H      -0.9551400000    -3.7120850000     3.6361770000
   21      C       0.3670680000    -2.3143260000    -1.0098480000
   22      S      -0.5173860000    -2.2954870000     1.4599360000
   23      C       0.0000000000    -1.4351800000     0.0000000000
   24      H       0.7216890000    -1.9932110000    -1.9973080000
   25      C       0.0000000000     0.0000000000     0.0000000000
   26      S       0.3097210000     0.8444220000     1.5107320000
   27      C       0.8475020000     2.3251080000     0.7276290000
   28      C       0.3106020000     0.8534600000    -1.0646650000
   29      C       0.7841730000     2.1590140000    -0.6782870000
   30      C       0.2894510000     0.7905120000    -2.4861500000
   31      C       0.7219270000     1.9791120000    -3.1069160000
   32      S       1.1454640000     3.1525190000    -1.9657350000
   33      C       0.8133550000     2.2166420000    -4.5599720000
   34      O       0.4968840000     1.3384180000    -5.3502770000
   35      O       1.2552740000     3.4213400000    -5.0043750000
   36      F      -0.0879230000    -0.2577610000    -3.2462900000
   37      C       1.3874940000     3.7549370000    -6.3349760000
   38      H       1.7659780000     4.7930560000    -6.3702680000
   39      H       0.4170950000     3.6937890000    -6.8756090000
   40      H       2.0988200000     3.0810330000    -6.8618780000
   41      H       1.1622290000     3.1896230000     1.3215100000
   42      H      -0.7120220000    -9.1464710000    -0.5333800000
   43      H       0.9804940000    -9.1505700000     0.0677710000
   44      H      -1.0176960000    -1.4441580000    -0.3614060000
 ----------------------------------------------------------------

   11   -2755.3173715644      6.99e-07  Convergence criterion met
 Total energy in the final basis set =    -2755.3173715644
        RIMP2         total energy =     -2760.4121298670 a.u.

                    Orbital Energies (a.u.)
 --------------------------------------------------------------

 Alpha MOs
 -- Occupied --
-92.0146 -91.9940 -91.9829 -91.9595 -26.3393 -20.6115 -20.5896 -20.5872
-20.5486 -11.4092 -11.3795 -11.3212 -11.3117 -11.3100 -11.2976 -11.2944
-11.2883 -11.2867 -11.2862 -11.2856 -11.2854 -11.2824 -11.2789 -11.2747
-11.2725 -11.2608 -11.2599 -11.2512 -11.2409  -9.0132  -8.9981  -8.9850
 -8.9621  -6.6940  -6.6933  -6.6929  -6.6794  -6.6787  -6.6774  -6.6662
 -6.6653  -6.6640  -6.6433  -6.6424  -6.6413  -1.6531  -1.4711  -1.4128
 -1.4091  -1.3662  -1.2388  -1.2107  -1.1773  -1.1437  -1.1010  -1.0510
 -1.0482  -1.0287  -1.0103  -1.0002  -0.9718  -0.9602  -0.9502  -0.9411
 -0.8959  -0.8736  -0.8629  -0.8096  -0.7968  -0.7876  -0.7763  -0.7718
 -0.7628  -0.7349  -0.7223  -0.7195  -0.6989  -0.6943  -0.6851  -0.6782
 -0.6732  -0.6723  -0.6576  -0.6494  -0.6396  -0.6295  -0.6215  -0.6156
 -0.6097  -0.6056  -0.5957  -0.5928  -0.5790  -0.5705  -0.5601  -0.5535
 -0.5458  -0.5361  -0.5314  -0.5231  -0.5142  -0.5092  -0.5068  -0.5022
 -0.4848  -0.4846  -0.4788  -0.4693  -0.4628  -0.4609  -0.4593  -0.4480
 -0.4323  -0.3979  -0.3882  -0.3718  -0.3506  -0.2941  -0.2854  -0.2183

          Ground-State Mulliken Net Atomic Charges

     Atom                 Charge (a.u.)
  ----------------------------------------
      1 C                    -0.070917
      2 C                    -0.249710
      3 S                    -0.131912
      4 C                    -0.051033
      5 H                     0.194704
      6 C                    -0.049999
      7 C                     0.223056
      8 C                     0.236693
      9 C                    -0.074913
     10 C                    -0.033905
     11 O                    -0.333572
     12 O                    -0.342592
     13 C                    -0.083156
     14 H                     0.121399
     15 H                     0.092193
     16 H                     0.092600
     17 C                    -0.088318
     18 H                     0.125116
     19 H                     0.093553
     20 H                     0.090252
     21 C                    -0.326912
     22 S                    -0.094526
     23 C                     0.135291
     24 H                     0.205583
     25 C                    -0.049252
     26 S                     0.099972
     27 C                    -0.266856
     28 C                    -0.101692
     29 C                    -0.002428
     30 C                     0.369999
     31 C                    -0.147389
     32 S                     0.038314
     33 C                     0.461549
     34 O                    -0.454049
     35 O                    -0.298557
     36 F                    -0.215538
     37 C                    -0.054925
     38 H                     0.116542
     39 H                     0.084325
     40 H                     0.084124
     41 H                     0.213848
     42 H                     0.118907
     43 H                     0.116523
     44 H                     0.207607
  ----------------------------------------
  Sum of atomic charges =     0.000000

                    Cartesian Multipole Moments
 -----------------------------------------------------------------
    Charge (ESU x 10^10)
                 0.0000
    Dipole Moment (Debye)
         X       0.3078      Y       1.8547      Z       3.4161
       Tot       3.8993
    Quadrupole Moments (Debye-Ang)
        XX    -192.4244     XY       6.3384     YY    -170.6151
        XZ     -12.9177     YZ     -13.7714     ZZ    -195.9184

 Total job time:  327.31s(wall), 10630.08s(cpu)
        *  Thank you very much for using Q-Chem.  Have a nice day.  *
