 Q-Chem 5.4, Q-Chem, Inc., Pleasanton, CA (2021)
 Q-Chem 5.4.0 for Intel X86 EM64T Linux

User input:
--------------------------------------------------------------
$molecule
0 1
C	-0.255929	-8.519741	0.092419
C	0.666007	-7.635967	-0.449364
S	-1.592708	-7.651740	0.885736
C	0.332317	-6.261894	-0.254813
H	1.571741	-7.954738	-0.980526
C	-0.904324	-6.079985	0.458965
C	-1.385968	-4.798382	0.767823
C	1.118303	-5.153542	-0.681909
C	0.638514	-3.869626	-0.369139
C	-0.600871	-3.688927	0.342916
O	2.248132	-5.481075	-1.368544
O	-2.520275	-4.479871	1.458570
C	-3.639637	-5.356026	1.405396
H	-4.495304	-4.790496	1.820940
H	-3.490336	-6.268513	2.023129
H	-3.873314	-5.658187	0.361595
C	3.314934	-4.546999	-1.480048
H	4.171837	-5.107564	-1.899255
H	3.601473	-4.131473	-0.490123
H	3.068969	-3.712085	-2.171521
C	-0.930308	-2.314326	0.537642
S	1.334769	-2.295487	-0.785807
C	0.000000	-1.435180	0.000000
H	-1.836691	-1.993211	1.066134
C	0.000000	0.000000	0.000000
S	0.002233	0.899428	1.510732
C	0.001157	2.474749	0.727629
C	-0.000030	0.908223	-1.064665
C	-0.001545	2.297013	-0.678287
C	0.001624	0.841837	-2.486150
C	0.001494	2.106670	-3.106916
S	-0.001841	3.354171	-1.965735
C	0.006168	2.361146	-4.559972
O	0.009152	1.427646	-5.350277
O	0.009405	3.644337	-5.004375
F	0.005539	-0.272288	-3.246290
C	0.019554	4.003038	-6.334976
H	0.020155	5.108000	-6.370268
H	-0.871409	3.613681	-6.875609
H	0.918470	3.613062	-6.861878
H	0.001222	3.394771	1.321510
H	0.202590	-9.146471	0.866272
H	-0.707539	-9.150570	-0.682165
H	0.547293	-1.444158	0.931016
$end

$rem
JOBTYPE		SP
EXCHANGE	HF
CORRELATION	pRIMP2
BASIS		cc-pvtz
METHOD		rimp2
AUX_BASIS	rimp2-cc-pvtz
SOLVENT_METHOD	PCM
PURECART	11111
SYMMETRY	false
MEM_TOTAL	110000
SCF_CONVERGENCE = 6
THRESH=10
GUI = 2
$end

$solvent
dielectric 4.90
$end
--------------------------------------------------------------

             Standard Nuclear Orientation (Angstroms)
    I     Atom           X                Y                Z
 ----------------------------------------------------------------
    1      C      -0.2559290000    -8.5197410000     0.0924190000
    2      C       0.6660070000    -7.6359670000    -0.4493640000
    3      S      -1.5927080000    -7.6517400000     0.8857360000
    4      C       0.3323170000    -6.2618940000    -0.2548130000
    5      H       1.5717410000    -7.9547380000    -0.9805260000
    6      C      -0.9043240000    -6.0799850000     0.4589650000
    7      C      -1.3859680000    -4.7983820000     0.7678230000
    8      C       1.1183030000    -5.1535420000    -0.6819090000
    9      C       0.6385140000    -3.8696260000    -0.3691390000
   10      C      -0.6008710000    -3.6889270000     0.3429160000
   11      O       2.2481320000    -5.4810750000    -1.3685440000
   12      O      -2.5202750000    -4.4798710000     1.4585700000
   13      C      -3.6396370000    -5.3560260000     1.4053960000
   14      H      -4.4953040000    -4.7904960000     1.8209400000
   15      H      -3.4903360000    -6.2685130000     2.0231290000
   16      H      -3.8733140000    -5.6581870000     0.3615950000
   17      C       3.3149340000    -4.5469990000    -1.4800480000
   18      H       4.1718370000    -5.1075640000    -1.8992550000
   19      H       3.6014730000    -4.1314730000    -0.4901230000
   20      H       3.0689690000    -3.7120850000    -2.1715210000
   21      C      -0.9303080000    -2.3143260000     0.5376420000
   22      S       1.3347690000    -2.2954870000    -0.7858070000
   23      C       0.0000000000    -1.4351800000     0.0000000000
   24      H      -1.8366910000    -1.9932110000     1.0661340000
   25      C       0.0000000000     0.0000000000     0.0000000000
   26      S       0.0022330000     0.8994280000     1.5107320000
   27      C       0.0011570000     2.4747490000     0.7276290000
   28      C      -0.0000300000     0.9082230000    -1.0646650000
   29      C      -0.0015450000     2.2970130000    -0.6782870000
   30      C       0.0016240000     0.8418370000    -2.4861500000
   31      C       0.0014940000     2.1066700000    -3.1069160000
   32      S      -0.0018410000     3.3541710000    -1.9657350000
   33      C       0.0061680000     2.3611460000    -4.5599720000
   34      O       0.0091520000     1.4276460000    -5.3502770000
   35      O       0.0094050000     3.6443370000    -5.0043750000
   36      F       0.0055390000    -0.2722880000    -3.2462900000
   37      C       0.0195540000     4.0030380000    -6.3349760000
   38      H       0.0201550000     5.1080000000    -6.3702680000
   39      H      -0.8714090000     3.6136810000    -6.8756090000
   40      H       0.9184700000     3.6130620000    -6.8618780000
   41      H       0.0012220000     3.3947710000     1.3215100000
   42      H       0.2025900000    -9.1464710000     0.8662720000
   43      H      -0.7075390000    -9.1505700000    -0.6821650000
   44      H       0.5472930000    -1.4441580000     0.9310160000
 ----------------------------------------------------------------

   11   -2755.3262463336      7.97e-07  Convergence criterion met
 Total energy in the final basis set =    -2755.3262463336
        RIMP2         total energy =     -2760.4159638193 a.u.

                    Orbital Energies (a.u.)
 --------------------------------------------------------------

 Alpha MOs
 -- Occupied --
-92.0180 -91.9944 -91.9780 -91.9583 -26.3345 -20.6123 -20.5874 -20.5867
-20.5501 -11.4104 -11.3780 -11.3163 -11.3092 -11.3073 -11.2974 -11.2973
-11.2936 -11.2886 -11.2841 -11.2832 -11.2830 -11.2824 -11.2805 -11.2733
-11.2732 -11.2586 -11.2582 -11.2497 -11.2371  -9.0164  -8.9986  -8.9802
 -8.9609  -6.6972  -6.6966  -6.6961  -6.6798  -6.6792  -6.6778  -6.6613
 -6.6604  -6.6591  -6.6422  -6.6413  -6.6402  -1.6475  -1.4719  -1.4102
 -1.4090  -1.3672  -1.2379  -1.2095  -1.1756  -1.1439  -1.0995  -1.0501
 -1.0459  -1.0310  -1.0084  -0.9980  -0.9722  -0.9597  -0.9485  -0.9407
 -0.8934  -0.8711  -0.8649  -0.8100  -0.7923  -0.7854  -0.7768  -0.7723
 -0.7656  -0.7330  -0.7211  -0.7156  -0.6971  -0.6922  -0.6823  -0.6786
 -0.6718  -0.6652  -0.6564  -0.6486  -0.6362  -0.6288  -0.6201  -0.6149
 -0.6105  -0.6065  -0.5955  -0.5928  -0.5816  -0.5647  -0.5623  -0.5568
 -0.5505  -0.5339  -0.5278  -0.5215  -0.5128  -0.5077  -0.5033  -0.5017
 -0.4866  -0.4854  -0.4775  -0.4696  -0.4617  -0.4612  -0.4611  -0.4467
 -0.4255  -0.4017  -0.3857  -0.3705  -0.3515  -0.2926  -0.2877  -0.2200

          Ground-State Mulliken Net Atomic Charges

     Atom                 Charge (a.u.)
  ----------------------------------------
      1 C                    -0.070164
      2 C                    -0.258369
      3 S                    -0.135278
      4 C                    -0.045567
      5 H                     0.193631
      6 C                    -0.050988
      7 C                     0.224935
      8 C                     0.227050
      9 C                    -0.077439
     10 C                    -0.046668
     11 O                    -0.334893
     12 O                    -0.343737
     13 C                    -0.082553
     14 H                     0.119865
     15 H                     0.091894
     16 H                     0.093296
     17 C                    -0.086591
     18 H                     0.123281
     19 H                     0.091830
     20 H                     0.091356
     21 C                    -0.272030
     22 S                    -0.072414
     23 C                     0.099678
     24 H                     0.204957
     25 C                    -0.098695
     26 S                     0.098685
     27 C                    -0.242468
     28 C                    -0.086273
     29 C                    -0.006645
     30 C                     0.398349
     31 C                    -0.153010
     32 S                     0.034756
     33 C                     0.460696
     34 O                    -0.449986
     35 O                    -0.297869
     36 F                    -0.210853
     37 C                    -0.055102
     38 H                     0.116563
     39 H                     0.084695
     40 H                     0.084527
     41 H                     0.215929
     42 H                     0.117391
     43 H                     0.115357
     44 H                     0.188871
  ----------------------------------------
  Sum of atomic charges =     0.000000

                    Cartesian Multipole Moments
 -----------------------------------------------------------------
    Charge (ESU x 10^10)
                 0.0000
    Dipole Moment (Debye)
         X       0.4416      Y       3.3730      Z       3.6272
       Tot       4.9728
    Quadrupole Moments (Debye-Ang)
        XX    -183.6902     XY      -3.2687     YY    -174.0440
        XZ      -3.6512     YZ      -8.5630     ZZ    -205.6195

 Total job time:  328.39s(wall), 10656.40s(cpu)
        *  Thank you very much for using Q-Chem.  Have a nice day.  *
