 Q-Chem 5.4, Q-Chem, Inc., Pleasanton, CA (2021)
 Q-Chem 5.4.0 for Intel X86 EM64T Linux

User input:
--------------------------------------------------------------
$molecule
0 1
C	-0.208886	-8.519741	0.174379
C	0.472151	-7.635967	-0.650052
S	-1.193717	-7.651740	1.377058
C	0.225125	-6.261894	-0.353105
H	1.141594	-7.954738	-1.458961
C	-0.692811	-6.079985	0.740583
C	-1.039773	-4.798382	1.195546
C	0.817634	-5.153542	-1.023267
C	0.473754	-3.869626	-0.565262
C	-0.447350	-3.688927	0.527745
O	1.644483	-5.481075	-2.054917
O	-1.869424	-4.479871	2.232592
C	-2.939466	-5.356026	2.565470
H	-3.601405	-4.790496	3.248608
H	-2.587892	-6.268513	3.094885
H	-3.516052	-5.658187	1.664539
C	2.608813	-4.546999	-2.524564
H	3.270661	-5.107564	-3.211568
H	3.216646	-4.131473	-1.692342
H	2.141184	-3.712085	-3.090211
C	-0.690319	-2.314326	0.823402
S	0.985511	-2.295487	-1.194935
C	0.000000	-1.435180	0.000000
H	-1.361286	-1.993211	1.630024
C	0.000000	0.000000	0.000000
S	0.234946	0.868203	1.510732
C	0.641630	2.390125	0.727629
C	0.235036	0.877284	-1.064665
C	0.593019	2.219143	-0.678287
C	0.219452	0.812732	-2.486150
C	0.546689	2.034501	-3.106916
S	0.866345	3.240357	-1.965735
C	0.617067	2.279095	-4.559972
O	0.378342	1.376631	-5.350277
O	0.952308	3.517725	-5.004375
F	-0.065123	-0.264443	-3.246290
C	1.054950	3.861577	-6.334976
H	1.341516	4.928732	-6.370268
H	0.093573	3.716085	-6.875609
H	1.822303	3.252232	-6.861878
H	0.879812	3.278780	1.321510
H	0.486655	-9.146471	0.744739
H	-0.898184	-9.150570	-0.399033
H	0.832713	-1.444158	0.687683
$end

$rem
JOBTYPE		SP
EXCHANGE	HF
CORRELATION	pRIMP2
BASIS		cc-pvtz
METHOD		rimp2
AUX_BASIS	rimp2-cc-pvtz
SOLVENT_METHOD	PCM
PURECART	11111
SYMMETRY	false
MEM_TOTAL	110000
SCF_CONVERGENCE = 6
THRESH=10
GUI = 2
$end

$solvent
dielectric 4.90
$end
--------------------------------------------------------------

             Standard Nuclear Orientation (Angstroms)
    I     Atom           X                Y                Z
 ----------------------------------------------------------------
    1      C      -0.2088860000    -8.5197410000     0.1743790000
    2      C       0.4721510000    -7.6359670000    -0.6500520000
    3      S      -1.1937170000    -7.6517400000     1.3770580000
    4      C       0.2251250000    -6.2618940000    -0.3531050000
    5      H       1.1415940000    -7.9547380000    -1.4589610000
    6      C      -0.6928110000    -6.0799850000     0.7405830000
    7      C      -1.0397730000    -4.7983820000     1.1955460000
    8      C       0.8176340000    -5.1535420000    -1.0232670000
    9      C       0.4737540000    -3.8696260000    -0.5652620000
   10      C      -0.4473500000    -3.6889270000     0.5277450000
   11      O       1.6444830000    -5.4810750000    -2.0549170000
   12      O      -1.8694240000    -4.4798710000     2.2325920000
   13      C      -2.9394660000    -5.3560260000     2.5654700000
   14      H      -3.6014050000    -4.7904960000     3.2486080000
   15      H      -2.5878920000    -6.2685130000     3.0948850000
   16      H      -3.5160520000    -5.6581870000     1.6645390000
   17      C       2.6088130000    -4.5469990000    -2.5245640000
   18      H       3.2706610000    -5.1075640000    -3.2115680000
   19      H       3.2166460000    -4.1314730000    -1.6923420000
   20      H       2.1411840000    -3.7120850000    -3.0902110000
   21      C      -0.6903190000    -2.3143260000     0.8234020000
   22      S       0.9855110000    -2.2954870000    -1.1949350000
   23      C       0.0000000000    -1.4351800000     0.0000000000
   24      H      -1.3612860000    -1.9932110000     1.6300240000
   25      C       0.0000000000     0.0000000000     0.0000000000
   26      S       0.2349460000     0.8682030000     1.5107320000
   27      C       0.6416300000     2.3901250000     0.7276290000
   28      C       0.2350360000     0.8772840000    -1.0646650000
   29      C       0.5930190000     2.2191430000    -0.6782870000
   30      C       0.2194520000     0.8127320000    -2.4861500000
   31      C       0.5466890000     2.0345010000    -3.1069160000
   32      S       0.8663450000     3.2403570000    -1.9657350000
   33      C       0.6170670000     2.2790950000    -4.5599720000
   34      O       0.3783420000     1.3766310000    -5.3502770000
   35      O       0.9523080000     3.5177250000    -5.0043750000
   36      F      -0.0651230000    -0.2644430000    -3.2462900000
   37      C       1.0549500000     3.8615770000    -6.3349760000
   38      H       1.3415160000     4.9287320000    -6.3702680000
   39      H       0.0935730000     3.7160850000    -6.8756090000
   40      H       1.8223030000     3.2522320000    -6.8618780000
   41      H       0.8798120000     3.2787800000     1.3215100000
   42      H       0.4866550000    -9.1464710000     0.7447390000
   43      H      -0.8981840000    -9.1505700000    -0.3990330000
   44      H       0.8327130000    -1.4441580000     0.6876830000
 ----------------------------------------------------------------

   11   -2755.3213075090      7.92e-07  Convergence criterion met
 Total energy in the final basis set =    -2755.3213075090
        RIMP2         total energy =     -2760.4123064815 a.u.

                    Orbital Energies (a.u.)
 --------------------------------------------------------------

 Alpha MOs
 -- Occupied --
-92.0136 -91.9928 -91.9778 -91.9595 -26.3339 -20.6116 -20.5878 -20.5874
-20.5489 -11.4094 -11.3786 -11.3209 -11.3095 -11.3087 -11.2966 -11.2951
-11.2896 -11.2882 -11.2842 -11.2842 -11.2837 -11.2833 -11.2795 -11.2749
-11.2722 -11.2607 -11.2591 -11.2508 -11.2395  -9.0125  -8.9970  -8.9801
 -8.9621  -6.6933  -6.6927  -6.6921  -6.6783  -6.6776  -6.6763  -6.6612
 -6.6603  -6.6590  -6.6433  -6.6424  -6.6413  -1.6476  -1.4712  -1.4109
 -1.4095  -1.3663  -1.2387  -1.2099  -1.1769  -1.1439  -1.1000  -1.0505
 -1.0464  -1.0307  -1.0084  -0.9990  -0.9716  -0.9600  -0.9491  -0.9406
 -0.8943  -0.8708  -0.8644  -0.8110  -0.7929  -0.7858  -0.7763  -0.7689
 -0.7660  -0.7332  -0.7208  -0.7154  -0.6973  -0.6929  -0.6833  -0.6780
 -0.6712  -0.6681  -0.6567  -0.6490  -0.6384  -0.6288  -0.6211  -0.6154
 -0.6109  -0.6056  -0.5957  -0.5926  -0.5800  -0.5661  -0.5639  -0.5583
 -0.5491  -0.5342  -0.5280  -0.5214  -0.5133  -0.5083  -0.5036  -0.5013
 -0.4856  -0.4838  -0.4785  -0.4689  -0.4622  -0.4608  -0.4601  -0.4476
 -0.4278  -0.4013  -0.3853  -0.3718  -0.3514  -0.2934  -0.2851  -0.2189

          Ground-State Mulliken Net Atomic Charges

     Atom                 Charge (a.u.)
  ----------------------------------------
      1 C                    -0.070423
      2 C                    -0.252204
      3 S                    -0.133087
      4 C                    -0.048704
      5 H                     0.194667
      6 C                    -0.046430
      7 C                     0.216974
      8 C                     0.227509
      9 C                    -0.074546
     10 C                    -0.012007
     11 O                    -0.334636
     12 O                    -0.343736
     13 C                    -0.082669
     14 H                     0.120003
     15 H                     0.092011
     16 H                     0.093267
     17 C                    -0.088603
     18 H                     0.124010
     19 H                     0.092108
     20 H                     0.092181
     21 C                    -0.325726
     22 S                    -0.083339
     23 C                     0.129501
     24 H                     0.201338
     25 C                    -0.029880
     26 S                     0.091366
     27 C                    -0.252425
     28 C                    -0.150834
     29 C                    -0.003326
     30 C                     0.391181
     31 C                    -0.151121
     32 S                     0.032148
     33 C                     0.461117
     34 O                    -0.451926
     35 O                    -0.298291
     36 F                    -0.208253
     37 C                    -0.055031
     38 H                     0.116458
     39 H                     0.084531
     40 H                     0.084215
     41 H                     0.214156
     42 H                     0.118415
     43 H                     0.116365
     44 H                     0.203674
  ----------------------------------------
  Sum of atomic charges =     0.000000

                    Cartesian Multipole Moments
 -----------------------------------------------------------------
    Charge (ESU x 10^10)
                -0.0000
    Dipole Moment (Debye)
         X       1.4302      Y       2.3166      Z       3.4039
       Tot       4.3587
    Quadrupole Moments (Debye-Ang)
        XX    -186.9281     XY       1.1723     YY    -171.8843
        XZ     -11.1227     YZ      -6.6443     ZZ    -201.7941

 Total job time:  322.26s(wall), 10423.56s(cpu)
        *  Thank you very much for using Q-Chem.  Have a nice day.  *
