 Q-Chem 5.4, Q-Chem, Inc., Pleasanton, CA (2021)
 Q-Chem 5.4.0 for Intel X86 EM64T Linux

User input:
--------------------------------------------------------------
$molecule
0 1
C	-0.208002	-8.519741	-0.175432
C	0.722164	-7.635967	0.352097
S	-1.563424	-7.651740	-0.936458
C	0.386833	-6.261894	0.160388
H	1.635031	-7.954738	0.870905
C	-0.849637	-6.079985	-0.553685
C	-1.357938	-4.798382	-0.816372
C	1.149702	-5.153542	0.627524
C	0.638941	-3.869626	0.368399
C	-0.597409	-3.688927	-0.348912
O	2.309260	-5.481075	1.262667
O	-2.523296	-4.479871	-1.453338
C	-3.036927	-5.356026	-2.449320
H	-3.824632	-4.790496	-2.982577
H	-3.497250	-6.268513	-2.011155
H	-2.249807	-5.658187	-3.173591
C	2.939226	-4.546999	2.130793
H	3.730721	-5.107564	2.663289
H	2.225196	-4.131473	2.873906
H	3.415077	-3.712085	1.572045
C	-0.930765	-2.314326	-0.536849
S	1.347913	-2.295487	0.763041
C	-0.000000	-1.435180	-0.000000
H	-1.841645	-1.993211	-1.057554
C	0.000000	0.000000	0.000000
S	0.690437	0.576430	1.510732
C	1.896512	1.589852	0.727629
C	0.695720	0.583817	-1.064665
C	1.758621	1.477674	-0.678287
C	0.645928	0.539878	-2.486150
C	1.614763	1.352997	-3.106916
S	2.568261	2.157430	-1.965735
C	1.812707	1.512991	-4.559972
O	1.099523	0.910662	-5.350277
O	2.797769	2.335330	-5.004375
F	-0.205024	-0.179266	-3.246290
C	3.079074	2.558124	-6.334976
H	3.925910	3.267919	-6.370268
H	2.208109	2.990367	-6.875609
H	3.358147	1.618843	-6.861878
H	2.601331	2.181180	1.321510
H	-0.648918	-9.146471	0.608584
H	0.237003	-9.150570	-0.953830
H	-0.532637	-1.444158	0.939477
$end

$rem
JOBTYPE		SP
EXCHANGE	HF
CORRELATION	pRIMP2
BASIS		cc-pvtz
METHOD		rimp2
AUX_BASIS	rimp2-cc-pvtz
SOLVENT_METHOD	PCM
PURECART	11111
SYMMETRY	false
MEM_TOTAL	110000
SCF_CONVERGENCE = 6
THRESH=10
GUI = 2
$end

$solvent
dielectric 4.90
$end
--------------------------------------------------------------

             Standard Nuclear Orientation (Angstroms)
    I     Atom           X                Y                Z
 ----------------------------------------------------------------
    1      C      -0.2080020000    -8.5197410000    -0.1754320000
    2      C       0.7221640000    -7.6359670000     0.3520970000
    3      S      -1.5634240000    -7.6517400000    -0.9364580000
    4      C       0.3868330000    -6.2618940000     0.1603880000
    5      H       1.6350310000    -7.9547380000     0.8709050000
    6      C      -0.8496370000    -6.0799850000    -0.5536850000
    7      C      -1.3579380000    -4.7983820000    -0.8163720000
    8      C       1.1497020000    -5.1535420000     0.6275240000
    9      C       0.6389410000    -3.8696260000     0.3683990000
   10      C      -0.5974090000    -3.6889270000    -0.3489120000
   11      O       2.3092600000    -5.4810750000     1.2626670000
   12      O      -2.5232960000    -4.4798710000    -1.4533380000
   13      C      -3.0369270000    -5.3560260000    -2.4493200000
   14      H      -3.8246320000    -4.7904960000    -2.9825770000
   15      H      -3.4972500000    -6.2685130000    -2.0111550000
   16      H      -2.2498070000    -5.6581870000    -3.1735910000
   17      C       2.9392260000    -4.5469990000     2.1307930000
   18      H       3.7307210000    -5.1075640000     2.6632890000
   19      H       2.2251960000    -4.1314730000     2.8739060000
   20      H       3.4150770000    -3.7120850000     1.5720450000
   21      C      -0.9307650000    -2.3143260000    -0.5368490000
   22      S       1.3479130000    -2.2954870000     0.7630410000
   23      C       0.0000000000    -1.4351800000     0.0000000000
   24      H      -1.8416450000    -1.9932110000    -1.0575540000
   25      C       0.0000000000     0.0000000000     0.0000000000
   26      S       0.6904370000     0.5764300000     1.5107320000
   27      C       1.8965120000     1.5898520000     0.7276290000
   28      C       0.6957200000     0.5838170000    -1.0646650000
   29      C       1.7586210000     1.4776740000    -0.6782870000
   30      C       0.6459280000     0.5398780000    -2.4861500000
   31      C       1.6147630000     1.3529970000    -3.1069160000
   32      S       2.5682610000     2.1574300000    -1.9657350000
   33      C       1.8127070000     1.5129910000    -4.5599720000
   34      O       1.0995230000     0.9106620000    -5.3502770000
   35      O       2.7977690000     2.3353300000    -5.0043750000
   36      F      -0.2050240000    -0.1792660000    -3.2462900000
   37      C       3.0790740000     2.5581240000    -6.3349760000
   38      H       3.9259100000     3.2679190000    -6.3702680000
   39      H       2.2081090000     2.9903670000    -6.8756090000
   40      H       3.3581470000     1.6188430000    -6.8618780000
   41      H       2.6013310000     2.1811800000     1.3215100000
   42      H      -0.6489180000    -9.1464710000     0.6085840000
   43      H       0.2370030000    -9.1505700000    -0.9538300000
   44      H      -0.5326370000    -1.4441580000     0.9394770000
 ----------------------------------------------------------------

   11   -2755.2777377974      7.38e-07  Convergence criterion met
 Total energy in the final basis set =    -2755.2777377974
        RIMP2         total energy =     -2760.3839741434 a.u.

                    Orbital Energies (a.u.)
 --------------------------------------------------------------

 Alpha MOs
 -- Occupied --
-92.0177 -92.0036 -91.9721 -91.9550 -26.3357 -20.6156 -20.5852 -20.5840
-20.5562 -11.4156 -11.3767 -11.3196 -11.3097 -11.3069 -11.3018 -11.3002
-11.2903 -11.2891 -11.2832 -11.2829 -11.2809 -11.2794 -11.2737 -11.2699
-11.2683 -11.2552 -11.2513 -11.2465 -11.2302  -9.0169  -9.0073  -8.9748
 -8.9576  -6.6975  -6.6967  -6.6965  -6.6885  -6.6879  -6.6866  -6.6558
 -6.6549  -6.6536  -6.6389  -6.6380  -6.6369  -1.6488  -1.4757  -1.4077
 -1.4066  -1.3718  -1.2447  -1.2065  -1.1732  -1.1461  -1.0961  -1.0538
 -1.0429  -1.0339  -1.0062  -0.9945  -0.9756  -0.9594  -0.9464  -0.9390
 -0.8913  -0.8756  -0.8593  -0.8075  -0.7971  -0.7834  -0.7783  -0.7724
 -0.7619  -0.7329  -0.7206  -0.7178  -0.6964  -0.6939  -0.6815  -0.6793
 -0.6768  -0.6639  -0.6540  -0.6466  -0.6323  -0.6283  -0.6170  -0.6128
 -0.6111  -0.6107  -0.6021  -0.5912  -0.5742  -0.5635  -0.5578  -0.5532
 -0.5408  -0.5368  -0.5296  -0.5225  -0.5121  -0.5062  -0.5054  -0.4985
 -0.4895  -0.4837  -0.4747  -0.4685  -0.4661  -0.4638  -0.4549  -0.4433
 -0.4223  -0.3971  -0.3832  -0.3665  -0.3488  -0.2997  -0.2855  -0.2157

          Ground-State Mulliken Net Atomic Charges

     Atom                 Charge (a.u.)
  ----------------------------------------
      1 C                    -0.069210
      2 C                    -0.278217
      3 S                    -0.141585
      4 C                    -0.040111
      5 H                     0.190783
      6 C                    -0.054568
      7 C                     0.223469
      8 C                     0.217999
      9 C                    -0.079208
     10 C                    -0.053845
     11 O                    -0.336100
     12 O                    -0.343193
     13 C                    -0.082178
     14 H                     0.119682
     15 H                     0.091365
     16 H                     0.092896
     17 C                    -0.086738
     18 H                     0.122641
     19 H                     0.090460
     20 H                     0.089011
     21 C                    -0.270221
     22 S                    -0.081839
     23 C                     0.019668
     24 H                     0.205722
     25 C                    -0.136723
     26 S                     0.114077
     27 C                    -0.168361
     28 C                    -0.010626
     29 C                    -0.020962
     30 C                     0.354876
     31 C                    -0.122983
     32 S                     0.064638
     33 C                     0.457385
     34 O                    -0.440206
     35 O                    -0.296729
     36 F                    -0.210563
     37 C                    -0.054672
     38 H                     0.117410
     39 H                     0.085447
     40 H                     0.085739
     41 H                     0.221204
     42 H                     0.114627
     43 H                     0.112462
     44 H                     0.187276
  ----------------------------------------
  Sum of atomic charges =     0.000000

                    Cartesian Multipole Moments
 -----------------------------------------------------------------
    Charge (ESU x 10^10)
                 0.0000
    Dipole Moment (Debye)
         X       3.8638      Y       4.9182      Z       3.2353
       Tot       7.0416
    Quadrupole Moments (Debye-Ang)
        XX    -182.3041     XY       7.2162     YY    -193.0674
        XZ      -0.4357     YZ      -9.1330     ZZ    -192.3119

 Total job time:  328.15s(wall), 10627.35s(cpu)
        *  Thank you very much for using Q-Chem.  Have a nice day.  *
