 Q-Chem 5.4, Q-Chem, Inc., Pleasanton, CA (2021)
 Q-Chem 5.4.0 for Intel X86 EM64T Linux

User input:
--------------------------------------------------------------
$molecule
0 1
C	-0.267851	-8.519741	-0.047927
C	0.801461	-7.635967	-0.056157
S	-1.822194	-7.651740	-0.029285
C	0.415201	-6.261894	-0.054516
H	1.851431	-7.954738	-0.063290
C	-1.012650	-6.079985	-0.054687
C	-1.584194	-4.798382	-0.028030
C	1.309433	-5.153542	-0.031399
C	0.737539	-3.869626	-0.000427
C	-0.691828	-3.688927	-0.003462
O	2.631211	-5.481075	-0.061128
O	-2.911907	-4.479871	0.003021
C	-3.854716	-5.356026	-0.602710
H	-4.803517	-4.790496	-0.670671
H	-4.034285	-6.268513	0.006913
H	-3.535185	-5.658187	-1.623507
C	3.610841	-4.546999	0.375708
H	4.562544	-5.107564	0.441115
H	3.364029	-4.131473	1.376277
H	3.743566	-3.712085	-0.346107
C	-1.074491	-2.314326	0.000458
S	1.548848	-2.295487	-0.013144
C	0.000000	-1.435180	0.000000
H	-2.123688	-1.993211	0.004953
C	0.000000	0.000000	0.000000
S	0.234946	0.868203	1.510732
C	0.641630	2.390125	0.727629
C	0.235036	0.877284	-1.064665
C	0.593019	2.219143	-0.678287
C	0.219452	0.812732	-2.486150
C	0.546689	2.034501	-3.106916
S	0.866345	3.240357	-1.965735
C	0.617067	2.279095	-4.559972
O	0.378342	1.376631	-5.350277
O	0.952308	3.517725	-5.004375
F	-0.065123	-0.264443	-3.246290
C	1.054950	3.861577	-6.334976
H	1.341516	4.928732	-6.370268
H	0.093573	3.716085	-6.875609
H	1.822303	3.252232	-6.861878
H	0.879812	3.278780	1.321510
H	-0.257688	-9.146471	0.851509
H	-0.271664	-9.150570	-0.944542
H	0.008462	-1.444158	1.079930
$end

$rem
JOBTYPE		SP
EXCHANGE	HF
CORRELATION	pRIMP2
BASIS		cc-pvtz
METHOD		rimp2
AUX_BASIS	rimp2-cc-pvtz
SOLVENT_METHOD	PCM
PURECART	11111
SYMMETRY	false
MEM_TOTAL	110000
SCF_CONVERGENCE = 6
THRESH=10
GUI = 2
$end

$solvent
dielectric 4.90
$end
--------------------------------------------------------------

             Standard Nuclear Orientation (Angstroms)
    I     Atom           X                Y                Z
 ----------------------------------------------------------------
    1      C      -0.2678510000    -8.5197410000    -0.0479270000
    2      C       0.8014610000    -7.6359670000    -0.0561570000
    3      S      -1.8221940000    -7.6517400000    -0.0292850000
    4      C       0.4152010000    -6.2618940000    -0.0545160000
    5      H       1.8514310000    -7.9547380000    -0.0632900000
    6      C      -1.0126500000    -6.0799850000    -0.0546870000
    7      C      -1.5841940000    -4.7983820000    -0.0280300000
    8      C       1.3094330000    -5.1535420000    -0.0313990000
    9      C       0.7375390000    -3.8696260000    -0.0004270000
   10      C      -0.6918280000    -3.6889270000    -0.0034620000
   11      O       2.6312110000    -5.4810750000    -0.0611280000
   12      O      -2.9119070000    -4.4798710000     0.0030210000
   13      C      -3.8547160000    -5.3560260000    -0.6027100000
   14      H      -4.8035170000    -4.7904960000    -0.6706710000
   15      H      -4.0342850000    -6.2685130000     0.0069130000
   16      H      -3.5351850000    -5.6581870000    -1.6235070000
   17      C       3.6108410000    -4.5469990000     0.3757080000
   18      H       4.5625440000    -5.1075640000     0.4411150000
   19      H       3.3640290000    -4.1314730000     1.3762770000
   20      H       3.7435660000    -3.7120850000    -0.3461070000
   21      C      -1.0744910000    -2.3143260000     0.0004580000
   22      S       1.5488480000    -2.2954870000    -0.0131440000
   23      C       0.0000000000    -1.4351800000     0.0000000000
   24      H      -2.1236880000    -1.9932110000     0.0049530000
   25      C       0.0000000000     0.0000000000     0.0000000000
   26      S       0.2349460000     0.8682030000     1.5107320000
   27      C       0.6416300000     2.3901250000     0.7276290000
   28      C       0.2350360000     0.8772840000    -1.0646650000
   29      C       0.5930190000     2.2191430000    -0.6782870000
   30      C       0.2194520000     0.8127320000    -2.4861500000
   31      C       0.5466890000     2.0345010000    -3.1069160000
   32      S       0.8663450000     3.2403570000    -1.9657350000
   33      C       0.6170670000     2.2790950000    -4.5599720000
   34      O       0.3783420000     1.3766310000    -5.3502770000
   35      O       0.9523080000     3.5177250000    -5.0043750000
   36      F      -0.0651230000    -0.2644430000    -3.2462900000
   37      C       1.0549500000     3.8615770000    -6.3349760000
   38      H       1.3415160000     4.9287320000    -6.3702680000
   39      H       0.0935730000     3.7160850000    -6.8756090000
   40      H       1.8223030000     3.2522320000    -6.8618780000
   41      H       0.8798120000     3.2787800000     1.3215100000
   42      H      -0.2576880000    -9.1464710000     0.8515090000
   43      H      -0.2716640000    -9.1505700000    -0.9445420000
   44      H       0.0084620000    -1.4441580000     1.0799300000
 ----------------------------------------------------------------

   11   -2755.3228802857      7.37e-07  Convergence criterion met
 Total energy in the final basis set =    -2755.3228802857
        RIMP2         total energy =     -2760.4141366811 a.u.

                    Orbital Energies (a.u.)
 --------------------------------------------------------------

 Alpha MOs
 -- Occupied --
-92.0195 -91.9963 -91.9774 -91.9575 -26.3353 -20.6130 -20.5867 -20.5864
-20.5515 -11.4116 -11.3775 -11.3090 -11.3086 -11.3065 -11.3001 -11.2989
-11.2975 -11.2889 -11.2842 -11.2825 -11.2823 -11.2818 -11.2801 -11.2719
-11.2719 -11.2576 -11.2564 -11.2490 -11.2358  -9.0178  -9.0003  -8.9796
 -8.9601  -6.6985  -6.6979  -6.6974  -6.6816  -6.6809  -6.6796  -6.6607
 -6.6598  -6.6585  -6.6413  -6.6404  -6.6394  -1.6481  -1.4728  -1.4099
 -1.4084  -1.3683  -1.2384  -1.2085  -1.1748  -1.1442  -1.0987  -1.0504
 -1.0452  -1.0315  -1.0081  -0.9970  -0.9729  -0.9594  -0.9482  -0.9402
 -0.8928  -0.8718  -0.8642  -0.8085  -0.7935  -0.7845  -0.7771  -0.7746
 -0.7651  -0.7330  -0.7213  -0.7164  -0.6968  -0.6925  -0.6811  -0.6793
 -0.6728  -0.6639  -0.6559  -0.6481  -0.6322  -0.6297  -0.6194  -0.6144
 -0.6110  -0.6075  -0.5962  -0.5924  -0.5819  -0.5643  -0.5594  -0.5550
 -0.5482  -0.5353  -0.5280  -0.5220  -0.5125  -0.5071  -0.5037  -0.5011
 -0.4878  -0.4859  -0.4768  -0.4703  -0.4626  -0.4620  -0.4607  -0.4458
 -0.4225  -0.4031  -0.3849  -0.3697  -0.3509  -0.2927  -0.2891  -0.2205

          Ground-State Mulliken Net Atomic Charges

     Atom                 Charge (a.u.)
  ----------------------------------------
      1 C                    -0.069937
      2 C                    -0.262243
      3 S                    -0.136975
      4 C                    -0.042935
      5 H                     0.193126
      6 C                    -0.053403
      7 C                     0.228057
      8 C                     0.223652
      9 C                    -0.074828
     10 C                    -0.050202
     11 O                    -0.334712
     12 O                    -0.343318
     13 C                    -0.082327
     14 H                     0.119822
     15 H                     0.091550
     16 H                     0.093326
     17 C                    -0.086653
     18 H                     0.123084
     19 H                     0.091572
     20 H                     0.090718
     21 C                    -0.259867
     22 S                    -0.070593
     23 C                     0.055446
     24 H                     0.203222
     25 C                    -0.056555
     26 S                     0.103827
     27 C                    -0.234807
     28 C                    -0.101451
     29 C                     0.002810
     30 C                     0.383422
     31 C                    -0.153684
     32 S                     0.042968
     33 C                     0.459473
     34 O                    -0.447607
     35 O                    -0.297567
     36 F                    -0.211540
     37 C                    -0.054996
     38 H                     0.116712
     39 H                     0.084832
     40 H                     0.084858
     41 H                     0.217014
     42 H                     0.116713
     43 H                     0.114712
     44 H                     0.185284
  ----------------------------------------
  Sum of atomic charges =     0.000000

                    Cartesian Multipole Moments
 -----------------------------------------------------------------
    Charge (ESU x 10^10)
                -0.0000
    Dipole Moment (Debye)
         X       1.1233      Y       4.0018      Z       3.6906
       Tot       5.5585
    Quadrupole Moments (Debye-Ang)
        XX    -183.8863     XY       0.3942     YY    -176.6637
        XZ       2.7130     YZ     -10.4721     ZZ    -203.6641

 Total job time:  326.82s(wall), 10564.28s(cpu)
        *  Thank you very much for using Q-Chem.  Have a nice day.  *
