 Q-Chem 5.4, Q-Chem, Inc., Pleasanton, CA (2021)
 Q-Chem 5.4.0 for Intel X86 EM64T Linux

User input:
--------------------------------------------------------------
$molecule
0 1
C	-0.092419	-8.519741	-0.255929
C	0.449364	-7.635967	0.666007
S	-0.885736	-7.651740	-1.592708
C	0.254813	-6.261894	0.332317
H	0.980526	-7.954738	1.571741
C	-0.458965	-6.079985	-0.904324
C	-0.767823	-4.798382	-1.385968
C	0.681909	-5.153542	1.118303
C	0.369139	-3.869626	0.638514
C	-0.342916	-3.688927	-0.600871
O	1.368544	-5.481075	2.248132
O	-1.458570	-4.479871	-2.520275
C	-1.405396	-5.356026	-3.639637
H	-1.820940	-4.790496	-4.495304
H	-2.023129	-6.268513	-3.490336
H	-0.361595	-5.658187	-3.873314
C	1.480048	-4.546999	3.314934
H	1.899255	-5.107564	4.171837
H	0.490123	-4.131473	3.601473
H	2.171521	-3.712085	3.068969
C	-0.537642	-2.314326	-0.930308
S	0.785807	-2.295487	1.334769
C	0.000000	-1.435180	0.000000
H	-1.066134	-1.993211	-1.836691
C	0.000000	0.000000	0.000000
S	0.002233	0.899428	1.510732
C	0.001157	2.474749	0.727629
C	-0.000030	0.908223	-1.064665
C	-0.001545	2.297013	-0.678287
C	0.001624	0.841837	-2.486150
C	0.001494	2.106670	-3.106916
S	-0.001841	3.354171	-1.965735
C	0.006168	2.361146	-4.559972
O	0.009152	1.427646	-5.350277
O	0.009405	3.644337	-5.004375
F	0.005539	-0.272288	-3.246290
C	0.019554	4.003038	-6.334976
H	0.020155	5.108000	-6.370268
H	-0.871409	3.613681	-6.875609
H	0.918470	3.613062	-6.861878
H	0.001222	3.394771	1.321510
H	-0.866272	-9.146471	0.202590
H	0.682165	-9.150570	-0.707539
H	-0.931016	-1.444158	0.547293
$end

$rem
JOBTYPE		SP
EXCHANGE	HF
CORRELATION	pRIMP2
BASIS		cc-pvtz
METHOD		rimp2
AUX_BASIS	rimp2-cc-pvtz
SOLVENT_METHOD	PCM
PURECART	11111
SYMMETRY	false
MEM_TOTAL	110000
SCF_CONVERGENCE = 6
THRESH=10
GUI = 2
$end

$solvent
dielectric 4.90
$end
--------------------------------------------------------------

             Standard Nuclear Orientation (Angstroms)
    I     Atom           X                Y                Z
 ----------------------------------------------------------------
    1      C      -0.0924190000    -8.5197410000    -0.2559290000
    2      C       0.4493640000    -7.6359670000     0.6660070000
    3      S      -0.8857360000    -7.6517400000    -1.5927080000
    4      C       0.2548130000    -6.2618940000     0.3323170000
    5      H       0.9805260000    -7.9547380000     1.5717410000
    6      C      -0.4589650000    -6.0799850000    -0.9043240000
    7      C      -0.7678230000    -4.7983820000    -1.3859680000
    8      C       0.6819090000    -5.1535420000     1.1183030000
    9      C       0.3691390000    -3.8696260000     0.6385140000
   10      C      -0.3429160000    -3.6889270000    -0.6008710000
   11      O       1.3685440000    -5.4810750000     2.2481320000
   12      O      -1.4585700000    -4.4798710000    -2.5202750000
   13      C      -1.4053960000    -5.3560260000    -3.6396370000
   14      H      -1.8209400000    -4.7904960000    -4.4953040000
   15      H      -2.0231290000    -6.2685130000    -3.4903360000
   16      H      -0.3615950000    -5.6581870000    -3.8733140000
   17      C       1.4800480000    -4.5469990000     3.3149340000
   18      H       1.8992550000    -5.1075640000     4.1718370000
   19      H       0.4901230000    -4.1314730000     3.6014730000
   20      H       2.1715210000    -3.7120850000     3.0689690000
   21      C      -0.5376420000    -2.3143260000    -0.9303080000
   22      S       0.7858070000    -2.2954870000     1.3347690000
   23      C       0.0000000000    -1.4351800000     0.0000000000
   24      H      -1.0661340000    -1.9932110000    -1.8366910000
   25      C       0.0000000000     0.0000000000     0.0000000000
   26      S       0.0022330000     0.8994280000     1.5107320000
   27      C       0.0011570000     2.4747490000     0.7276290000
   28      C      -0.0000300000     0.9082230000    -1.0646650000
   29      C      -0.0015450000     2.2970130000    -0.6782870000
   30      C       0.0016240000     0.8418370000    -2.4861500000
   31      C       0.0014940000     2.1066700000    -3.1069160000
   32      S      -0.0018410000     3.3541710000    -1.9657350000
   33      C       0.0061680000     2.3611460000    -4.5599720000
   34      O       0.0091520000     1.4276460000    -5.3502770000
   35      O       0.0094050000     3.6443370000    -5.0043750000
   36      F       0.0055390000    -0.2722880000    -3.2462900000
   37      C       0.0195540000     4.0030380000    -6.3349760000
   38      H       0.0201550000     5.1080000000    -6.3702680000
   39      H      -0.8714090000     3.6136810000    -6.8756090000
   40      H       0.9184700000     3.6130620000    -6.8618780000
   41      H       0.0012220000     3.3947710000     1.3215100000
   42      H      -0.8662720000    -9.1464710000     0.2025900000
   43      H       0.6821650000    -9.1505700000    -0.7075390000
   44      H      -0.9310160000    -1.4441580000     0.5472930000
 ----------------------------------------------------------------

   11   -2755.3277624734      7.63e-07  Convergence criterion met
 Total energy in the final basis set =    -2755.3277624734
        RIMP2         total energy =     -2760.4169559398 a.u.

                    Orbital Energies (a.u.)
 --------------------------------------------------------------

 Alpha MOs
 -- Occupied --
-92.0148 -91.9925 -91.9828 -91.9594 -26.3377 -20.6114 -20.5893 -20.5871
-20.5485 -11.4091 -11.3794 -11.3236 -11.3112 -11.3098 -11.2966 -11.2938
-11.2882 -11.2865 -11.2863 -11.2861 -11.2854 -11.2823 -11.2777 -11.2747
-11.2724 -11.2608 -11.2598 -11.2510 -11.2405  -9.0135  -8.9967  -8.9851
 -8.9620  -6.6944  -6.6938  -6.6932  -6.6780  -6.6773  -6.6759  -6.6662
 -6.6653  -6.6640  -6.6432  -6.6423  -6.6413  -1.6510  -1.4710  -1.4126
 -1.4091  -1.3661  -1.2380  -1.2110  -1.1773  -1.1438  -1.1008  -1.0499
 -1.0480  -1.0294  -1.0101  -1.0000  -0.9717  -0.9601  -0.9500  -0.9407
 -0.8955  -0.8718  -0.8643  -0.8088  -0.7969  -0.7873  -0.7770  -0.7704
 -0.7653  -0.7333  -0.7226  -0.7183  -0.6987  -0.6933  -0.6838  -0.6781
 -0.6718  -0.6685  -0.6577  -0.6493  -0.6388  -0.6308  -0.6214  -0.6155
 -0.6099  -0.6055  -0.5951  -0.5920  -0.5795  -0.5701  -0.5600  -0.5513
 -0.5500  -0.5363  -0.5328  -0.5226  -0.5149  -0.5089  -0.5058  -0.5010
 -0.4857  -0.4840  -0.4806  -0.4717  -0.4626  -0.4608  -0.4591  -0.4473
 -0.4313  -0.3997  -0.3878  -0.3721  -0.3515  -0.2941  -0.2848  -0.2193

          Ground-State Mulliken Net Atomic Charges

     Atom                 Charge (a.u.)
  ----------------------------------------
      1 C                    -0.070746
      2 C                    -0.250242
      3 S                    -0.131983
      4 C                    -0.047754
      5 H                     0.194586
      6 C                    -0.051778
      7 C                     0.225547
      8 C                     0.232215
      9 C                    -0.077684
     10 C                    -0.057412
     11 O                    -0.333634
     12 O                    -0.342974
     13 C                    -0.082595
     14 H                     0.121382
     15 H                     0.091543
     16 H                     0.093111
     17 C                    -0.087995
     18 H                     0.124496
     19 H                     0.093044
     20 H                     0.090276
     21 C                    -0.266237
     22 S                    -0.081767
     23 C                     0.123315
     24 H                     0.204145
     25 C                    -0.117474
     26 S                     0.078806
     27 C                    -0.257573
     28 C                    -0.058300
     29 C                    -0.016748
     30 C                     0.403655
     31 C                    -0.150371
     32 S                     0.028583
     33 C                     0.461985
     34 O                    -0.454303
     35 O                    -0.298293
     36 F                    -0.215452
     37 C                    -0.055188
     38 H                     0.116504
     39 H                     0.084195
     40 H                     0.084306
     41 H                     0.215000
     42 H                     0.118632
     43 H                     0.116532
     44 H                     0.204650
  ----------------------------------------
  Sum of atomic charges =     0.000000

                    Cartesian Multipole Moments
 -----------------------------------------------------------------
    Charge (ESU x 10^10)
                 0.0000
    Dipole Moment (Debye)
         X      -0.4547      Y       2.0177      Z       3.9146
       Tot       4.4274
    Quadrupole Moments (Debye-Ang)
        XX    -200.8048     XY      -2.1353     YY    -169.6805
        XZ       3.6639     YZ     -13.8819     ZZ    -189.3573

 Total job time:  359.28s(wall), 10936.07s(cpu)
        *  Thank you very much for using Q-Chem.  Have a nice day.  *
