 Q-Chem 5.4, Q-Chem, Inc., Pleasanton, CA (2021)
 Q-Chem 5.4.0 for Intel X86 EM64T Linux

User input:
--------------------------------------------------------------
$molecule
0 1
C	0.093711	-8.519741	-0.255459
C	-0.083869	-7.635967	0.799036
S	0.345260	-7.651740	-1.789425
C	-0.018411	-6.261894	0.418360
H	-0.259169	-7.954738	1.834294
C	0.229701	-6.079985	-0.987769
C	0.302697	-4.798382	-1.555260
C	-0.196459	-5.153542	1.294992
C	-0.127651	-3.869626	0.726408
C	0.123544	-3.688927	-0.680716
O	-0.396706	-5.481075	2.601852
O	0.502673	-4.479871	-2.868193
C	1.262918	-5.356026	-3.691495
H	1.494604	-4.790496	-4.614080
H	0.693738	-6.268513	-3.974195
H	2.212720	-5.658187	-3.199559
C	-0.997016	-4.546999	3.490743
H	-1.226691	-5.107564	4.416630
H	-1.939526	-4.131473	3.073934
H	-0.309214	-3.712085	3.746794
C	0.186133	-2.314326	-1.058247
S	-0.256010	-2.295487	1.527599
C	0.000000	-1.435180	0.000000
H	0.363896	-1.993211	-2.092285
C	0.000000	0.000000	0.000000
S	0.080615	0.895811	1.510732
C	0.216842	2.465231	0.727629
C	0.079127	0.904769	-1.064665
C	0.198659	2.288406	-0.678287
C	0.074988	0.838492	-2.486150
C	0.185097	2.098524	-3.106916
S	0.290501	3.341568	-1.965735
C	0.211932	2.351623	-4.559972
O	0.133545	1.421416	-5.350277
O	0.326994	3.629649	-5.004375
F	-0.018214	-0.271734	-3.246290
C	0.368367	3.986101	-6.334976
H	0.465270	5.086806	-6.370268
H	-0.553140	3.675878	-6.875609
H	1.229874	3.519263	-6.861878
H	0.297091	3.381746	1.321510
H	-0.793825	-9.146471	-0.401636
H	0.977367	-9.150570	-0.103519
H	-1.064992	-1.444158	-0.179195
$end

$rem
JOBTYPE		SP
EXCHANGE	HF
CORRELATION	pRIMP2
BASIS		cc-pvtz
METHOD		rimp2
AUX_BASIS	rimp2-cc-pvtz
SOLVENT_METHOD	PCM
PURECART	11111
SYMMETRY	false
MEM_TOTAL	110000
SCF_CONVERGENCE = 6
THRESH=10
GUI = 2
$end

$solvent
dielectric 4.90
$end
--------------------------------------------------------------

             Standard Nuclear Orientation (Angstroms)
    I     Atom           X                Y                Z
 ----------------------------------------------------------------
    1      C       0.0937110000    -8.5197410000    -0.2554590000
    2      C      -0.0838690000    -7.6359670000     0.7990360000
    3      S       0.3452600000    -7.6517400000    -1.7894250000
    4      C      -0.0184110000    -6.2618940000     0.4183600000
    5      H      -0.2591690000    -7.9547380000     1.8342940000
    6      C       0.2297010000    -6.0799850000    -0.9877690000
    7      C       0.3026970000    -4.7983820000    -1.5552600000
    8      C      -0.1964590000    -5.1535420000     1.2949920000
    9      C      -0.1276510000    -3.8696260000     0.7264080000
   10      C       0.1235440000    -3.6889270000    -0.6807160000
   11      O      -0.3967060000    -5.4810750000     2.6018520000
   12      O       0.5026730000    -4.4798710000    -2.8681930000
   13      C       1.2629180000    -5.3560260000    -3.6914950000
   14      H       1.4946040000    -4.7904960000    -4.6140800000
   15      H       0.6937380000    -6.2685130000    -3.9741950000
   16      H       2.2127200000    -5.6581870000    -3.1995590000
   17      C      -0.9970160000    -4.5469990000     3.4907430000
   18      H      -1.2266910000    -5.1075640000     4.4166300000
   19      H      -1.9395260000    -4.1314730000     3.0739340000
   20      H      -0.3092140000    -3.7120850000     3.7467940000
   21      C       0.1861330000    -2.3143260000    -1.0582470000
   22      S      -0.2560100000    -2.2954870000     1.5275990000
   23      C       0.0000000000    -1.4351800000     0.0000000000
   24      H       0.3638960000    -1.9932110000    -2.0922850000
   25      C       0.0000000000     0.0000000000     0.0000000000
   26      S       0.0806150000     0.8958110000     1.5107320000
   27      C       0.2168420000     2.4652310000     0.7276290000
   28      C       0.0791270000     0.9047690000    -1.0646650000
   29      C       0.1986590000     2.2884060000    -0.6782870000
   30      C       0.0749880000     0.8384920000    -2.4861500000
   31      C       0.1850970000     2.0985240000    -3.1069160000
   32      S       0.2905010000     3.3415680000    -1.9657350000
   33      C       0.2119320000     2.3516230000    -4.5599720000
   34      O       0.1335450000     1.4214160000    -5.3502770000
   35      O       0.3269940000     3.6296490000    -5.0043750000
   36      F      -0.0182140000    -0.2717340000    -3.2462900000
   37      C       0.3683670000     3.9861010000    -6.3349760000
   38      H       0.4652700000     5.0868060000    -6.3702680000
   39      H      -0.5531400000     3.6758780000    -6.8756090000
   40      H       1.2298740000     3.5192630000    -6.8618780000
   41      H       0.2970910000     3.3817460000     1.3215100000
   42      H      -0.7938250000    -9.1464710000    -0.4016360000
   43      H       0.9773670000    -9.1505700000    -0.1035190000
   44      H      -1.0649920000    -1.4441580000    -0.1791950000
 ----------------------------------------------------------------

   11   -2755.3253751166      6.81e-07  Convergence criterion met
 Total energy in the final basis set =    -2755.3253751166
        RIMP2         total energy =     -2760.4161803933 a.u.

                    Orbital Energies (a.u.)
 --------------------------------------------------------------

 Alpha MOs
 -- Occupied --
-92.0152 -91.9922 -91.9839 -91.9603 -26.3400 -20.6107 -20.5906 -20.5874
-20.5471 -11.4080 -11.3800 -11.3272 -11.3134 -11.3102 -11.2968 -11.2915
-11.2884 -11.2879 -11.2868 -11.2861 -11.2825 -11.2813 -11.2759 -11.2756
-11.2701 -11.2622 -11.2607 -11.2521 -11.2431  -9.0137  -8.9963  -8.9861
 -8.9629  -6.6945  -6.6939  -6.6934  -6.6776  -6.6769  -6.6756  -6.6673
 -6.6664  -6.6651  -6.6441  -6.6432  -6.6422  -1.6545  -1.4702  -1.4137
 -1.4093  -1.3652  -1.2381  -1.2113  -1.1783  -1.1435  -1.1016  -1.0504
 -1.0489  -1.0283  -1.0111  -1.0008  -0.9714  -0.9603  -0.9508  -0.9410
 -0.8965  -0.8735  -0.8633  -0.8114  -0.7973  -0.7882  -0.7757  -0.7711
 -0.7633  -0.7347  -0.7223  -0.7212  -0.6995  -0.6961  -0.6848  -0.6776
 -0.6733  -0.6717  -0.6582  -0.6497  -0.6401  -0.6307  -0.6224  -0.6162
 -0.6086  -0.6047  -0.5955  -0.5909  -0.5781  -0.5718  -0.5605  -0.5513
 -0.5487  -0.5371  -0.5326  -0.5229  -0.5150  -0.5099  -0.5070  -0.5021
 -0.4850  -0.4835  -0.4802  -0.4694  -0.4636  -0.4604  -0.4580  -0.4488
 -0.4342  -0.3982  -0.3890  -0.3728  -0.3508  -0.2944  -0.2840  -0.2194

          Ground-State Mulliken Net Atomic Charges

     Atom                 Charge (a.u.)
  ----------------------------------------
      1 C                    -0.071152
      2 C                    -0.243250
      3 S                    -0.130070
      4 C                    -0.052363
      5 H                     0.195552
      6 C                    -0.048994
      7 C                     0.226808
      8 C                     0.240126
      9 C                    -0.079077
     10 C                    -0.026617
     11 O                    -0.333227
     12 O                    -0.342797
     13 C                    -0.083435
     14 H                     0.121887
     15 H                     0.092349
     16 H                     0.092624
     17 C                    -0.088941
     18 H                     0.125525
     19 H                     0.093790
     20 H                     0.090579
     21 C                    -0.355217
     22 S                    -0.095080
     23 C                     0.145506
     24 H                     0.215199
     25 C                    -0.097460
     26 S                     0.080733
     27 C                    -0.276185
     28 C                    -0.055190
     29 C                    -0.009231
     30 C                     0.409488
     31 C                    -0.153302
     32 S                     0.027737
     33 C                     0.464826
     34 O                    -0.456889
     35 O                    -0.298667
     36 F                    -0.218931
     37 C                    -0.055298
     38 H                     0.116409
     39 H                     0.084085
     40 H                     0.083977
     41 H                     0.214480
     42 H                     0.119766
     43 H                     0.117486
     44 H                     0.212438
  ----------------------------------------
  Sum of atomic charges =     0.000000

                    Cartesian Multipole Moments
 -----------------------------------------------------------------
    Charge (ESU x 10^10)
                 0.0000
    Dipole Moment (Debye)
         X      -0.5102      Y       1.1713      Z       3.7044
       Tot       3.9185
    Quadrupole Moments (Debye-Ang)
        XX    -197.1197     XY       2.1077     YY    -166.3109
        XZ      -8.9219     YZ     -14.3809     ZZ    -193.4632

 Total job time:  332.45s(wall), 10709.90s(cpu)
        *  Thank you very much for using Q-Chem.  Have a nice day.  *
