 Q-Chem 5.4, Q-Chem, Inc., Pleasanton, CA (2021)
 Q-Chem 5.4.0 for Intel X86 EM64T Linux

User input:
--------------------------------------------------------------
$molecule
0 1
C	-0.208002	-8.519741	-0.175432
C	0.722164	-7.635967	0.352097
S	-1.563424	-7.651740	-0.936458
C	0.386833	-6.261894	0.160388
H	1.635031	-7.954738	0.870905
C	-0.849637	-6.079985	-0.553685
C	-1.357938	-4.798382	-0.816372
C	1.149702	-5.153542	0.627524
C	0.638941	-3.869626	0.368399
C	-0.597409	-3.688927	-0.348912
O	2.309260	-5.481075	1.262667
O	-2.523296	-4.479871	-1.453338
C	-3.036927	-5.356026	-2.449320
H	-3.824632	-4.790496	-2.982577
H	-3.497250	-6.268513	-2.011155
H	-2.249807	-5.658187	-3.173591
C	2.939226	-4.546999	2.130793
H	3.730721	-5.107564	2.663289
H	2.225196	-4.131473	2.873906
H	3.415077	-3.712085	1.572045
C	-0.930765	-2.314326	-0.536849
S	1.347913	-2.295487	0.763041
C	0.000000	-1.435180	0.000000
H	-1.841645	-1.993211	-1.057554
C	0.000000	0.000000	0.000000
S	0.780044	0.447780	1.510732
C	2.143774	1.236372	0.727629
C	0.786529	0.454137	-1.064665
C	1.988499	1.149844	-0.678287
C	0.729864	0.419512	-2.486150
C	1.825177	1.052041	-3.106916
S	2.903877	1.678680	-1.965735
C	2.047896	1.175232	-4.559972
O	1.240953	0.705897	-5.350277
O	3.160791	1.814024	-5.004375
F	-0.233039	-0.140940	-3.246290
C	3.476510	1.984585	-6.334976
H	4.433735	2.536545	-6.370268
H	2.693835	2.561503	-6.875609
H	3.588239	1.011113	-6.861878
H	2.940569	1.696327	1.321510
H	-0.648918	-9.146471	0.608584
H	0.237003	-9.150570	-0.953830
H	-0.532637	-1.444158	0.939477
$end

$rem
JOBTYPE		SP
EXCHANGE	HF
CORRELATION	pRIMP2
BASIS		cc-pvtz
METHOD		rimp2
AUX_BASIS	rimp2-cc-pvtz
SOLVENT_METHOD	PCM
PURECART	11111
SYMMETRY	false
MEM_TOTAL	110000
SCF_CONVERGENCE = 6
THRESH=10
GUI = 2
$end

$solvent
dielectric 4.90
$end
--------------------------------------------------------------

             Standard Nuclear Orientation (Angstroms)
    I     Atom           X                Y                Z
 ----------------------------------------------------------------
    1      C      -0.2080020000    -8.5197410000    -0.1754320000
    2      C       0.7221640000    -7.6359670000     0.3520970000
    3      S      -1.5634240000    -7.6517400000    -0.9364580000
    4      C       0.3868330000    -6.2618940000     0.1603880000
    5      H       1.6350310000    -7.9547380000     0.8709050000
    6      C      -0.8496370000    -6.0799850000    -0.5536850000
    7      C      -1.3579380000    -4.7983820000    -0.8163720000
    8      C       1.1497020000    -5.1535420000     0.6275240000
    9      C       0.6389410000    -3.8696260000     0.3683990000
   10      C      -0.5974090000    -3.6889270000    -0.3489120000
   11      O       2.3092600000    -5.4810750000     1.2626670000
   12      O      -2.5232960000    -4.4798710000    -1.4533380000
   13      C      -3.0369270000    -5.3560260000    -2.4493200000
   14      H      -3.8246320000    -4.7904960000    -2.9825770000
   15      H      -3.4972500000    -6.2685130000    -2.0111550000
   16      H      -2.2498070000    -5.6581870000    -3.1735910000
   17      C       2.9392260000    -4.5469990000     2.1307930000
   18      H       3.7307210000    -5.1075640000     2.6632890000
   19      H       2.2251960000    -4.1314730000     2.8739060000
   20      H       3.4150770000    -3.7120850000     1.5720450000
   21      C      -0.9307650000    -2.3143260000    -0.5368490000
   22      S       1.3479130000    -2.2954870000     0.7630410000
   23      C       0.0000000000    -1.4351800000     0.0000000000
   24      H      -1.8416450000    -1.9932110000    -1.0575540000
   25      C       0.0000000000     0.0000000000     0.0000000000
   26      S       0.7800440000     0.4477800000     1.5107320000
   27      C       2.1437740000     1.2363720000     0.7276290000
   28      C       0.7865290000     0.4541370000    -1.0646650000
   29      C       1.9884990000     1.1498440000    -0.6782870000
   30      C       0.7298640000     0.4195120000    -2.4861500000
   31      C       1.8251770000     1.0520410000    -3.1069160000
   32      S       2.9038770000     1.6786800000    -1.9657350000
   33      C       2.0478960000     1.1752320000    -4.5599720000
   34      O       1.2409530000     0.7058970000    -5.3502770000
   35      O       3.1607910000     1.8140240000    -5.0043750000
   36      F      -0.2330390000    -0.1409400000    -3.2462900000
   37      C       3.4765100000     1.9845850000    -6.3349760000
   38      H       4.4337350000     2.5365450000    -6.3702680000
   39      H       2.6938350000     2.5615030000    -6.8756090000
   40      H       3.5882390000     1.0111130000    -6.8618780000
   41      H       2.9405690000     1.6963270000     1.3215100000
   42      H      -0.6489180000    -9.1464710000     0.6085840000
   43      H       0.2370030000    -9.1505700000    -0.9538300000
   44      H      -0.5326370000    -1.4441580000     0.9394770000
 ----------------------------------------------------------------

   11   -2755.2538928042      7.54e-07  Convergence criterion met
 Total energy in the final basis set =    -2755.2538928042
        RIMP2         total energy =     -2760.3656728021 a.u.

                    Orbital Energies (a.u.)
 --------------------------------------------------------------

 Alpha MOs
 -- Occupied --
-92.0173 -92.0076 -91.9689 -91.9541 -26.3356 -20.6168 -20.5847 -20.5830
-20.5585 -11.4175 -11.3763 -11.3299 -11.3145 -11.3062 -11.3014 -11.3001
-11.2930 -11.2909 -11.2827 -11.2805 -11.2777 -11.2718 -11.2696 -11.2686
-11.2670 -11.2544 -11.2492 -11.2456 -11.2284  -9.0169  -9.0110  -8.9718
 -8.9568  -6.6974  -6.6965  -6.6965  -6.6922  -6.6916  -6.6903  -6.6528
 -6.6519  -6.6506  -6.6380  -6.6371  -6.6361  -1.6487  -1.4771  -1.4070
 -1.4059  -1.3734  -1.2489  -1.2063  -1.1732  -1.1468  -1.0954  -1.0556
 -1.0422  -1.0353  -1.0055  -0.9935  -0.9771  -0.9597  -0.9457  -0.9385
 -0.8908  -0.8778  -0.8570  -0.8080  -0.7983  -0.7838  -0.7789  -0.7713
 -0.7608  -0.7335  -0.7199  -0.7181  -0.6975  -0.6935  -0.6825  -0.6790
 -0.6780  -0.6648  -0.6533  -0.6460  -0.6331  -0.6281  -0.6162  -0.6127
 -0.6124  -0.6106  -0.6045  -0.5902  -0.5726  -0.5627  -0.5582  -0.5524
 -0.5389  -0.5364  -0.5296  -0.5224  -0.5124  -0.5066  -0.5051  -0.4980
 -0.4904  -0.4827  -0.4767  -0.4683  -0.4654  -0.4636  -0.4504  -0.4424
 -0.4213  -0.3937  -0.3840  -0.3650  -0.3462  -0.3043  -0.2840  -0.2143

          Ground-State Mulliken Net Atomic Charges

     Atom                 Charge (a.u.)
  ----------------------------------------
      1 C                    -0.068973
      2 C                    -0.282915
      3 S                    -0.143497
      4 C                    -0.040489
      5 H                     0.190054
      6 C                    -0.055408
      7 C                     0.225058
      8 C                     0.217509
      9 C                    -0.081643
     10 C                    -0.052128
     11 O                    -0.336552
     12 O                    -0.343030
     13 C                    -0.082213
     14 H                     0.119542
     15 H                     0.091348
     16 H                     0.092671
     17 C                    -0.086500
     18 H                     0.122358
     19 H                     0.089921
     20 H                     0.088549
     21 C                    -0.284389
     22 S                    -0.092175
     23 C                     0.025042
     24 H                     0.205707
     25 C                    -0.187223
     26 S                     0.122996
     27 C                    -0.143636
     28 C                     0.019215
     29 C                    -0.029857
     30 C                     0.353763
     31 C                    -0.113451
     32 S                     0.075667
     33 C                     0.457605
     34 O                    -0.436469
     35 O                    -0.296198
     36 F                    -0.210670
     37 C                    -0.054776
     38 H                     0.117705
     39 H                     0.085898
     40 H                     0.086138
     41 H                     0.223348
     42 H                     0.113920
     43 H                     0.111714
     44 H                     0.186463
  ----------------------------------------
  Sum of atomic charges =     0.000000

                    Cartesian Multipole Moments
 -----------------------------------------------------------------
    Charge (ESU x 10^10)
                -0.0000
    Dipole Moment (Debye)
         X       5.0448      Y       5.0046      Z       3.0211
       Tot       7.7216
    Quadrupole Moments (Debye-Ang)
        XX    -177.9716     XY       7.1127     YY    -199.1715
        XZ      -2.2522     YZ      -7.5981     ZZ    -190.8228

 Total job time:  333.59s(wall), 10998.98s(cpu)
        *  Thank you very much for using Q-Chem.  Have a nice day.  *
