 Q-Chem 5.4, Q-Chem, Inc., Pleasanton, CA (2021)
 Q-Chem 5.4.0 for Intel X86 EM64T Linux

User input:
--------------------------------------------------------------
$molecule
0 1
C	-0.235306	-8.519741	-0.136647
C	0.772334	-7.635967	0.221346
S	-1.702286	-7.651740	-0.650746
C	0.408807	-6.261894	0.090779
H	1.761423	-7.954738	0.573754
C	-0.932876	-6.079985	-0.397735
C	-1.479069	-4.798382	-0.568166
C	1.241204	-5.153542	0.418347
C	0.693206	-3.869626	0.251852
C	-0.648921	-3.688927	-0.239872
O	2.493437	-5.481075	0.842486
O	-2.737331	-4.479871	-0.993092
C	-3.416110	-5.356026	-1.884752
H	-4.284447	-4.790496	-2.273124
H	-3.793352	-6.268513	-1.373310
H	-2.766716	-5.658187	-2.734702
C	3.264581	-4.546999	1.588030
H	4.136519	-5.107564	1.974995
H	2.690439	-4.131473	2.443843
H	3.636177	-3.712085	0.955140
C	-1.009848	-2.314326	-0.367068
S	1.459936	-2.295487	0.517386
C	-0.000000	-1.435180	-0.000000
H	-1.997308	-1.993211	-0.721689
C	0.000000	0.000000	0.000000
S	0.382139	0.814215	1.510732
C	1.046923	2.242395	0.727629
C	0.383804	0.823142	-1.064665
C	0.969360	2.082453	-0.678287
C	0.357247	0.762277	-2.486150
C	0.891671	1.908660	-3.106916
S	1.415865	3.040689	-1.965735
C	1.003453	2.137318	-4.559972
O	0.611644	1.290019	-5.350277
O	1.548687	3.298916	-5.004375
F	-0.110054	-0.249117	-3.246290
C	1.709479	3.619721	-6.334976
H	2.177001	4.620902	-6.370268
H	0.737443	3.643380	-6.875609
H	2.359363	2.886384	-6.861878
H	1.435800	3.076190	1.321510
H	-0.533380	-9.146471	0.712022
H	0.067771	-9.150570	-0.980494
H	-0.361406	-1.444158	1.017696
$end

$rem
JOBTYPE		SP
EXCHANGE	HF
CORRELATION	pRIMP2
BASIS		cc-pvtz
METHOD		rimp2
AUX_BASIS	rimp2-cc-pvtz
SOLVENT_METHOD	PCM
PURECART	11111
SYMMETRY	false
MEM_TOTAL	110000
SCF_CONVERGENCE = 6
THRESH=10
GUI = 2
$end

$solvent
dielectric 4.90
$end
--------------------------------------------------------------

             Standard Nuclear Orientation (Angstroms)
    I     Atom           X                Y                Z
 ----------------------------------------------------------------
    1      C      -0.2353060000    -8.5197410000    -0.1366470000
    2      C       0.7723340000    -7.6359670000     0.2213460000
    3      S      -1.7022860000    -7.6517400000    -0.6507460000
    4      C       0.4088070000    -6.2618940000     0.0907790000
    5      H       1.7614230000    -7.9547380000     0.5737540000
    6      C      -0.9328760000    -6.0799850000    -0.3977350000
    7      C      -1.4790690000    -4.7983820000    -0.5681660000
    8      C       1.2412040000    -5.1535420000     0.4183470000
    9      C       0.6932060000    -3.8696260000     0.2518520000
   10      C      -0.6489210000    -3.6889270000    -0.2398720000
   11      O       2.4934370000    -5.4810750000     0.8424860000
   12      O      -2.7373310000    -4.4798710000    -0.9930920000
   13      C      -3.4161100000    -5.3560260000    -1.8847520000
   14      H      -4.2844470000    -4.7904960000    -2.2731240000
   15      H      -3.7933520000    -6.2685130000    -1.3733100000
   16      H      -2.7667160000    -5.6581870000    -2.7347020000
   17      C       3.2645810000    -4.5469990000     1.5880300000
   18      H       4.1365190000    -5.1075640000     1.9749950000
   19      H       2.6904390000    -4.1314730000     2.4438430000
   20      H       3.6361770000    -3.7120850000     0.9551400000
   21      C      -1.0098480000    -2.3143260000    -0.3670680000
   22      S       1.4599360000    -2.2954870000     0.5173860000
   23      C       0.0000000000    -1.4351800000     0.0000000000
   24      H      -1.9973080000    -1.9932110000    -0.7216890000
   25      C       0.0000000000     0.0000000000     0.0000000000
   26      S       0.3821390000     0.8142150000     1.5107320000
   27      C       1.0469230000     2.2423950000     0.7276290000
   28      C       0.3838040000     0.8231420000    -1.0646650000
   29      C       0.9693600000     2.0824530000    -0.6782870000
   30      C       0.3572470000     0.7622770000    -2.4861500000
   31      C       0.8916710000     1.9086600000    -3.1069160000
   32      S       1.4158650000     3.0406890000    -1.9657350000
   33      C       1.0034530000     2.1373180000    -4.5599720000
   34      O       0.6116440000     1.2900190000    -5.3502770000
   35      O       1.5486870000     3.2989160000    -5.0043750000
   36      F      -0.1100540000    -0.2491170000    -3.2462900000
   37      C       1.7094790000     3.6197210000    -6.3349760000
   38      H       2.1770010000     4.6209020000    -6.3702680000
   39      H       0.7374430000     3.6433800000    -6.8756090000
   40      H       2.3593630000     2.8863840000    -6.8618780000
   41      H       1.4358000000     3.0761900000     1.3215100000
   42      H      -0.5333800000    -9.1464710000     0.7120220000
   43      H       0.0677710000    -9.1505700000    -0.9804940000
   44      H      -0.3614060000    -1.4441580000     1.0176960000
 ----------------------------------------------------------------

   11   -2755.3157947454      7.22e-07  Convergence criterion met
 Total energy in the final basis set =    -2755.3157947454
        RIMP2         total energy =     -2760.4100120672 a.u.

                    Orbital Energies (a.u.)
 --------------------------------------------------------------

 Alpha MOs
 -- Occupied --
-92.0190 -91.9973 -91.9769 -91.9571 -26.3356 -20.6134 -20.5864 -20.5862
-20.5522 -11.4122 -11.3774 -11.3083 -11.3059 -11.3051 -11.3020 -11.3015
-11.2980 -11.2892 -11.2842 -11.2827 -11.2823 -11.2819 -11.2791 -11.2717
-11.2714 -11.2573 -11.2556 -11.2486 -11.2349  -9.0174  -9.0013  -8.9792
 -8.9597  -6.6981  -6.6975  -6.6971  -6.6825  -6.6819  -6.6805  -6.6603
 -6.6594  -6.6581  -6.6409  -6.6400  -6.6390  -1.6485  -1.4732  -1.4096
 -1.4081  -1.3688  -1.2392  -1.2082  -1.1745  -1.1445  -1.0983  -1.0508
 -1.0450  -1.0316  -1.0080  -0.9967  -0.9733  -0.9595  -0.9479  -0.9399
 -0.8928  -0.8723  -0.8634  -0.8076  -0.7948  -0.7843  -0.7776  -0.7737
 -0.7645  -0.7328  -0.7214  -0.7168  -0.6967  -0.6929  -0.6809  -0.6796
 -0.6735  -0.6638  -0.6556  -0.6479  -0.6317  -0.6302  -0.6190  -0.6140
 -0.6113  -0.6080  -0.5971  -0.5925  -0.5794  -0.5648  -0.5584  -0.5538
 -0.5463  -0.5363  -0.5289  -0.5225  -0.5127  -0.5069  -0.5041  -0.5003
 -0.4878  -0.4857  -0.4756  -0.4719  -0.4632  -0.4623  -0.4599  -0.4453
 -0.4233  -0.4019  -0.3844  -0.3693  -0.3507  -0.2938  -0.2881  -0.2195

          Ground-State Mulliken Net Atomic Charges

     Atom                 Charge (a.u.)
  ----------------------------------------
      1 C                    -0.069904
      2 C                    -0.265407
      3 S                    -0.137405
      4 C                    -0.042313
      5 H                     0.192586
      6 C                    -0.053007
      7 C                     0.223705
      8 C                     0.222654
      9 C                    -0.075556
     10 C                    -0.048484
     11 O                    -0.335091
     12 O                    -0.343397
     13 C                    -0.082274
     14 H                     0.119928
     15 H                     0.091435
     16 H                     0.093341
     17 C                    -0.086815
     18 H                     0.123142
     19 H                     0.091474
     20 H                     0.090210
     21 C                    -0.254897
     22 S                    -0.068950
     23 C                     0.028766
     24 H                     0.204906
     25 C                    -0.062305
     26 S                     0.104129
     27 C                    -0.220526
     28 C                    -0.073381
     29 C                    -0.001099
     30 C                     0.362875
     31 C                    -0.144396
     32 S                     0.046665
     33 C                     0.457889
     34 O                    -0.446598
     35 O                    -0.297506
     36 F                    -0.211099
     37 C                    -0.054893
     38 H                     0.116864
     39 H                     0.084839
     40 H                     0.085018
     41 H                     0.217520
     42 H                     0.116406
     43 H                     0.114333
     44 H                     0.186618
  ----------------------------------------
  Sum of atomic charges =     0.000000

                    Cartesian Multipole Moments
 -----------------------------------------------------------------
    Charge (ESU x 10^10)
                -0.0000
    Dipole Moment (Debye)
         X       1.6341      Y       4.1423      Z       3.6442
       Tot       5.7540
    Quadrupole Moments (Debye-Ang)
        XX    -187.3478     XY       3.1232     YY    -179.6023
        XZ       4.2153     YZ     -11.1778     ZZ    -197.9231

 Total job time:  341.54s(wall), 10285.48s(cpu)
        *  Thank you very much for using Q-Chem.  Have a nice day.  *
