 Q-Chem 5.4, Q-Chem, Inc., Pleasanton, CA (2021)
 Q-Chem 5.4.0 for Intel X86 EM64T Linux

User input:
--------------------------------------------------------------
$molecule
0 1
C	0.255929	-8.519741	-0.092419
C	-0.666007	-7.635967	0.449364
S	1.592708	-7.651740	-0.885736
C	-0.332317	-6.261894	0.254813
H	-1.571741	-7.954738	0.980526
C	0.904324	-6.079985	-0.458965
C	1.385968	-4.798382	-0.767823
C	-1.118303	-5.153542	0.681909
C	-0.638514	-3.869626	0.369139
C	0.600871	-3.688927	-0.342916
O	-2.248132	-5.481075	1.368544
O	2.520275	-4.479871	-1.458570
C	3.639637	-5.356026	-1.405396
H	4.495304	-4.790496	-1.820940
H	3.490336	-6.268513	-2.023129
H	3.873314	-5.658187	-0.361595
C	-3.314934	-4.546999	1.480048
H	-4.171837	-5.107564	1.899255
H	-3.601473	-4.131473	0.490123
H	-3.068969	-3.712085	2.171521
C	0.930308	-2.314326	-0.537642
S	-1.334769	-2.295487	0.785807
C	0.000000	-1.435180	0.000000
H	1.836691	-1.993211	-1.066134
C	0.000000	0.000000	0.000000
S	0.780044	0.447780	1.510732
C	2.143774	1.236372	0.727629
C	0.786529	0.454137	-1.064665
C	1.988499	1.149844	-0.678287
C	0.729864	0.419512	-2.486150
C	1.825177	1.052041	-3.106916
S	2.903877	1.678680	-1.965735
C	2.047896	1.175232	-4.559972
O	1.240953	0.705897	-5.350277
O	3.160791	1.814024	-5.004375
F	-0.233039	-0.140940	-3.246290
C	3.476510	1.984585	-6.334976
H	4.433735	2.536545	-6.370268
H	2.693835	2.561503	-6.875609
H	3.588239	1.011113	-6.861878
H	2.940569	1.696327	1.321510
H	-0.202590	-9.146471	-0.866272
H	0.707539	-9.150570	0.682165
H	-0.547293	-1.444158	-0.931016
$end

$rem
JOBTYPE		SP
EXCHANGE	HF
CORRELATION	pRIMP2
BASIS		cc-pvtz
METHOD		rimp2
AUX_BASIS	rimp2-cc-pvtz
SOLVENT_METHOD	PCM
PURECART	11111
SYMMETRY	false
MEM_TOTAL	110000
SCF_CONVERGENCE = 6
THRESH=10
GUI = 2
$end

$solvent
dielectric 4.90
$end
--------------------------------------------------------------

             Standard Nuclear Orientation (Angstroms)
    I     Atom           X                Y                Z
 ----------------------------------------------------------------
    1      C       0.2559290000    -8.5197410000    -0.0924190000
    2      C      -0.6660070000    -7.6359670000     0.4493640000
    3      S       1.5927080000    -7.6517400000    -0.8857360000
    4      C      -0.3323170000    -6.2618940000     0.2548130000
    5      H      -1.5717410000    -7.9547380000     0.9805260000
    6      C       0.9043240000    -6.0799850000    -0.4589650000
    7      C       1.3859680000    -4.7983820000    -0.7678230000
    8      C      -1.1183030000    -5.1535420000     0.6819090000
    9      C      -0.6385140000    -3.8696260000     0.3691390000
   10      C       0.6008710000    -3.6889270000    -0.3429160000
   11      O      -2.2481320000    -5.4810750000     1.3685440000
   12      O       2.5202750000    -4.4798710000    -1.4585700000
   13      C       3.6396370000    -5.3560260000    -1.4053960000
   14      H       4.4953040000    -4.7904960000    -1.8209400000
   15      H       3.4903360000    -6.2685130000    -2.0231290000
   16      H       3.8733140000    -5.6581870000    -0.3615950000
   17      C      -3.3149340000    -4.5469990000     1.4800480000
   18      H      -4.1718370000    -5.1075640000     1.8992550000
   19      H      -3.6014730000    -4.1314730000     0.4901230000
   20      H      -3.0689690000    -3.7120850000     2.1715210000
   21      C       0.9303080000    -2.3143260000    -0.5376420000
   22      S      -1.3347690000    -2.2954870000     0.7858070000
   23      C       0.0000000000    -1.4351800000     0.0000000000
   24      H       1.8366910000    -1.9932110000    -1.0661340000
   25      C       0.0000000000     0.0000000000     0.0000000000
   26      S       0.7800440000     0.4477800000     1.5107320000
   27      C       2.1437740000     1.2363720000     0.7276290000
   28      C       0.7865290000     0.4541370000    -1.0646650000
   29      C       1.9884990000     1.1498440000    -0.6782870000
   30      C       0.7298640000     0.4195120000    -2.4861500000
   31      C       1.8251770000     1.0520410000    -3.1069160000
   32      S       2.9038770000     1.6786800000    -1.9657350000
   33      C       2.0478960000     1.1752320000    -4.5599720000
   34      O       1.2409530000     0.7058970000    -5.3502770000
   35      O       3.1607910000     1.8140240000    -5.0043750000
   36      F      -0.2330390000    -0.1409400000    -3.2462900000
   37      C       3.4765100000     1.9845850000    -6.3349760000
   38      H       4.4337350000     2.5365450000    -6.3702680000
   39      H       2.6938350000     2.5615030000    -6.8756090000
   40      H       3.5882390000     1.0111130000    -6.8618780000
   41      H       2.9405690000     1.6963270000     1.3215100000
   42      H      -0.2025900000    -9.1464710000    -0.8662720000
   43      H       0.7075390000    -9.1505700000     0.6821650000
   44      H      -0.5472930000    -1.4441580000    -0.9310160000
 ----------------------------------------------------------------

   11   -2755.2643540107      7.57e-07  Convergence criterion met
 Total energy in the final basis set =    -2755.2643540107
        RIMP2         total energy =     -2760.3749042938 a.u.

                    Orbital Energies (a.u.)
 --------------------------------------------------------------

 Alpha MOs
 -- Occupied --
-92.0115 -92.0095 -91.9703 -91.9557 -26.3386 -20.6175 -20.5862 -20.5835
-20.5592 -11.4184 -11.3793 -11.3282 -11.3156 -11.3074 -11.3036 -11.3017
-11.2980 -11.2914 -11.2822 -11.2820 -11.2792 -11.2741 -11.2729 -11.2699
-11.2693 -11.2554 -11.2528 -11.2470 -11.2310  -9.0129  -9.0111  -8.9726
 -8.9583  -6.6940  -6.6934  -6.6922  -6.6917  -6.6907  -6.6907  -6.6537
 -6.6529  -6.6516  -6.6396  -6.6386  -6.6376  -1.6517  -1.4778  -1.4083
 -1.4065  -1.3742  -1.2508  -1.2061  -1.1740  -1.1474  -1.0983  -1.0571
 -1.0429  -1.0349  -1.0061  -0.9946  -0.9769  -0.9594  -0.9476  -0.9410
 -0.8912  -0.8791  -0.8571  -0.8090  -0.7989  -0.7839  -0.7814  -0.7722
 -0.7583  -0.7341  -0.7218  -0.7169  -0.6981  -0.6937  -0.6852  -0.6832
 -0.6802  -0.6739  -0.6539  -0.6468  -0.6357  -0.6263  -0.6175  -0.6146
 -0.6133  -0.6105  -0.6050  -0.5935  -0.5782  -0.5671  -0.5567  -0.5548
 -0.5427  -0.5337  -0.5269  -0.5225  -0.5110  -0.5065  -0.5052  -0.4994
 -0.4925  -0.4822  -0.4695  -0.4669  -0.4651  -0.4642  -0.4547  -0.4427
 -0.4173  -0.3994  -0.3805  -0.3672  -0.3512  -0.3058  -0.2862  -0.2153

          Ground-State Mulliken Net Atomic Charges

     Atom                 Charge (a.u.)
  ----------------------------------------
      1 C                    -0.069033
      2 C                    -0.275751
      3 S                    -0.141415
      4 C                    -0.040417
      5 H                     0.191358
      6 C                    -0.053279
      7 C                     0.225641
      8 C                     0.221574
      9 C                    -0.072602
     10 C                    -0.050427
     11 O                    -0.336366
     12 O                    -0.344596
     13 C                    -0.082633
     14 H                     0.118983
     15 H                     0.092398
     16 H                     0.092427
     17 C                    -0.086802
     18 H                     0.122797
     19 H                     0.091769
     20 H                     0.089780
     21 C                    -0.285602
     22 S                    -0.108291
     23 C                     0.097946
     24 H                     0.203316
     25 C                    -0.211343
     26 S                     0.114415
     27 C                    -0.138694
     28 C                    -0.077941
     29 C                    -0.021827
     30 C                     0.391947
     31 C                    -0.118892
     32 S                     0.081284
     33 C                     0.458791
     34 O                    -0.436299
     35 O                    -0.296384
     36 F                    -0.212948
     37 C                    -0.054733
     38 H                     0.117834
     39 H                     0.086153
     40 H                     0.086239
     41 H                     0.221075
     42 H                     0.115300
     43 H                     0.112728
     44 H                     0.182518
  ----------------------------------------
  Sum of atomic charges =     0.000000

                    Cartesian Multipole Moments
 -----------------------------------------------------------------
    Charge (ESU x 10^10)
                 0.0000
    Dipole Moment (Debye)
         X       5.0279      Y       4.3809      Z       1.8444
       Tot       6.9191
    Quadrupole Moments (Debye-Ang)
        XX    -168.1134     XY      12.2031     YY    -194.1724
        XZ     -14.7830     YZ      -8.1218     ZZ    -201.1235

 Total job time:  335.82s(wall), 10781.86s(cpu)
        *  Thank you very much for using Q-Chem.  Have a nice day.  *
