 Q-Chem 5.4, Q-Chem, Inc., Pleasanton, CA (2021)
 Q-Chem 5.4.0 for Intel X86 EM64T Linux

User input:
--------------------------------------------------------------
$molecule
0 1
C	0.272104	-8.519741	0.000687
C	-0.779533	-7.635967	0.194476
S	1.799596	-7.651740	-0.287581
C	-0.399427	-6.261894	0.125787
H	-1.812314	-7.954738	0.383826
C	1.006762	-6.079985	-0.121989
C	1.564994	-4.798382	-0.247488
C	-1.284087	-5.153542	0.258303
C	-0.726260	-3.869626	0.128493
C	0.681918	-3.688927	-0.116725
O	-2.580622	-5.481075	0.517104
O	2.867144	-4.479871	-0.508622
C	3.900814	-5.356026	-0.075811
H	4.847002	-4.790496	-0.173640
H	3.971794	-6.268513	-0.707354
H	3.763397	-5.658187	0.984963
C	-3.621225	-4.546999	0.257016
H	-4.569828	-5.107564	0.357864
H	-3.551910	-4.131473	-0.771211
H	-3.626592	-3.712085	0.990913
C	1.058088	-2.314326	-0.187034
S	-1.523035	-2.295487	0.281899
C	0.000000	-1.435180	0.000000
H	2.090565	-1.993211	-0.373653
C	0.000000	0.000000	0.000000
S	0.309721	0.844422	1.510732
C	0.847502	2.325108	0.727629
C	0.310602	0.853460	-1.064665
C	0.784173	2.159014	-0.678287
C	0.289451	0.790512	-2.486150
C	0.721927	1.979112	-3.106916
S	1.145464	3.152519	-1.965735
C	0.813355	2.216642	-4.559972
O	0.496884	1.338418	-5.350277
O	1.255274	3.421340	-5.004375
F	-0.087923	-0.257761	-3.246290
C	1.387494	3.754937	-6.334976
H	1.765978	4.793056	-6.370268
H	0.417095	3.693789	-6.875609
H	2.098820	3.081033	-6.861878
H	1.162229	3.189623	1.321510
H	0.105910	-9.146471	-0.883319
H	0.431555	-9.150570	0.883019
H	-0.195861	-1.444158	-1.062054
$end

$rem
JOBTYPE		SP
EXCHANGE	HF
CORRELATION	pRIMP2
BASIS		cc-pvtz
METHOD		rimp2
AUX_BASIS	rimp2-cc-pvtz
SOLVENT_METHOD	PCM
PURECART	11111
SYMMETRY	false
MEM_TOTAL	110000
SCF_CONVERGENCE = 6
THRESH=10
GUI = 2
$end

$solvent
dielectric 4.90
$end
--------------------------------------------------------------

             Standard Nuclear Orientation (Angstroms)
    I     Atom           X                Y                Z
 ----------------------------------------------------------------
    1      C       0.2721040000    -8.5197410000     0.0006870000
    2      C      -0.7795330000    -7.6359670000     0.1944760000
    3      S       1.7995960000    -7.6517400000    -0.2875810000
    4      C      -0.3994270000    -6.2618940000     0.1257870000
    5      H      -1.8123140000    -7.9547380000     0.3838260000
    6      C       1.0067620000    -6.0799850000    -0.1219890000
    7      C       1.5649940000    -4.7983820000    -0.2474880000
    8      C      -1.2840870000    -5.1535420000     0.2583030000
    9      C      -0.7262600000    -3.8696260000     0.1284930000
   10      C       0.6819180000    -3.6889270000    -0.1167250000
   11      O      -2.5806220000    -5.4810750000     0.5171040000
   12      O       2.8671440000    -4.4798710000    -0.5086220000
   13      C       3.9008140000    -5.3560260000    -0.0758110000
   14      H       4.8470020000    -4.7904960000    -0.1736400000
   15      H       3.9717940000    -6.2685130000    -0.7073540000
   16      H       3.7633970000    -5.6581870000     0.9849630000
   17      C      -3.6212250000    -4.5469990000     0.2570160000
   18      H      -4.5698280000    -5.1075640000     0.3578640000
   19      H      -3.5519100000    -4.1314730000    -0.7712110000
   20      H      -3.6265920000    -3.7120850000     0.9909130000
   21      C       1.0580880000    -2.3143260000    -0.1870340000
   22      S      -1.5230350000    -2.2954870000     0.2818990000
   23      C       0.0000000000    -1.4351800000     0.0000000000
   24      H       2.0905650000    -1.9932110000    -0.3736530000
   25      C       0.0000000000     0.0000000000     0.0000000000
   26      S       0.3097210000     0.8444220000     1.5107320000
   27      C       0.8475020000     2.3251080000     0.7276290000
   28      C       0.3106020000     0.8534600000    -1.0646650000
   29      C       0.7841730000     2.1590140000    -0.6782870000
   30      C       0.2894510000     0.7905120000    -2.4861500000
   31      C       0.7219270000     1.9791120000    -3.1069160000
   32      S       1.1454640000     3.1525190000    -1.9657350000
   33      C       0.8133550000     2.2166420000    -4.5599720000
   34      O       0.4968840000     1.3384180000    -5.3502770000
   35      O       1.2552740000     3.4213400000    -5.0043750000
   36      F      -0.0879230000    -0.2577610000    -3.2462900000
   37      C       1.3874940000     3.7549370000    -6.3349760000
   38      H       1.7659780000     4.7930560000    -6.3702680000
   39      H       0.4170950000     3.6937890000    -6.8756090000
   40      H       2.0988200000     3.0810330000    -6.8618780000
   41      H       1.1622290000     3.1896230000     1.3215100000
   42      H       0.1059100000    -9.1464710000    -0.8833190000
   43      H       0.4315550000    -9.1505700000     0.8830190000
   44      H      -0.1958610000    -1.4441580000    -1.0620540000
 ----------------------------------------------------------------

   11   -2755.3224948751      6.81e-07  Convergence criterion met
 Total energy in the final basis set =    -2755.3224948751
        RIMP2         total energy =     -2760.4159923363 a.u.

                    Orbital Energies (a.u.)
 --------------------------------------------------------------

 Alpha MOs
 -- Occupied --
-92.0126 -91.9980 -91.9758 -91.9578 -26.3390 -20.6140 -20.5869 -20.5862
-20.5530 -11.4130 -11.3796 -11.3088 -11.3087 -11.3063 -11.3026 -11.3002
-11.2980 -11.2895 -11.2881 -11.2838 -11.2826 -11.2820 -11.2794 -11.2726
-11.2723 -11.2577 -11.2575 -11.2492 -11.2363  -9.0113  -9.0020  -8.9780
 -8.9604  -6.6920  -6.6914  -6.6911  -6.6832  -6.6826  -6.6812  -6.6591
 -6.6582  -6.6570  -6.6417  -6.6408  -6.6397  -1.6521  -1.4739  -1.4098
 -1.4085  -1.3695  -1.2401  -1.2079  -1.1747  -1.1439  -1.0996  -1.0527
 -1.0453  -1.0301  -1.0084  -0.9971  -0.9733  -0.9593  -0.9484  -0.9411
 -0.8927  -0.8749  -0.8622  -0.8091  -0.7946  -0.7846  -0.7811  -0.7712
 -0.7620  -0.7336  -0.7204  -0.7194  -0.6977  -0.6923  -0.6873  -0.6802
 -0.6761  -0.6742  -0.6550  -0.6481  -0.6324  -0.6274  -0.6196  -0.6146
 -0.6108  -0.6083  -0.5975  -0.5937  -0.5831  -0.5658  -0.5574  -0.5540
 -0.5485  -0.5326  -0.5287  -0.5224  -0.5125  -0.5072  -0.5032  -0.5012
 -0.4878  -0.4854  -0.4755  -0.4691  -0.4635  -0.4628  -0.4599  -0.4456
 -0.4211  -0.4047  -0.3847  -0.3696  -0.3501  -0.2941  -0.2888  -0.2204

          Ground-State Mulliken Net Atomic Charges

     Atom                 Charge (a.u.)
  ----------------------------------------
      1 C                    -0.070260
      2 C                    -0.260811
      3 S                    -0.135624
      4 C                    -0.044917
      5 H                     0.193283
      6 C                    -0.052503
      7 C                     0.223026
      8 C                     0.230126
      9 C                    -0.086312
     10 C                    -0.044324
     11 O                    -0.335529
     12 O                    -0.343346
     13 C                    -0.082481
     14 H                     0.119830
     15 H                     0.092128
     16 H                     0.092524
     17 C                    -0.086306
     18 H                     0.122713
     19 H                     0.092749
     20 H                     0.089953
     21 C                    -0.255756
     22 S                    -0.071175
     23 C                     0.054401
     24 H                     0.206766
     25 C                    -0.070873
     26 S                     0.099047
     27 C                    -0.222601
     28 C                    -0.107540
     29 C                    -0.003322
     30 C                     0.374969
     31 C                    -0.131207
     32 S                     0.046432
     33 C                     0.458999
     34 O                    -0.446697
     35 O                    -0.297284
     36 F                    -0.214052
     37 C                    -0.054965
     38 H                     0.117061
     39 H                     0.085095
     40 H                     0.084960
     41 H                     0.215684
     42 H                     0.117354
     43 H                     0.114776
     44 H                     0.186008
  ----------------------------------------
  Sum of atomic charges =     0.000000

                    Cartesian Multipole Moments
 -----------------------------------------------------------------
    Charge (ESU x 10^10)
                -0.0000
    Dipole Moment (Debye)
         X       1.1889      Y       3.8820      Z       2.4139
       Tot       4.7234
    Quadrupole Moments (Debye-Ang)
        XX    -181.5556     XY       9.0237     YY    -176.1433
        XZ      -1.1657     YZ     -11.4578     ZZ    -204.9285

 Total job time:  328.46s(wall), 10592.27s(cpu)
        *  Thank you very much for using Q-Chem.  Have a nice day.  *
