 Q-Chem 5.4, Q-Chem, Inc., Pleasanton, CA (2021)
 Q-Chem 5.4.0 for Intel X86 EM64T Linux

User input:
--------------------------------------------------------------
$molecule
0 1
C	-0.268090	-8.519741	0.046574
C	0.733920	-7.635967	-0.326886
S	-1.722318	-7.651740	0.595708
C	0.371516	-6.261894	-0.193236
H	1.718130	-7.954738	-0.692700
C	-0.970283	-6.079985	0.294958
C	-1.498243	-4.798382	0.515487
C	1.219725	-5.153542	-0.477358
C	0.692914	-3.869626	-0.252655
C	-0.651289	-3.688927	0.233366
O	2.451623	-5.481075	-0.957369
O	-2.735264	-4.479871	0.998769
C	-3.828387	-5.356026	0.752029
H	-4.743213	-4.790496	1.012675
H	-3.788623	-6.268513	1.386303
H	-3.877260	-5.658187	-0.316492
C	3.521580	-4.546999	-0.881930
H	4.438260	-5.107564	-1.145969
H	3.631868	-4.131473	0.142712
H	3.399425	-3.712085	-1.605610
C	-1.009535	-2.314326	0.367928
S	1.450945	-2.295487	-0.542088
C	-0.000000	-1.435180	-0.000000
H	-1.993920	-1.993211	0.730999
C	0.000000	0.000000	0.000000
S	0.451648	0.777811	1.510732
C	1.238377	2.142617	0.727629
C	0.454085	0.786559	-1.064665
C	1.147169	1.990043	-0.678287
C	0.422325	0.728240	-2.486150
C	1.054629	1.823683	-3.106916
S	1.675491	2.905718	-1.965735
C	1.185914	2.041729	-4.559972
O	0.721749	1.231802	-5.350277
O	1.830313	3.151386	-5.004375
F	-0.131347	-0.238577	-3.246290
C	2.018453	3.456956	-6.334976
H	2.571455	4.413580	-6.370268
H	1.052178	3.565244	-6.875609
H	2.601950	2.669768	-6.861878
H	1.698444	2.939346	1.321510
H	0.049086	-9.146471	0.888291
H	-0.578334	-9.150570	-0.794665
H	0.377309	-1.444158	1.011908
$end

$rem
JOBTYPE		SP
EXCHANGE	HF
CORRELATION	pRIMP2
BASIS		cc-pvtz
METHOD		rimp2
AUX_BASIS	rimp2-cc-pvtz
SOLVENT_METHOD	PCM
PURECART	11111
SYMMETRY	false
MEM_TOTAL	110000
SCF_CONVERGENCE = 6
THRESH=10
GUI = 2
$end

$solvent
dielectric 4.90
$end
--------------------------------------------------------------

             Standard Nuclear Orientation (Angstroms)
    I     Atom           X                Y                Z
 ----------------------------------------------------------------
    1      C      -0.2680900000    -8.5197410000     0.0465740000
    2      C       0.7339200000    -7.6359670000    -0.3268860000
    3      S      -1.7223180000    -7.6517400000     0.5957080000
    4      C       0.3715160000    -6.2618940000    -0.1932360000
    5      H       1.7181300000    -7.9547380000    -0.6927000000
    6      C      -0.9702830000    -6.0799850000     0.2949580000
    7      C      -1.4982430000    -4.7983820000     0.5154870000
    8      C       1.2197250000    -5.1535420000    -0.4773580000
    9      C       0.6929140000    -3.8696260000    -0.2526550000
   10      C      -0.6512890000    -3.6889270000     0.2333660000
   11      O       2.4516230000    -5.4810750000    -0.9573690000
   12      O      -2.7352640000    -4.4798710000     0.9987690000
   13      C      -3.8283870000    -5.3560260000     0.7520290000
   14      H      -4.7432130000    -4.7904960000     1.0126750000
   15      H      -3.7886230000    -6.2685130000     1.3863030000
   16      H      -3.8772600000    -5.6581870000    -0.3164920000
   17      C       3.5215800000    -4.5469990000    -0.8819300000
   18      H       4.4382600000    -5.1075640000    -1.1459690000
   19      H       3.6318680000    -4.1314730000     0.1427120000
   20      H       3.3994250000    -3.7120850000    -1.6056100000
   21      C      -1.0095350000    -2.3143260000     0.3679280000
   22      S       1.4509450000    -2.2954870000    -0.5420880000
   23      C       0.0000000000    -1.4351800000     0.0000000000
   24      H      -1.9939200000    -1.9932110000     0.7309990000
   25      C       0.0000000000     0.0000000000     0.0000000000
   26      S       0.4516480000     0.7778110000     1.5107320000
   27      C       1.2383770000     2.1426170000     0.7276290000
   28      C       0.4540850000     0.7865590000    -1.0646650000
   29      C       1.1471690000     1.9900430000    -0.6782870000
   30      C       0.4223250000     0.7282400000    -2.4861500000
   31      C       1.0546290000     1.8236830000    -3.1069160000
   32      S       1.6754910000     2.9057180000    -1.9657350000
   33      C       1.1859140000     2.0417290000    -4.5599720000
   34      O       0.7217490000     1.2318020000    -5.3502770000
   35      O       1.8303130000     3.1513860000    -5.0043750000
   36      F      -0.1313470000    -0.2385770000    -3.2462900000
   37      C       2.0184530000     3.4569560000    -6.3349760000
   38      H       2.5714550000     4.4135800000    -6.3702680000
   39      H       1.0521780000     3.5652440000    -6.8756090000
   40      H       2.6019500000     2.6697680000    -6.8618780000
   41      H       1.6984440000     2.9393460000     1.3215100000
   42      H       0.0490860000    -9.1464710000     0.8882910000
   43      H      -0.5783340000    -9.1505700000    -0.7946650000
   44      H       0.3773090000    -1.4441580000     1.0119080000
 ----------------------------------------------------------------

   11   -2755.3083918763      7.74e-07  Convergence criterion met
 Total energy in the final basis set =    -2755.3083918763
        RIMP2         total energy =     -2760.4038386360 a.u.

                    Orbital Energies (a.u.)
 --------------------------------------------------------------

 Alpha MOs
 -- Occupied --
-92.0165 -91.9977 -91.9776 -91.9568 -26.3352 -20.6137 -20.5867 -20.5859
-20.5528 -11.4126 -11.3779 -11.3083 -11.3057 -11.3054 -11.3028 -11.3027
-11.2982 -11.2893 -11.2849 -11.2839 -11.2823 -11.2822 -11.2784 -11.2715
-11.2709 -11.2571 -11.2549 -11.2483 -11.2342  -9.0155  -9.0017  -8.9797
 -8.9594  -6.6962  -6.6955  -6.6950  -6.6829  -6.6823  -6.6809  -6.6608
 -6.6600  -6.6587  -6.6407  -6.6398  -6.6387  -1.6481  -1.4736  -1.4095
 -1.4083  -1.3692  -1.2410  -1.2084  -1.1746  -1.1450  -1.0980  -1.0517
 -1.0446  -1.0327  -1.0076  -0.9965  -0.9737  -0.9595  -0.9479  -0.9403
 -0.8925  -0.8727  -0.8626  -0.8096  -0.7935  -0.7844  -0.7757  -0.7751
 -0.7644  -0.7332  -0.7210  -0.7165  -0.6964  -0.6934  -0.6809  -0.6798
 -0.6737  -0.6649  -0.6556  -0.6479  -0.6343  -0.6282  -0.6188  -0.6143
 -0.6112  -0.6084  -0.5978  -0.5926  -0.5806  -0.5631  -0.5620  -0.5559
 -0.5468  -0.5348  -0.5286  -0.5214  -0.5121  -0.5068  -0.5042  -0.5007
 -0.4884  -0.4847  -0.4753  -0.4694  -0.4634  -0.4625  -0.4604  -0.4455
 -0.4229  -0.4029  -0.3847  -0.3695  -0.3508  -0.2943  -0.2882  -0.2184

          Ground-State Mulliken Net Atomic Charges

     Atom                 Charge (a.u.)
  ----------------------------------------
      1 C                    -0.069677
      2 C                    -0.267317
      3 S                    -0.138787
      4 C                    -0.042944
      5 H                     0.192419
      6 C                    -0.052589
      7 C                     0.222508
      8 C                     0.222800
      9 C                    -0.071949
     10 C                    -0.044038
     11 O                    -0.334964
     12 O                    -0.343478
     13 C                    -0.082497
     14 H                     0.119590
     15 H                     0.091868
     16 H                     0.093252
     17 C                    -0.087291
     18 H                     0.123319
     19 H                     0.091542
     20 H                     0.090567
     21 C                    -0.267527
     22 S                    -0.078977
     23 C                     0.041448
     24 H                     0.203865
     25 C                    -0.023329
     26 S                     0.100898
     27 C                    -0.216413
     28 C                    -0.145939
     29 C                     0.002328
     30 C                     0.391571
     31 C                    -0.146172
     32 S                     0.047405
     33 C                     0.459376
     34 O                    -0.445332
     35 O                    -0.297436
     36 F                    -0.210617
     37 C                    -0.054948
     38 H                     0.116912
     39 H                     0.085061
     40 H                     0.085133
     41 H                     0.217284
     42 H                     0.116111
     43 H                     0.114107
     44 H                     0.192859
  ----------------------------------------
  Sum of atomic charges =     0.000000

                    Cartesian Multipole Moments
 -----------------------------------------------------------------
    Charge (ESU x 10^10)
                 0.0000
    Dipole Moment (Debye)
         X       2.3697      Y       4.1507      Z       3.4771
       Tot       5.9105
    Quadrupole Moments (Debye-Ang)
        XX    -178.8455     XY       3.9344     YY    -181.8750
        XZ      -6.1815     YZ      -8.4108     ZZ    -204.8204

 Total job time:  323.95s(wall), 10481.95s(cpu)
        *  Thank you very much for using Q-Chem.  Have a nice day.  *
