 Q-Chem 5.4, Q-Chem, Inc., Pleasanton, CA (2021)
 Q-Chem 5.4.0 for Intel X86 EM64T Linux

User input:
--------------------------------------------------------------
$molecule
0 1
C	-0.235306	-8.519741	-0.136647
C	0.772334	-7.635967	0.221346
S	-1.702286	-7.651740	-0.650746
C	0.408807	-6.261894	0.090779
H	1.761423	-7.954738	0.573754
C	-0.932876	-6.079985	-0.397735
C	-1.479069	-4.798382	-0.568166
C	1.241204	-5.153542	0.418347
C	0.693206	-3.869626	0.251852
C	-0.648921	-3.688927	-0.239872
O	2.493437	-5.481075	0.842486
O	-2.737331	-4.479871	-0.993092
C	-3.416110	-5.356026	-1.884752
H	-4.284447	-4.790496	-2.273124
H	-3.793352	-6.268513	-1.373310
H	-2.766716	-5.658187	-2.734702
C	3.264581	-4.546999	1.588030
H	4.136519	-5.107564	1.974995
H	2.690439	-4.131473	2.443843
H	3.636177	-3.712085	0.955140
C	-1.009848	-2.314326	-0.367068
S	1.459936	-2.295487	0.517386
C	-0.000000	-1.435180	-0.000000
H	-1.997308	-1.993211	-0.721689
C	0.000000	0.000000	0.000000
S	0.451648	0.777811	1.510732
C	1.238377	2.142617	0.727629
C	0.454085	0.786559	-1.064665
C	1.147169	1.990043	-0.678287
C	0.422325	0.728240	-2.486150
C	1.054629	1.823683	-3.106916
S	1.675491	2.905718	-1.965735
C	1.185914	2.041729	-4.559972
O	0.721749	1.231802	-5.350277
O	1.830313	3.151386	-5.004375
F	-0.131347	-0.238577	-3.246290
C	2.018453	3.456956	-6.334976
H	2.571455	4.413580	-6.370268
H	1.052178	3.565244	-6.875609
H	2.601950	2.669768	-6.861878
H	1.698444	2.939346	1.321510
H	-0.533380	-9.146471	0.712022
H	0.067771	-9.150570	-0.980494
H	-0.361406	-1.444158	1.017696
$end

$rem
JOBTYPE		SP
EXCHANGE	HF
CORRELATION	pRIMP2
BASIS		cc-pvtz
METHOD		rimp2
AUX_BASIS	rimp2-cc-pvtz
SOLVENT_METHOD	PCM
PURECART	11111
SYMMETRY	false
MEM_TOTAL	110000
SCF_CONVERGENCE = 6
THRESH=10
GUI = 2
$end

$solvent
dielectric 4.90
$end
--------------------------------------------------------------

             Standard Nuclear Orientation (Angstroms)
    I     Atom           X                Y                Z
 ----------------------------------------------------------------
    1      C      -0.2353060000    -8.5197410000    -0.1366470000
    2      C       0.7723340000    -7.6359670000     0.2213460000
    3      S      -1.7022860000    -7.6517400000    -0.6507460000
    4      C       0.4088070000    -6.2618940000     0.0907790000
    5      H       1.7614230000    -7.9547380000     0.5737540000
    6      C      -0.9328760000    -6.0799850000    -0.3977350000
    7      C      -1.4790690000    -4.7983820000    -0.5681660000
    8      C       1.2412040000    -5.1535420000     0.4183470000
    9      C       0.6932060000    -3.8696260000     0.2518520000
   10      C      -0.6489210000    -3.6889270000    -0.2398720000
   11      O       2.4934370000    -5.4810750000     0.8424860000
   12      O      -2.7373310000    -4.4798710000    -0.9930920000
   13      C      -3.4161100000    -5.3560260000    -1.8847520000
   14      H      -4.2844470000    -4.7904960000    -2.2731240000
   15      H      -3.7933520000    -6.2685130000    -1.3733100000
   16      H      -2.7667160000    -5.6581870000    -2.7347020000
   17      C       3.2645810000    -4.5469990000     1.5880300000
   18      H       4.1365190000    -5.1075640000     1.9749950000
   19      H       2.6904390000    -4.1314730000     2.4438430000
   20      H       3.6361770000    -3.7120850000     0.9551400000
   21      C      -1.0098480000    -2.3143260000    -0.3670680000
   22      S       1.4599360000    -2.2954870000     0.5173860000
   23      C       0.0000000000    -1.4351800000     0.0000000000
   24      H      -1.9973080000    -1.9932110000    -0.7216890000
   25      C       0.0000000000     0.0000000000     0.0000000000
   26      S       0.4516480000     0.7778110000     1.5107320000
   27      C       1.2383770000     2.1426170000     0.7276290000
   28      C       0.4540850000     0.7865590000    -1.0646650000
   29      C       1.1471690000     1.9900430000    -0.6782870000
   30      C       0.4223250000     0.7282400000    -2.4861500000
   31      C       1.0546290000     1.8236830000    -3.1069160000
   32      S       1.6754910000     2.9057180000    -1.9657350000
   33      C       1.1859140000     2.0417290000    -4.5599720000
   34      O       0.7217490000     1.2318020000    -5.3502770000
   35      O       1.8303130000     3.1513860000    -5.0043750000
   36      F      -0.1313470000    -0.2385770000    -3.2462900000
   37      C       2.0184530000     3.4569560000    -6.3349760000
   38      H       2.5714550000     4.4135800000    -6.3702680000
   39      H       1.0521780000     3.5652440000    -6.8756090000
   40      H       2.6019500000     2.6697680000    -6.8618780000
   41      H       1.6984440000     2.9393460000     1.3215100000
   42      H      -0.5333800000    -9.1464710000     0.7120220000
   43      H       0.0677710000    -9.1505700000    -0.9804940000
   44      H      -0.3614060000    -1.4441580000     1.0176960000
 ----------------------------------------------------------------

   11   -2755.3106682804      7.15e-07  Convergence criterion met
 Total energy in the final basis set =    -2755.3106682804
        RIMP2         total energy =     -2760.4067180780 a.u.

                    Orbital Energies (a.u.)
 --------------------------------------------------------------

 Alpha MOs
 -- Occupied --
-92.0188 -91.9982 -91.9762 -91.9567 -26.3356 -20.6137 -20.5862 -20.5859
-20.5528 -11.4127 -11.3773 -11.3081 -11.3053 -11.3046 -11.3027 -11.3017
-11.2983 -11.2893 -11.2841 -11.2836 -11.2819 -11.2818 -11.2783 -11.2713
-11.2709 -11.2570 -11.2549 -11.2483 -11.2342  -9.0174  -9.0021  -8.9786
 -8.9594  -6.6980  -6.6974  -6.6970  -6.6834  -6.6827  -6.6814  -6.6596
 -6.6587  -6.6574  -6.6406  -6.6397  -6.6386  -1.6484  -1.4736  -1.4093
 -1.4079  -1.3692  -1.2399  -1.2079  -1.1742  -1.1448  -1.0979  -1.0512
 -1.0446  -1.0320  -1.0077  -0.9963  -0.9736  -0.9594  -0.9477  -0.9398
 -0.8925  -0.8728  -0.8628  -0.8076  -0.7950  -0.7840  -0.7776  -0.7738
 -0.7641  -0.7328  -0.7213  -0.7169  -0.6965  -0.6932  -0.6806  -0.6799
 -0.6739  -0.6637  -0.6554  -0.6477  -0.6314  -0.6299  -0.6187  -0.6138
 -0.6113  -0.6084  -0.5978  -0.5924  -0.5785  -0.5644  -0.5583  -0.5539
 -0.5453  -0.5364  -0.5290  -0.5225  -0.5125  -0.5067  -0.5044  -0.5000
 -0.4881  -0.4855  -0.4746  -0.4721  -0.4637  -0.4625  -0.4595  -0.4450
 -0.4229  -0.4016  -0.3841  -0.3689  -0.3505  -0.2945  -0.2878  -0.2190

          Ground-State Mulliken Net Atomic Charges

     Atom                 Charge (a.u.)
  ----------------------------------------
      1 C                    -0.069805
      2 C                    -0.267290
      3 S                    -0.138123
      4 C                    -0.041930
      5 H                     0.192320
      6 C                    -0.053403
      7 C                     0.223027
      8 C                     0.222245
      9 C                    -0.075749
     10 C                    -0.049156
     11 O                    -0.335237
     12 O                    -0.343341
     13 C                    -0.082260
     14 H                     0.119870
     15 H                     0.091415
     16 H                     0.093294
     17 C                    -0.086804
     18 H                     0.123092
     19 H                     0.091327
     20 H                     0.090075
     21 C                    -0.255350
     22 S                    -0.070131
     23 C                     0.020118
     24 H                     0.205108
     25 C                    -0.062970
     26 S                     0.105542
     27 C                    -0.212368
     28 C                    -0.069107
     29 C                    -0.002692
     30 C                     0.359016
     31 C                    -0.141230
     32 S                     0.049751
     33 C                     0.457619
     34 O                    -0.445610
     35 O                    -0.297411
     36 F                    -0.210788
     37 C                    -0.054949
     38 H                     0.116963
     39 H                     0.084935
     40 H                     0.085179
     41 H                     0.218074
     42 H                     0.116135
     43 H                     0.114057
     44 H                     0.186541
  ----------------------------------------
  Sum of atomic charges =     0.000000

                    Cartesian Multipole Moments
 -----------------------------------------------------------------
    Charge (ESU x 10^10)
                -0.0000
    Dipole Moment (Debye)
         X       2.0373      Y       4.2954      Z       3.5853
       Tot       5.9545
    Quadrupole Moments (Debye-Ang)
        XX    -186.0878     XY       4.2139     YY    -181.6556
        XZ       3.2451     YZ     -10.8205     ZZ    -197.5669

 Total job time:  326.22s(wall), 10484.78s(cpu)
        *  Thank you very much for using Q-Chem.  Have a nice day.  *
