 Q-Chem 5.4, Q-Chem, Inc., Pleasanton, CA (2021)
 Q-Chem 5.4.0 for Intel X86 EM64T Linux

User input:
--------------------------------------------------------------
$molecule
0 1
C	-0.174379	-8.519741	-0.208886
C	0.650052	-7.635967	0.472151
S	-1.377058	-7.651740	-1.193717
C	0.353105	-6.261894	0.225125
H	1.458961	-7.954738	1.141594
C	-0.740583	-6.079985	-0.692811
C	-1.195546	-4.798382	-1.039773
C	1.023267	-5.153542	0.817634
C	0.565262	-3.869626	0.473754
C	-0.527745	-3.688927	-0.447350
O	2.054917	-5.481075	1.644483
O	-2.232592	-4.479871	-1.869424
C	-2.565470	-5.356026	-2.939466
H	-3.248608	-4.790496	-3.601405
H	-3.094885	-6.268513	-2.587892
H	-1.664539	-5.658187	-3.516052
C	2.524564	-4.546999	2.608813
H	3.211568	-5.107564	3.270661
H	1.692342	-4.131473	3.216646
H	3.090211	-3.712085	2.141184
C	-0.823402	-2.314326	-0.690319
S	1.194935	-2.295487	0.985511
C	-0.000000	-1.435180	-0.000000
H	-1.630024	-1.993211	-1.361286
C	0.000000	0.000000	0.000000
S	0.158383	0.885376	1.510732
C	0.430876	2.436951	0.727629
C	0.157682	0.894430	-1.064665
C	0.397351	2.262384	-0.678287
C	0.147783	0.828765	-2.486150
C	0.367291	2.074406	-3.106916
S	0.580633	3.303533	-1.965735
C	0.416083	2.324204	-4.559972
O	0.256921	1.404367	-5.350277
O	0.642094	3.587338	-5.004375
F	-0.041828	-0.269113	-3.246290
C	0.714377	3.938827	-6.334976
H	0.906844	5.026898	-6.370268
H	-0.230661	3.710099	-6.875609
H	1.531918	3.398681	-6.861878
H	0.590699	3.342984	1.321510
H	-0.744739	-9.146471	0.486655
H	0.399033	-9.150570	-0.898184
H	-0.687683	-1.444158	0.832713
$end

$rem
JOBTYPE		SP
EXCHANGE	HF
CORRELATION	pRIMP2
BASIS		cc-pvtz
METHOD		rimp2
AUX_BASIS	rimp2-cc-pvtz
SOLVENT_METHOD	PCM
PURECART	11111
SYMMETRY	false
MEM_TOTAL	110000
SCF_CONVERGENCE = 6
THRESH=10
GUI = 2
$end

$solvent
dielectric 4.90
$end
--------------------------------------------------------------

             Standard Nuclear Orientation (Angstroms)
    I     Atom           X                Y                Z
 ----------------------------------------------------------------
    1      C      -0.1743790000    -8.5197410000    -0.2088860000
    2      C       0.6500520000    -7.6359670000     0.4721510000
    3      S      -1.3770580000    -7.6517400000    -1.1937170000
    4      C       0.3531050000    -6.2618940000     0.2251250000
    5      H       1.4589610000    -7.9547380000     1.1415940000
    6      C      -0.7405830000    -6.0799850000    -0.6928110000
    7      C      -1.1955460000    -4.7983820000    -1.0397730000
    8      C       1.0232670000    -5.1535420000     0.8176340000
    9      C       0.5652620000    -3.8696260000     0.4737540000
   10      C      -0.5277450000    -3.6889270000    -0.4473500000
   11      O       2.0549170000    -5.4810750000     1.6444830000
   12      O      -2.2325920000    -4.4798710000    -1.8694240000
   13      C      -2.5654700000    -5.3560260000    -2.9394660000
   14      H      -3.2486080000    -4.7904960000    -3.6014050000
   15      H      -3.0948850000    -6.2685130000    -2.5878920000
   16      H      -1.6645390000    -5.6581870000    -3.5160520000
   17      C       2.5245640000    -4.5469990000     2.6088130000
   18      H       3.2115680000    -5.1075640000     3.2706610000
   19      H       1.6923420000    -4.1314730000     3.2166460000
   20      H       3.0902110000    -3.7120850000     2.1411840000
   21      C      -0.8234020000    -2.3143260000    -0.6903190000
   22      S       1.1949350000    -2.2954870000     0.9855110000
   23      C       0.0000000000    -1.4351800000     0.0000000000
   24      H      -1.6300240000    -1.9932110000    -1.3612860000
   25      C       0.0000000000     0.0000000000     0.0000000000
   26      S       0.1583830000     0.8853760000     1.5107320000
   27      C       0.4308760000     2.4369510000     0.7276290000
   28      C       0.1576820000     0.8944300000    -1.0646650000
   29      C       0.3973510000     2.2623840000    -0.6782870000
   30      C       0.1477830000     0.8287650000    -2.4861500000
   31      C       0.3672910000     2.0744060000    -3.1069160000
   32      S       0.5806330000     3.3035330000    -1.9657350000
   33      C       0.4160830000     2.3242040000    -4.5599720000
   34      O       0.2569210000     1.4043670000    -5.3502770000
   35      O       0.6420940000     3.5873380000    -5.0043750000
   36      F      -0.0418280000    -0.2691130000    -3.2462900000
   37      C       0.7143770000     3.9388270000    -6.3349760000
   38      H       0.9068440000     5.0268980000    -6.3702680000
   39      H      -0.2306610000     3.7100990000    -6.8756090000
   40      H       1.5319180000     3.3986810000    -6.8618780000
   41      H       0.5906990000     3.3429840000     1.3215100000
   42      H      -0.7447390000    -9.1464710000     0.4866550000
   43      H       0.3990330000    -9.1505700000    -0.8981840000
   44      H      -0.6876830000    -1.4441580000     0.8327130000
 ----------------------------------------------------------------

   11   -2755.3251273100      7.84e-07  Convergence criterion met
 Total energy in the final basis set =    -2755.3251273100
        RIMP2         total energy =     -2760.4155768883 a.u.

                    Orbital Energies (a.u.)
 --------------------------------------------------------------

 Alpha MOs
 -- Occupied --
-92.0172 -91.9944 -91.9803 -91.9582 -26.3364 -20.6124 -20.5875 -20.5868
-20.5502 -11.4105 -11.3785 -11.3162 -11.3091 -11.3081 -11.2974 -11.2972
-11.2933 -11.2887 -11.2851 -11.2839 -11.2826 -11.2821 -11.2802 -11.2730
-11.2730 -11.2584 -11.2584 -11.2496 -11.2371  -9.0158  -8.9986  -8.9825
 -8.9608  -6.6965  -6.6960  -6.6955  -6.6798  -6.6792  -6.6778  -6.6636
 -6.6627  -6.6614  -6.6420  -6.6411  -6.6400  -1.6492  -1.4721  -1.4108
 -1.4087  -1.3674  -1.2381  -1.2099  -1.1757  -1.1440  -1.0996  -1.0500
 -1.0465  -1.0304  -1.0091  -0.9985  -0.9724  -0.9598  -0.9488  -0.9404
 -0.8941  -0.8715  -0.8646  -0.8077  -0.7957  -0.7858  -0.7777  -0.7719
 -0.7652  -0.7328  -0.7219  -0.7172  -0.6976  -0.6924  -0.6824  -0.6788
 -0.6724  -0.6656  -0.6567  -0.6485  -0.6357  -0.6303  -0.6200  -0.6146
 -0.6108  -0.6066  -0.5952  -0.5928  -0.5802  -0.5675  -0.5589  -0.5519
 -0.5493  -0.5365  -0.5306  -0.5228  -0.5139  -0.5078  -0.5045  -0.5007
 -0.4867  -0.4850  -0.4788  -0.4724  -0.4622  -0.4615  -0.4601  -0.4461
 -0.4272  -0.4010  -0.3859  -0.3707  -0.3515  -0.2933  -0.2867  -0.2193

          Ground-State Mulliken Net Atomic Charges

     Atom                 Charge (a.u.)
  ----------------------------------------
      1 C                    -0.070161
      2 C                    -0.259564
      3 S                    -0.134935
      4 C                    -0.044230
      5 H                     0.193450
      6 C                    -0.051646
      7 C                     0.225292
      8 C                     0.225284
      9 C                    -0.076960
     10 C                    -0.054905
     11 O                    -0.334432
     12 O                    -0.343433
     13 C                    -0.082353
     14 H                     0.120527
     15 H                     0.091467
     16 H                     0.093344
     17 C                    -0.087338
     18 H                     0.123647
     19 H                     0.092151
     20 H                     0.090109
     21 C                    -0.254380
     22 S                    -0.071871
     23 C                     0.083460
     24 H                     0.206309
     25 C                    -0.114893
     26 S                     0.091994
     27 C                    -0.237764
     28 C                    -0.048174
     29 C                    -0.010083
     30 C                     0.383693
     31 C                    -0.149565
     32 S                     0.034986
     33 C                     0.459790
     34 O                    -0.450554
     35 O                    -0.297807
     36 F                    -0.212724
     37 C                    -0.055043
     38 H                     0.116637
     39 H                     0.084475
     40 H                     0.084650
     41 H                     0.215940
     42 H                     0.117278
     43 H                     0.115261
     44 H                     0.193072
  ----------------------------------------
  Sum of atomic charges =     0.000000

                    Cartesian Multipole Moments
 -----------------------------------------------------------------
    Charge (ESU x 10^10)
                 0.0000
    Dipole Moment (Debye)
         X       0.3172      Y       3.2473      Z       3.8039
       Tot       5.0115
    Quadrupole Moments (Debye-Ang)
        XX    -196.0446     XY      -0.2762     YY    -174.4882
        XZ       6.3993     YZ     -12.8568     ZZ    -192.7987

 Total job time:  342.44s(wall), 10401.15s(cpu)
        *  Thank you very much for using Q-Chem.  Have a nice day.  *
