 Q-Chem 5.4, Q-Chem, Inc., Pleasanton, CA (2021)
 Q-Chem 5.4.0 for Intel X86 EM64T Linux

User input:
--------------------------------------------------------------
$molecule
0 1
C	1.432238	-8.398629	0.267851
C	1.270668	-7.529711	-0.801461
S	1.299871	-7.540578	1.822194
C	1.033679	-6.176229	-0.415201
H	1.318997	-7.844878	-1.851431
C	1.001923	-5.997113	1.012650
C	0.805626	-4.730351	1.584194
C	0.863981	-5.080701	-1.309433
C	0.671533	-3.810912	-0.737539
C	0.637166	-3.633485	0.691828
O	0.891580	-5.408420	-2.631211
O	0.780896	-4.411287	2.911907
C	0.336511	-5.379315	3.854716
H	0.171379	-4.834178	4.803517
H	1.095324	-6.172080	4.034285
H	-0.616308	-5.854145	3.535185
C	1.159578	-4.412679	-3.610841
H	1.321333	-4.953370	-4.562544
H	2.072791	-3.829719	-3.364029
H	0.303747	-3.715791	-3.743566
C	0.402329	-2.279087	1.074491
S	0.385663	-2.262896	-1.548848
C	0.249216	-1.413377	0.000000
H	0.350996	-1.962069	2.123688
C	0.000000	0.000000	0.000000
S	0.309721	0.844422	1.510732
C	0.847502	2.325108	0.727629
C	0.310602	0.853460	-1.064665
C	0.784173	2.159014	-0.678287
C	0.289451	0.790512	-2.486150
C	0.721927	1.979112	-3.106916
S	1.145464	3.152519	-1.965735
C	0.813355	2.216642	-4.559972
O	0.496884	1.338418	-5.350277
O	1.255274	3.421340	-5.004375
F	-0.087923	-0.257761	-3.246290
C	1.387494	3.754937	-6.334976
H	1.765978	4.793056	-6.370268
H	0.417095	3.693789	-6.875609
H	2.098820	3.081033	-6.861878
H	1.162229	3.189623	1.321510
H	2.426840	-8.859653	0.257688
H	0.658787	-9.175570	0.271664
H	1.314298	-1.234691	-0.008462
$end

$rem
JOBTYPE		SP
EXCHANGE	HF
CORRELATION	pRIMP2
BASIS		cc-pvtz
METHOD		rimp2
AUX_BASIS	rimp2-cc-pvtz
SOLVENT_METHOD	PCM
PURECART	11111
SYMMETRY	false
MEM_TOTAL	110000
SCF_CONVERGENCE = 6
THRESH=10
GUI = 2
$end

$solvent
dielectric 4.90
$end
--------------------------------------------------------------

             Standard Nuclear Orientation (Angstroms)
    I     Atom           X                Y                Z
 ----------------------------------------------------------------
    1      C       1.4322380000    -8.3986290000     0.2678510000
    2      C       1.2706680000    -7.5297110000    -0.8014610000
    3      S       1.2998710000    -7.5405780000     1.8221940000
    4      C       1.0336790000    -6.1762290000    -0.4152010000
    5      H       1.3189970000    -7.8448780000    -1.8514310000
    6      C       1.0019230000    -5.9971130000     1.0126500000
    7      C       0.8056260000    -4.7303510000     1.5841940000
    8      C       0.8639810000    -5.0807010000    -1.3094330000
    9      C       0.6715330000    -3.8109120000    -0.7375390000
   10      C       0.6371660000    -3.6334850000     0.6918280000
   11      O       0.8915800000    -5.4084200000    -2.6312110000
   12      O       0.7808960000    -4.4112870000     2.9119070000
   13      C       0.3365110000    -5.3793150000     3.8547160000
   14      H       0.1713790000    -4.8341780000     4.8035170000
   15      H       1.0953240000    -6.1720800000     4.0342850000
   16      H      -0.6163080000    -5.8541450000     3.5351850000
   17      C       1.1595780000    -4.4126790000    -3.6108410000
   18      H       1.3213330000    -4.9533700000    -4.5625440000
   19      H       2.0727910000    -3.8297190000    -3.3640290000
   20      H       0.3037470000    -3.7157910000    -3.7435660000
   21      C       0.4023290000    -2.2790870000     1.0744910000
   22      S       0.3856630000    -2.2628960000    -1.5488480000
   23      C       0.2492160000    -1.4133770000     0.0000000000
   24      H       0.3509960000    -1.9620690000     2.1236880000
   25      C       0.0000000000     0.0000000000     0.0000000000
   26      S       0.3097210000     0.8444220000     1.5107320000
   27      C       0.8475020000     2.3251080000     0.7276290000
   28      C       0.3106020000     0.8534600000    -1.0646650000
   29      C       0.7841730000     2.1590140000    -0.6782870000
   30      C       0.2894510000     0.7905120000    -2.4861500000
   31      C       0.7219270000     1.9791120000    -3.1069160000
   32      S       1.1454640000     3.1525190000    -1.9657350000
   33      C       0.8133550000     2.2166420000    -4.5599720000
   34      O       0.4968840000     1.3384180000    -5.3502770000
   35      O       1.2552740000     3.4213400000    -5.0043750000
   36      F      -0.0879230000    -0.2577610000    -3.2462900000
   37      C       1.3874940000     3.7549370000    -6.3349760000
   38      H       1.7659780000     4.7930560000    -6.3702680000
   39      H       0.4170950000     3.6937890000    -6.8756090000
   40      H       2.0988200000     3.0810330000    -6.8618780000
   41      H       1.1622290000     3.1896230000     1.3215100000
   42      H       2.4268400000    -8.8596530000     0.2576880000
   43      H       0.6587870000    -9.1755700000     0.2716640000
   44      H       1.3142980000    -1.2346910000    -0.0084620000
 ----------------------------------------------------------------

   11   -2755.3075880343      6.02e-07  Convergence criterion met
 Total energy in the final basis set =    -2755.3075880343
        RIMP2         total energy =     -2760.4050724168 a.u.

                    Orbital Energies (a.u.)
 --------------------------------------------------------------

 Alpha MOs
 -- Occupied --
-92.0120 -91.9926 -91.9750 -91.9611 -26.3353 -20.6108 -20.5886 -20.5881
-20.5475 -11.4082 -11.3790 -11.3217 -11.3114 -11.3097 -11.2971 -11.2925
-11.2880 -11.2864 -11.2863 -11.2840 -11.2837 -11.2815 -11.2769 -11.2764
-11.2693 -11.2628 -11.2603 -11.2527 -11.2441  -9.0109  -8.9967  -8.9778
 -8.9636  -6.6918  -6.6911  -6.6906  -6.6780  -6.6773  -6.6760  -6.6587
 -6.6579  -6.6564  -6.6448  -6.6439  -6.6429  -1.6510  -1.4704  -1.4119
 -1.4100  -1.3654  -1.2404  -1.2092  -1.1787  -1.1440  -1.0999  -1.0515
 -1.0471  -1.0299  -1.0076  -1.0001  -0.9717  -0.9598  -0.9500  -0.9405
 -0.8950  -0.8719  -0.8623  -0.8132  -0.7960  -0.7861  -0.7763  -0.7658
 -0.7621  -0.7338  -0.7217  -0.7175  -0.6984  -0.6959  -0.6847  -0.6776
 -0.6739  -0.6723  -0.6566  -0.6494  -0.6370  -0.6294  -0.6228  -0.6159
 -0.6111  -0.6048  -0.5976  -0.5925  -0.5761  -0.5679  -0.5639  -0.5595
 -0.5488  -0.5331  -0.5292  -0.5209  -0.5137  -0.5088  -0.5045  -0.4999
 -0.4838  -0.4833  -0.4792  -0.4647  -0.4604  -0.4594  -0.4589  -0.4485
 -0.4312  -0.4004  -0.3839  -0.3730  -0.3511  -0.2941  -0.2835  -0.2184

          Ground-State Mulliken Net Atomic Charges

     Atom                 Charge (a.u.)
  ----------------------------------------
      1 C                    -0.071493
      2 C                    -0.238217
      3 S                    -0.129392
      4 C                    -0.052055
      5 H                     0.196431
      6 C                    -0.045663
      7 C                     0.216109
      8 C                     0.235322
      9 C                    -0.078440
     10 C                    -0.021608
     11 O                    -0.334219
     12 O                    -0.343934
     13 C                    -0.082735
     14 H                     0.120195
     15 H                     0.091877
     16 H                     0.093075
     17 C                    -0.088810
     18 H                     0.124499
     19 H                     0.092887
     20 H                     0.093182
     21 C                    -0.331087
     22 S                    -0.091982
     23 C                     0.101236
     24 H                     0.198315
     25 C                     0.040176
     26 S                     0.078893
     27 C                    -0.260143
     28 C                    -0.146335
     29 C                    -0.016599
     30 C                     0.361622
     31 C                    -0.141501
     32 S                     0.037572
     33 C                     0.457564
     34 O                    -0.455207
     35 O                    -0.298832
     36 F                    -0.207749
     37 C                    -0.054867
     38 H                     0.116356
     39 H                     0.084186
     40 H                     0.083771
     41 H                     0.214554
     42 H                     0.120390
     43 H                     0.118116
     44 H                     0.214539
  ----------------------------------------
  Sum of atomic charges =     0.000000

                    Cartesian Multipole Moments
 -----------------------------------------------------------------
    Charge (ESU x 10^10)
                 0.0000
    Dipole Moment (Debye)
         X       1.8660      Y       1.2466      Z       2.9179
       Tot       3.6810
    Quadrupole Moments (Debye-Ang)
        XX    -197.3781     XY       1.1922     YY    -166.9674
        XZ      -9.9404     YZ      -5.6380     ZZ    -190.6118

 Total job time:  327.79s(wall), 10633.96s(cpu)
        *  Thank you very much for using Q-Chem.  Have a nice day.  *
