 Q-Chem 5.4, Q-Chem, Inc., Pleasanton, CA (2021)
 Q-Chem 5.4.0 for Intel X86 EM64T Linux

User input:
--------------------------------------------------------------
$molecule
0 1
C	-0.000687	-8.519741	0.272104
C	-0.194476	-7.635967	-0.779533
S	0.287581	-7.651740	1.799596
C	-0.125787	-6.261894	-0.399427
H	-0.383826	-7.954738	-1.812314
C	0.121989	-6.079985	1.006762
C	0.247488	-4.798382	1.564994
C	-0.258303	-5.153542	-1.284087
C	-0.128493	-3.869626	-0.726260
C	0.116725	-3.688927	0.681918
O	-0.517104	-5.481075	-2.580622
O	0.508622	-4.479871	2.867144
C	0.075811	-5.356026	3.900814
H	0.173640	-4.790496	4.847002
H	0.707354	-6.268513	3.971794
H	-0.984963	-5.658187	3.763397
C	-0.257016	-4.546999	-3.621225
H	-0.357864	-5.107564	-4.569828
H	0.771211	-4.131473	-3.551910
H	-0.990913	-3.712085	-3.626592
C	0.187034	-2.314326	1.058088
S	-0.281899	-2.295487	-1.523035
C	0.000000	-1.435180	0.000000
H	0.373653	-1.993211	2.090565
C	0.000000	0.000000	0.000000
S	0.002233	0.899428	1.510732
C	0.001157	2.474749	0.727629
C	-0.000030	0.908223	-1.064665
C	-0.001545	2.297013	-0.678287
C	0.001624	0.841837	-2.486150
C	0.001494	2.106670	-3.106916
S	-0.001841	3.354171	-1.965735
C	0.006168	2.361146	-4.559972
O	0.009152	1.427646	-5.350277
O	0.009405	3.644337	-5.004375
F	0.005539	-0.272288	-3.246290
C	0.019554	4.003038	-6.334976
H	0.020155	5.108000	-6.370268
H	-0.871409	3.613681	-6.875609
H	0.918470	3.613062	-6.861878
H	0.001222	3.394771	1.321510
H	0.883319	-9.146471	0.105910
H	-0.883019	-9.150570	0.431555
H	1.062054	-1.444158	-0.195861
$end

$rem
JOBTYPE		SP
EXCHANGE	HF
CORRELATION	pRIMP2
BASIS		cc-pvtz
METHOD		rimp2
AUX_BASIS	rimp2-cc-pvtz
SOLVENT_METHOD	PCM
PURECART	11111
SYMMETRY	false
MEM_TOTAL	110000
SCF_CONVERGENCE = 6
THRESH=10
GUI = 2
$end

$solvent
dielectric 4.90
$end
--------------------------------------------------------------

             Standard Nuclear Orientation (Angstroms)
    I     Atom           X                Y                Z
 ----------------------------------------------------------------
    1      C      -0.0006870000    -8.5197410000     0.2721040000
    2      C      -0.1944760000    -7.6359670000    -0.7795330000
    3      S       0.2875810000    -7.6517400000     1.7995960000
    4      C      -0.1257870000    -6.2618940000    -0.3994270000
    5      H      -0.3838260000    -7.9547380000    -1.8123140000
    6      C       0.1219890000    -6.0799850000     1.0067620000
    7      C       0.2474880000    -4.7983820000     1.5649940000
    8      C      -0.2583030000    -5.1535420000    -1.2840870000
    9      C      -0.1284930000    -3.8696260000    -0.7262600000
   10      C       0.1167250000    -3.6889270000     0.6819180000
   11      O      -0.5171040000    -5.4810750000    -2.5806220000
   12      O       0.5086220000    -4.4798710000     2.8671440000
   13      C       0.0758110000    -5.3560260000     3.9008140000
   14      H       0.1736400000    -4.7904960000     4.8470020000
   15      H       0.7073540000    -6.2685130000     3.9717940000
   16      H      -0.9849630000    -5.6581870000     3.7633970000
   17      C      -0.2570160000    -4.5469990000    -3.6212250000
   18      H      -0.3578640000    -5.1075640000    -4.5698280000
   19      H       0.7712110000    -4.1314730000    -3.5519100000
   20      H      -0.9909130000    -3.7120850000    -3.6265920000
   21      C       0.1870340000    -2.3143260000     1.0580880000
   22      S      -0.2818990000    -2.2954870000    -1.5230350000
   23      C       0.0000000000    -1.4351800000     0.0000000000
   24      H       0.3736530000    -1.9932110000     2.0905650000
   25      C       0.0000000000     0.0000000000     0.0000000000
   26      S       0.0022330000     0.8994280000     1.5107320000
   27      C       0.0011570000     2.4747490000     0.7276290000
   28      C      -0.0000300000     0.9082230000    -1.0646650000
   29      C      -0.0015450000     2.2970130000    -0.6782870000
   30      C       0.0016240000     0.8418370000    -2.4861500000
   31      C       0.0014940000     2.1066700000    -3.1069160000
   32      S      -0.0018410000     3.3541710000    -1.9657350000
   33      C       0.0061680000     2.3611460000    -4.5599720000
   34      O       0.0091520000     1.4276460000    -5.3502770000
   35      O       0.0094050000     3.6443370000    -5.0043750000
   36      F       0.0055390000    -0.2722880000    -3.2462900000
   37      C       0.0195540000     4.0030380000    -6.3349760000
   38      H       0.0201550000     5.1080000000    -6.3702680000
   39      H      -0.8714090000     3.6136810000    -6.8756090000
   40      H       0.9184700000     3.6130620000    -6.8618780000
   41      H       0.0012220000     3.3947710000     1.3215100000
   42      H       0.8833190000    -9.1464710000     0.1059100000
   43      H      -0.8830190000    -9.1505700000     0.4315550000
   44      H       1.0620540000    -1.4441580000    -0.1958610000
 ----------------------------------------------------------------

   11   -2755.3219484531      6.98e-07  Convergence criterion met
 Total energy in the final basis set =    -2755.3219484531
        RIMP2         total energy =     -2760.4134352737 a.u.

                    Orbital Energies (a.u.)
 --------------------------------------------------------------

 Alpha MOs
 -- Occupied --
-92.0137 -91.9914 -91.9765 -91.9610 -26.3354 -20.6104 -20.5884 -20.5883
-20.5467 -11.4076 -11.3792 -11.3274 -11.3110 -11.3100 -11.2964 -11.2907
-11.2878 -11.2871 -11.2841 -11.2838 -11.2824 -11.2809 -11.2770 -11.2756
-11.2719 -11.2635 -11.2603 -11.2525 -11.2434  -9.0122  -8.9956  -8.9792
 -8.9636  -6.6931  -6.6924  -6.6919  -6.6769  -6.6762  -6.6748  -6.6601
 -6.6593  -6.6578  -6.6448  -6.6439  -6.6429  -1.6512  -1.4699  -1.4118
 -1.4102  -1.3648  -1.2375  -1.2102  -1.1783  -1.1428  -1.1011  -1.0505
 -1.0472  -1.0289  -1.0088  -1.0006  -0.9711  -0.9602  -0.9497  -0.9402
 -0.8953  -0.8726  -0.8635  -0.8132  -0.7955  -0.7863  -0.7768  -0.7665
 -0.7620  -0.7342  -0.7203  -0.7184  -0.6983  -0.6950  -0.6846  -0.6773
 -0.6736  -0.6718  -0.6568  -0.6495  -0.6380  -0.6303  -0.6226  -0.6159
 -0.6109  -0.6042  -0.5970  -0.5909  -0.5779  -0.5677  -0.5642  -0.5593
 -0.5493  -0.5330  -0.5288  -0.5210  -0.5138  -0.5090  -0.5048  -0.4994
 -0.4841  -0.4813  -0.4812  -0.4678  -0.4602  -0.4602  -0.4582  -0.4481
 -0.4320  -0.3997  -0.3856  -0.3726  -0.3507  -0.2932  -0.2833  -0.2192

          Ground-State Mulliken Net Atomic Charges

     Atom                 Charge (a.u.)
  ----------------------------------------
      1 C                    -0.071141
      2 C                    -0.240058
      3 S                    -0.129459
      4 C                    -0.051354
      5 H                     0.196206
      6 C                    -0.046806
      7 C                     0.221329
      8 C                     0.233882
      9 C                    -0.078427
     10 C                    -0.023691
     11 O                    -0.334228
     12 O                    -0.344092
     13 C                    -0.082758
     14 H                     0.120215
     15 H                     0.092144
     16 H                     0.093085
     17 C                    -0.088706
     18 H                     0.124712
     19 H                     0.093686
     20 H                     0.091618
     21 C                    -0.328789
     22 S                    -0.089083
     23 C                     0.155396
     24 H                     0.195198
     25 C                    -0.047421
     26 S                     0.080230
     27 C                    -0.274114
     28 C                    -0.118308
     29 C                    -0.012282
     30 C                     0.398104
     31 C                    -0.151880
     32 S                     0.026165
     33 C                     0.463232
     34 O                    -0.457242
     35 O                    -0.298740
     36 F                    -0.210414
     37 C                    -0.055238
     38 H                     0.116330
     39 H                     0.084014
     40 H                     0.083777
     41 H                     0.213574
     42 H                     0.120129
     43 H                     0.117812
     44 H                     0.213392
  ----------------------------------------
  Sum of atomic charges =     0.000000

                    Cartesian Multipole Moments
 -----------------------------------------------------------------
    Charge (ESU x 10^10)
                -0.0000
    Dipole Moment (Debye)
         X       0.6355      Y       1.0749      Z       2.8588
       Tot       3.1196
    Quadrupole Moments (Debye-Ang)
        XX    -201.2111     XY       0.8215     YY    -166.1145
        XZ      -2.7677     YZ      -5.1643     ZZ    -189.4410

 Total job time:  339.89s(wall), 10949.14s(cpu)
        *  Thank you very much for using Q-Chem.  Have a nice day.  *
