 Q-Chem 5.4, Q-Chem, Inc., Pleasanton, CA (2021)
 Q-Chem 5.4.0 for Intel X86 EM64T Linux

User input:
--------------------------------------------------------------
$molecule
0 1
C	0.000687	-8.519741	-0.272104
C	0.194476	-7.635967	0.779533
S	-0.287581	-7.651740	-1.799596
C	0.125787	-6.261894	0.399427
H	0.383826	-7.954738	1.812314
C	-0.121989	-6.079985	-1.006762
C	-0.247488	-4.798382	-1.564994
C	0.258303	-5.153542	1.284087
C	0.128493	-3.869626	0.726260
C	-0.116725	-3.688927	-0.681918
O	0.517104	-5.481075	2.580622
O	-0.508622	-4.479871	-2.867144
C	-0.075811	-5.356026	-3.900814
H	-0.173640	-4.790496	-4.847002
H	-0.707354	-6.268513	-3.971794
H	0.984963	-5.658187	-3.763397
C	0.257016	-4.546999	3.621225
H	0.357864	-5.107564	4.569828
H	-0.771211	-4.131473	3.551910
H	0.990913	-3.712085	3.626592
C	-0.187034	-2.314326	-1.058088
S	0.281899	-2.295487	1.523035
C	-0.000000	-1.435180	-0.000000
H	-0.373653	-1.993211	-2.090565
C	0.000000	0.000000	0.000000
S	0.158383	0.885376	1.510732
C	0.430876	2.436951	0.727629
C	0.157682	0.894430	-1.064665
C	0.397351	2.262384	-0.678287
C	0.147783	0.828765	-2.486150
C	0.367291	2.074406	-3.106916
S	0.580633	3.303533	-1.965735
C	0.416083	2.324204	-4.559972
O	0.256921	1.404367	-5.350277
O	0.642094	3.587338	-5.004375
F	-0.041828	-0.269113	-3.246290
C	0.714377	3.938827	-6.334976
H	0.906844	5.026898	-6.370268
H	-0.230661	3.710099	-6.875609
H	1.531918	3.398681	-6.861878
H	0.590699	3.342984	1.321510
H	-0.883319	-9.146471	-0.105910
H	0.883019	-9.150570	-0.431555
H	-1.062054	-1.444158	0.195861
$end

$rem
JOBTYPE		SP
EXCHANGE	HF
CORRELATION	pRIMP2
BASIS		cc-pvtz
METHOD		rimp2
AUX_BASIS	rimp2-cc-pvtz
SOLVENT_METHOD	PCM
PURECART	11111
SYMMETRY	false
MEM_TOTAL	110000
SCF_CONVERGENCE = 6
THRESH=10
GUI = 2
$end

$solvent
dielectric 4.90
$end
--------------------------------------------------------------

             Standard Nuclear Orientation (Angstroms)
    I     Atom           X                Y                Z
 ----------------------------------------------------------------
    1      C       0.0006870000    -8.5197410000    -0.2721040000
    2      C       0.1944760000    -7.6359670000     0.7795330000
    3      S      -0.2875810000    -7.6517400000    -1.7995960000
    4      C       0.1257870000    -6.2618940000     0.3994270000
    5      H       0.3838260000    -7.9547380000     1.8123140000
    6      C      -0.1219890000    -6.0799850000    -1.0067620000
    7      C      -0.2474880000    -4.7983820000    -1.5649940000
    8      C       0.2583030000    -5.1535420000     1.2840870000
    9      C       0.1284930000    -3.8696260000     0.7262600000
   10      C      -0.1167250000    -3.6889270000    -0.6819180000
   11      O       0.5171040000    -5.4810750000     2.5806220000
   12      O      -0.5086220000    -4.4798710000    -2.8671440000
   13      C      -0.0758110000    -5.3560260000    -3.9008140000
   14      H      -0.1736400000    -4.7904960000    -4.8470020000
   15      H      -0.7073540000    -6.2685130000    -3.9717940000
   16      H       0.9849630000    -5.6581870000    -3.7633970000
   17      C       0.2570160000    -4.5469990000     3.6212250000
   18      H       0.3578640000    -5.1075640000     4.5698280000
   19      H      -0.7712110000    -4.1314730000     3.5519100000
   20      H       0.9909130000    -3.7120850000     3.6265920000
   21      C      -0.1870340000    -2.3143260000    -1.0580880000
   22      S       0.2818990000    -2.2954870000     1.5230350000
   23      C       0.0000000000    -1.4351800000     0.0000000000
   24      H      -0.3736530000    -1.9932110000    -2.0905650000
   25      C       0.0000000000     0.0000000000     0.0000000000
   26      S       0.1583830000     0.8853760000     1.5107320000
   27      C       0.4308760000     2.4369510000     0.7276290000
   28      C       0.1576820000     0.8944300000    -1.0646650000
   29      C       0.3973510000     2.2623840000    -0.6782870000
   30      C       0.1477830000     0.8287650000    -2.4861500000
   31      C       0.3672910000     2.0744060000    -3.1069160000
   32      S       0.5806330000     3.3035330000    -1.9657350000
   33      C       0.4160830000     2.3242040000    -4.5599720000
   34      O       0.2569210000     1.4043670000    -5.3502770000
   35      O       0.6420940000     3.5873380000    -5.0043750000
   36      F      -0.0418280000    -0.2691130000    -3.2462900000
   37      C       0.7143770000     3.9388270000    -6.3349760000
   38      H       0.9068440000     5.0268980000    -6.3702680000
   39      H      -0.2306610000     3.7100990000    -6.8756090000
   40      H       1.5319180000     3.3986810000    -6.8618780000
   41      H       0.5906990000     3.3429840000     1.3215100000
   42      H      -0.8833190000    -9.1464710000    -0.1059100000
   43      H       0.8830190000    -9.1505700000    -0.4315550000
   44      H      -1.0620540000    -1.4441580000     0.1958610000
 ----------------------------------------------------------------

   11   -2755.3228406469      7.01e-07  Convergence criterion met
 Total energy in the final basis set =    -2755.3228406469
        RIMP2         total energy =     -2760.4141189447 a.u.

                    Orbital Energies (a.u.)
 --------------------------------------------------------------

 Alpha MOs
 -- Occupied --
-92.0149 -91.9922 -91.9840 -91.9599 -26.3397 -20.6109 -20.5902 -20.5872
-20.5475 -11.4083 -11.3800 -11.3255 -11.3127 -11.3100 -11.2967 -11.2923
-11.2879 -11.2872 -11.2866 -11.2858 -11.2833 -11.2822 -11.2762 -11.2753
-11.2700 -11.2613 -11.2604 -11.2517 -11.2422  -9.0135  -8.9964  -8.9862
 -8.9625  -6.6943  -6.6937  -6.6932  -6.6777  -6.6770  -6.6756  -6.6673
 -6.6664  -6.6651  -6.6437  -6.6428  -6.6418  -1.6542  -1.4704  -1.4134
 -1.4091  -1.3655  -1.2380  -1.2112  -1.1779  -1.1436  -1.1012  -1.0502
 -1.0486  -1.0288  -1.0108  -1.0005  -0.9716  -0.9600  -0.9505  -0.9408
 -0.8962  -0.8728  -0.8639  -0.8112  -0.7978  -0.7880  -0.7758  -0.7705
 -0.7642  -0.7335  -0.7233  -0.7211  -0.6990  -0.6954  -0.6846  -0.6777
 -0.6719  -0.6704  -0.6581  -0.6495  -0.6401  -0.6308  -0.6220  -0.6159
 -0.6084  -0.6049  -0.5954  -0.5914  -0.5774  -0.5717  -0.5602  -0.5513
 -0.5488  -0.5368  -0.5335  -0.5226  -0.5152  -0.5098  -0.5068  -0.5015
 -0.4842  -0.4837  -0.4806  -0.4704  -0.4626  -0.4605  -0.4579  -0.4480
 -0.4339  -0.3983  -0.3887  -0.3724  -0.3509  -0.2943  -0.2840  -0.2189

          Ground-State Mulliken Net Atomic Charges

     Atom                 Charge (a.u.)
  ----------------------------------------
      1 C                    -0.070984
      2 C                    -0.246171
      3 S                    -0.131079
      4 C                    -0.050030
      5 H                     0.195214
      6 C                    -0.050228
      7 C                     0.229265
      8 C                     0.234562
      9 C                    -0.076174
     10 C                    -0.039324
     11 O                    -0.333138
     12 O                    -0.343400
     13 C                    -0.083302
     14 H                     0.122045
     15 H                     0.092170
     16 H                     0.092733
     17 C                    -0.088943
     18 H                     0.125267
     19 H                     0.093627
     20 H                     0.090323
     21 C                    -0.312882
     22 S                    -0.092237
     23 C                     0.120511
     24 H                     0.217417
     25 C                    -0.087128
     26 S                     0.073458
     27 C                    -0.263228
     28 C                    -0.057667
     29 C                    -0.018571
     30 C                     0.400805
     31 C                    -0.150410
     32 S                     0.029736
     33 C                     0.460730
     34 O                    -0.455932
     35 O                    -0.298541
     36 F                    -0.217625
     37 C                    -0.055135
     38 H                     0.116404
     39 H                     0.084027
     40 H                     0.084082
     41 H                     0.215314
     42 H                     0.119331
     43 H                     0.117123
     44 H                     0.207981
  ----------------------------------------
  Sum of atomic charges =     0.000000

                    Cartesian Multipole Moments
 -----------------------------------------------------------------
    Charge (ESU x 10^10)
                 0.0000
    Dipole Moment (Debye)
         X      -0.1537      Y       1.4339      Z       3.8752
       Tot       4.1348
    Quadrupole Moments (Debye-Ang)
        XX    -200.7016     XY       1.6722     YY    -167.9843
        XZ      -4.5670     YZ     -14.2723     ZZ    -189.3342

 Total job time:  335.01s(wall), 10684.76s(cpu)
        *  Thank you very much for using Q-Chem.  Have a nice day.  *
