 Q-Chem 5.4, Q-Chem, Inc., Pleasanton, CA (2021)
 Q-Chem 5.4.0 for Intel X86 EM64T Linux

User input:
--------------------------------------------------------------
$molecule
0 1
C	0.000687	-8.519741	-0.272104
C	0.194476	-7.635967	0.779533
S	-0.287581	-7.651740	-1.799596
C	0.125787	-6.261894	0.399427
H	0.383826	-7.954738	1.812314
C	-0.121989	-6.079985	-1.006762
C	-0.247488	-4.798382	-1.564994
C	0.258303	-5.153542	1.284087
C	0.128493	-3.869626	0.726260
C	-0.116725	-3.688927	-0.681918
O	0.517104	-5.481075	2.580622
O	-0.508622	-4.479871	-2.867144
C	-0.075811	-5.356026	-3.900814
H	-0.173640	-4.790496	-4.847002
H	-0.707354	-6.268513	-3.971794
H	0.984963	-5.658187	-3.763397
C	0.257016	-4.546999	3.621225
H	0.357864	-5.107564	4.569828
H	-0.771211	-4.131473	3.551910
H	0.990913	-3.712085	3.626592
C	-0.187034	-2.314326	-1.058088
S	0.281899	-2.295487	1.523035
C	0.000000	-1.435180	0.000000
H	-0.373653	-1.993211	-2.090565
C	0.000000	0.000000	0.000000
S	0.080615	0.895811	1.510732
C	0.216842	2.465231	0.727629
C	0.079127	0.904769	-1.064665
C	0.198659	2.288406	-0.678287
C	0.074988	0.838492	-2.486150
C	0.185097	2.098524	-3.106916
S	0.290501	3.341568	-1.965735
C	0.211932	2.351623	-4.559972
O	0.133545	1.421416	-5.350277
O	0.326994	3.629649	-5.004375
F	-0.018214	-0.271734	-3.246290
C	0.368367	3.986101	-6.334976
H	0.465270	5.086806	-6.370268
H	-0.553140	3.675878	-6.875609
H	1.229874	3.519263	-6.861878
H	0.297091	3.381746	1.321510
H	-0.883319	-9.146471	-0.105910
H	0.883019	-9.150570	-0.431555
H	-1.062054	-1.444158	0.195861
$end

$rem
JOBTYPE		SP
EXCHANGE	HF
CORRELATION	pRIMP2
BASIS		cc-pvtz
METHOD		rimp2
AUX_BASIS	rimp2-cc-pvtz
SOLVENT_METHOD	PCM
PURECART	11111
SYMMETRY	false
MEM_TOTAL	110000
SCF_CONVERGENCE = 6
THRESH=10
GUI = 2
$end

$solvent
dielectric 4.90
$end
--------------------------------------------------------------

             Standard Nuclear Orientation (Angstroms)
    I     Atom           X                Y                Z
 ----------------------------------------------------------------
    1      C       0.0006870000    -8.5197410000    -0.2721040000
    2      C       0.1944760000    -7.6359670000     0.7795330000
    3      S      -0.2875810000    -7.6517400000    -1.7995960000
    4      C       0.1257870000    -6.2618940000     0.3994270000
    5      H       0.3838260000    -7.9547380000     1.8123140000
    6      C      -0.1219890000    -6.0799850000    -1.0067620000
    7      C      -0.2474880000    -4.7983820000    -1.5649940000
    8      C       0.2583030000    -5.1535420000     1.2840870000
    9      C       0.1284930000    -3.8696260000     0.7262600000
   10      C      -0.1167250000    -3.6889270000    -0.6819180000
   11      O       0.5171040000    -5.4810750000     2.5806220000
   12      O      -0.5086220000    -4.4798710000    -2.8671440000
   13      C      -0.0758110000    -5.3560260000    -3.9008140000
   14      H      -0.1736400000    -4.7904960000    -4.8470020000
   15      H      -0.7073540000    -6.2685130000    -3.9717940000
   16      H       0.9849630000    -5.6581870000    -3.7633970000
   17      C       0.2570160000    -4.5469990000     3.6212250000
   18      H       0.3578640000    -5.1075640000     4.5698280000
   19      H      -0.7712110000    -4.1314730000     3.5519100000
   20      H       0.9909130000    -3.7120850000     3.6265920000
   21      C      -0.1870340000    -2.3143260000    -1.0580880000
   22      S       0.2818990000    -2.2954870000     1.5230350000
   23      C       0.0000000000    -1.4351800000     0.0000000000
   24      H      -0.3736530000    -1.9932110000    -2.0905650000
   25      C       0.0000000000     0.0000000000     0.0000000000
   26      S       0.0806150000     0.8958110000     1.5107320000
   27      C       0.2168420000     2.4652310000     0.7276290000
   28      C       0.0791270000     0.9047690000    -1.0646650000
   29      C       0.1986590000     2.2884060000    -0.6782870000
   30      C       0.0749880000     0.8384920000    -2.4861500000
   31      C       0.1850970000     2.0985240000    -3.1069160000
   32      S       0.2905010000     3.3415680000    -1.9657350000
   33      C       0.2119320000     2.3516230000    -4.5599720000
   34      O       0.1335450000     1.4214160000    -5.3502770000
   35      O       0.3269940000     3.6296490000    -5.0043750000
   36      F      -0.0182140000    -0.2717340000    -3.2462900000
   37      C       0.3683670000     3.9861010000    -6.3349760000
   38      H       0.4652700000     5.0868060000    -6.3702680000
   39      H      -0.5531400000     3.6758780000    -6.8756090000
   40      H       1.2298740000     3.5192630000    -6.8618780000
   41      H       0.2970910000     3.3817460000     1.3215100000
   42      H      -0.8833190000    -9.1464710000    -0.1059100000
   43      H       0.8830190000    -9.1505700000    -0.4315550000
   44      H      -1.0620540000    -1.4441580000     0.1958610000
 ----------------------------------------------------------------

   11   -2755.3252622685      7.00e-07  Convergence criterion met
 Total energy in the final basis set =    -2755.3252622685
        RIMP2         total energy =     -2760.4155559750 a.u.

                    Orbital Energies (a.u.)
 --------------------------------------------------------------

 Alpha MOs
 -- Occupied --
-92.0147 -91.9919 -91.9840 -91.9601 -26.3397 -20.6108 -20.5904 -20.5872
-20.5473 -11.4082 -11.3800 -11.3266 -11.3131 -11.3101 -11.2965 -11.2918
-11.2879 -11.2879 -11.2867 -11.2860 -11.2824 -11.2823 -11.2758 -11.2756
-11.2699 -11.2617 -11.2606 -11.2519 -11.2427  -9.0134  -8.9961  -8.9863
 -8.9627  -6.6942  -6.6936  -6.6930  -6.6774  -6.6767  -6.6753  -6.6674
 -6.6665  -6.6652  -6.6439  -6.6430  -6.6420  -1.6542  -1.4703  -1.4136
 -1.4092  -1.3653  -1.2379  -1.2113  -1.1782  -1.1436  -1.1013  -1.0501
 -1.0488  -1.0287  -1.0109  -1.0006  -0.9715  -0.9601  -0.9507  -0.9408
 -0.8964  -0.8728  -0.8639  -0.8113  -0.7978  -0.7881  -0.7759  -0.7705
 -0.7643  -0.7336  -0.7233  -0.7209  -0.6992  -0.6956  -0.6846  -0.6776
 -0.6718  -0.6708  -0.6582  -0.6496  -0.6401  -0.6310  -0.6222  -0.6160
 -0.6084  -0.6048  -0.5954  -0.5911  -0.5777  -0.5719  -0.5604  -0.5508
 -0.5495  -0.5368  -0.5336  -0.5226  -0.5153  -0.5098  -0.5068  -0.5015
 -0.4843  -0.4838  -0.4807  -0.4704  -0.4629  -0.4604  -0.4579  -0.4482
 -0.4340  -0.3985  -0.3889  -0.3727  -0.3509  -0.2944  -0.2838  -0.2193

          Ground-State Mulliken Net Atomic Charges

     Atom                 Charge (a.u.)
  ----------------------------------------
      1 C                    -0.071049
      2 C                    -0.244567
      3 S                    -0.130581
      4 C                    -0.050494
      5 H                     0.195402
      6 C                    -0.049906
      7 C                     0.229133
      8 C                     0.236319
      9 C                    -0.076440
     10 C                    -0.040841
     11 O                    -0.333111
     12 O                    -0.343309
     13 C                    -0.083339
     14 H                     0.122068
     15 H                     0.092178
     16 H                     0.092759
     17 C                    -0.088858
     18 H                     0.125295
     19 H                     0.093690
     20 H                     0.090412
     21 C                    -0.314529
     22 S                    -0.092080
     23 C                     0.127942
     24 H                     0.216361
     25 C                    -0.104506
     26 S                     0.070940
     27 C                    -0.267073
     28 C                    -0.049785
     29 C                    -0.019370
     30 C                     0.411124
     31 C                    -0.151793
     32 S                     0.027312
     33 C                     0.462497
     34 O                    -0.456517
     35 O                    -0.298563
     36 F                    -0.218393
     37 C                    -0.055305
     38 H                     0.116414
     39 H                     0.084048
     40 H                     0.084064
     41 H                     0.215240
     42 H                     0.119536
     43 H                     0.117340
     44 H                     0.210334
  ----------------------------------------
  Sum of atomic charges =     0.000000

                    Cartesian Multipole Moments
 -----------------------------------------------------------------
    Charge (ESU x 10^10)
                 0.0000
    Dipole Moment (Debye)
         X      -0.3954      Y       1.2884      Z       3.9015
       Tot       4.1277
    Quadrupole Moments (Debye-Ang)
        XX    -201.0314     XY       0.4665     YY    -166.9523
        XZ      -3.6849     YZ     -14.3812     ZZ    -189.4509

 Total job time:  333.78s(wall), 10949.47s(cpu)
        *  Thank you very much for using Q-Chem.  Have a nice day.  *
