 Q-Chem 5.4, Q-Chem, Inc., Pleasanton, CA (2021)
 Q-Chem 5.4.0 for Intel X86 EM64T Linux

User input:
--------------------------------------------------------------
$molecule
0 1
C	0.272104	-8.519741	0.000687
C	-0.779533	-7.635967	0.194476
S	1.799596	-7.651740	-0.287581
C	-0.399427	-6.261894	0.125787
H	-1.812314	-7.954738	0.383826
C	1.006762	-6.079985	-0.121989
C	1.564994	-4.798382	-0.247488
C	-1.284087	-5.153542	0.258303
C	-0.726260	-3.869626	0.128493
C	0.681918	-3.688927	-0.116725
O	-2.580622	-5.481075	0.517104
O	2.867144	-4.479871	-0.508622
C	3.900814	-5.356026	-0.075811
H	4.847002	-4.790496	-0.173640
H	3.971794	-6.268513	-0.707354
H	3.763397	-5.658187	0.984963
C	-3.621225	-4.546999	0.257016
H	-4.569828	-5.107564	0.357864
H	-3.551910	-4.131473	-0.771211
H	-3.626592	-3.712085	0.990913
C	1.058088	-2.314326	-0.187034
S	-1.523035	-2.295487	0.281899
C	-0.000000	-1.435180	-0.000000
H	2.090565	-1.993211	-0.373653
C	0.000000	0.000000	0.000000
S	0.690437	0.576430	1.510732
C	1.896512	1.589852	0.727629
C	0.695720	0.583817	-1.064665
C	1.758621	1.477674	-0.678287
C	0.645928	0.539878	-2.486150
C	1.614763	1.352997	-3.106916
S	2.568261	2.157430	-1.965735
C	1.812707	1.512991	-4.559972
O	1.099523	0.910662	-5.350277
O	2.797769	2.335330	-5.004375
F	-0.205024	-0.179266	-3.246290
C	3.079074	2.558124	-6.334976
H	3.925910	3.267919	-6.370268
H	2.208109	2.990367	-6.875609
H	3.358147	1.618843	-6.861878
H	2.601331	2.181180	1.321510
H	0.105910	-9.146471	-0.883319
H	0.431555	-9.150570	0.883019
H	-0.195861	-1.444158	-1.062054
$end

$rem
JOBTYPE		SP
EXCHANGE	HF
CORRELATION	pRIMP2
BASIS		cc-pvtz
METHOD		rimp2
AUX_BASIS	rimp2-cc-pvtz
SOLVENT_METHOD	PCM
PURECART	11111
SYMMETRY	false
MEM_TOTAL	110000
SCF_CONVERGENCE = 6
THRESH=10
GUI = 2
$end

$solvent
dielectric 4.90
$end
--------------------------------------------------------------

             Standard Nuclear Orientation (Angstroms)
    I     Atom           X                Y                Z
 ----------------------------------------------------------------
    1      C       0.2721040000    -8.5197410000     0.0006870000
    2      C      -0.7795330000    -7.6359670000     0.1944760000
    3      S       1.7995960000    -7.6517400000    -0.2875810000
    4      C      -0.3994270000    -6.2618940000     0.1257870000
    5      H      -1.8123140000    -7.9547380000     0.3838260000
    6      C       1.0067620000    -6.0799850000    -0.1219890000
    7      C       1.5649940000    -4.7983820000    -0.2474880000
    8      C      -1.2840870000    -5.1535420000     0.2583030000
    9      C      -0.7262600000    -3.8696260000     0.1284930000
   10      C       0.6819180000    -3.6889270000    -0.1167250000
   11      O      -2.5806220000    -5.4810750000     0.5171040000
   12      O       2.8671440000    -4.4798710000    -0.5086220000
   13      C       3.9008140000    -5.3560260000    -0.0758110000
   14      H       4.8470020000    -4.7904960000    -0.1736400000
   15      H       3.9717940000    -6.2685130000    -0.7073540000
   16      H       3.7633970000    -5.6581870000     0.9849630000
   17      C      -3.6212250000    -4.5469990000     0.2570160000
   18      H      -4.5698280000    -5.1075640000     0.3578640000
   19      H      -3.5519100000    -4.1314730000    -0.7712110000
   20      H      -3.6265920000    -3.7120850000     0.9909130000
   21      C       1.0580880000    -2.3143260000    -0.1870340000
   22      S      -1.5230350000    -2.2954870000     0.2818990000
   23      C       0.0000000000    -1.4351800000     0.0000000000
   24      H       2.0905650000    -1.9932110000    -0.3736530000
   25      C       0.0000000000     0.0000000000     0.0000000000
   26      S       0.6904370000     0.5764300000     1.5107320000
   27      C       1.8965120000     1.5898520000     0.7276290000
   28      C       0.6957200000     0.5838170000    -1.0646650000
   29      C       1.7586210000     1.4776740000    -0.6782870000
   30      C       0.6459280000     0.5398780000    -2.4861500000
   31      C       1.6147630000     1.3529970000    -3.1069160000
   32      S       2.5682610000     2.1574300000    -1.9657350000
   33      C       1.8127070000     1.5129910000    -4.5599720000
   34      O       1.0995230000     0.9106620000    -5.3502770000
   35      O       2.7977690000     2.3353300000    -5.0043750000
   36      F      -0.2050240000    -0.1792660000    -3.2462900000
   37      C       3.0790740000     2.5581240000    -6.3349760000
   38      H       3.9259100000     3.2679190000    -6.3702680000
   39      H       2.2081090000     2.9903670000    -6.8756090000
   40      H       3.3581470000     1.6188430000    -6.8618780000
   41      H       2.6013310000     2.1811800000     1.3215100000
   42      H       0.1059100000    -9.1464710000    -0.8833190000
   43      H       0.4315550000    -9.1505700000     0.8830190000
   44      H      -0.1958610000    -1.4441580000    -1.0620540000
 ----------------------------------------------------------------

   11   -2755.2850354089      6.99e-07  Convergence criterion met
 Total energy in the final basis set =    -2755.2850354089
        RIMP2         total energy =     -2760.3899519287 a.u.

                    Orbital Energies (a.u.)
 --------------------------------------------------------------

 Alpha MOs
 -- Occupied --
-92.0121 -92.0055 -91.9691 -91.9566 -26.3389 -20.6165 -20.5864 -20.5839
-20.5574 -11.4168 -11.3792 -11.3194 -11.3118 -11.3076 -11.3026 -11.3013
-11.2947 -11.2908 -11.2847 -11.2824 -11.2820 -11.2791 -11.2738 -11.2708
-11.2696 -11.2560 -11.2549 -11.2479 -11.2332  -9.0114  -9.0091  -8.9715
 -8.9592  -6.6920  -6.6912  -6.6910  -6.6903  -6.6897  -6.6884  -6.6526
 -6.6518  -6.6505  -6.6405  -6.6396  -6.6385  -1.6520  -1.4767  -1.4086
 -1.4069  -1.3728  -1.2467  -1.2057  -1.1741  -1.1462  -1.0983  -1.0557
 -1.0432  -1.0333  -1.0063  -0.9946  -0.9759  -0.9587  -0.9478  -0.9410
 -0.8908  -0.8778  -0.8584  -0.8095  -0.7972  -0.7829  -0.7828  -0.7709
 -0.7593  -0.7334  -0.7213  -0.7179  -0.6976  -0.6929  -0.6864  -0.6824
 -0.6785  -0.6746  -0.6538  -0.6470  -0.6325  -0.6261  -0.6184  -0.6144
 -0.6118  -0.6101  -0.6027  -0.5943  -0.5790  -0.5656  -0.5559  -0.5553
 -0.5468  -0.5327  -0.5255  -0.5226  -0.5112  -0.5063  -0.5044  -0.4995
 -0.4913  -0.4837  -0.4698  -0.4671  -0.4657  -0.4643  -0.4563  -0.4435
 -0.4171  -0.4024  -0.3815  -0.3681  -0.3500  -0.3023  -0.2865  -0.2178

          Ground-State Mulliken Net Atomic Charges

     Atom                 Charge (a.u.)
  ----------------------------------------
      1 C                    -0.069627
      2 C                    -0.269177
      3 S                    -0.138684
      4 C                    -0.041469
      5 H                     0.192291
      6 C                    -0.051873
      7 C                     0.222780
      8 C                     0.221079
      9 C                    -0.075542
     10 C                    -0.047470
     11 O                    -0.336332
     12 O                    -0.344136
     13 C                    -0.082590
     14 H                     0.119159
     15 H                     0.092219
     16 H                     0.092505
     17 C                    -0.086477
     18 H                     0.122268
     19 H                     0.091965
     20 H                     0.090100
     21 C                    -0.272398
     22 S                    -0.099851
     23 C                     0.065699
     24 H                     0.207081
     25 C                    -0.134994
     26 S                     0.107880
     27 C                    -0.166950
     28 C                    -0.086181
     29 C                    -0.012671
     30 C                     0.363117
     31 C                    -0.119080
     32 S                     0.070164
     33 C                     0.458204
     34 O                    -0.439244
     35 O                    -0.296578
     36 F                    -0.210799
     37 C                    -0.054624
     38 H                     0.117597
     39 H                     0.085765
     40 H                     0.085870
     41 H                     0.219553
     42 H                     0.116230
     43 H                     0.113637
     44 H                     0.181586
  ----------------------------------------
  Sum of atomic charges =     0.000000

                    Cartesian Multipole Moments
 -----------------------------------------------------------------
    Charge (ESU x 10^10)
                 0.0000
    Dipole Moment (Debye)
         X       4.1011      Y       4.3862      Z       1.9919
       Tot       6.3266
    Quadrupole Moments (Debye-Ang)
        XX    -172.3798     XY      12.9892     YY    -187.7864
        XZ      -6.9011     YZ      -8.6923     ZZ    -202.3079

 Total job time:  331.84s(wall), 10643.94s(cpu)
        *  Thank you very much for using Q-Chem.  Have a nice day.  *
