 Q-Chem 5.4, Q-Chem, Inc., Pleasanton, CA (2021)
 Q-Chem 5.4.0 for Intel X86 EM64T Linux

User input:
--------------------------------------------------------------
$molecule
0 1
C	0.093711	-8.519741	-0.255459
C	-0.083869	-7.635967	0.799036
S	0.345260	-7.651740	-1.789425
C	-0.018411	-6.261894	0.418360
H	-0.259169	-7.954738	1.834294
C	0.229701	-6.079985	-0.987769
C	0.302697	-4.798382	-1.555260
C	-0.196459	-5.153542	1.294992
C	-0.127651	-3.869626	0.726408
C	0.123544	-3.688927	-0.680716
O	-0.396706	-5.481075	2.601852
O	0.502673	-4.479871	-2.868193
C	1.262918	-5.356026	-3.691495
H	1.494604	-4.790496	-4.614080
H	0.693738	-6.268513	-3.974195
H	2.212720	-5.658187	-3.199559
C	-0.997016	-4.546999	3.490743
H	-1.226691	-5.107564	4.416630
H	-1.939526	-4.131473	3.073934
H	-0.309214	-3.712085	3.746794
C	0.186133	-2.314326	-1.058247
S	-0.256010	-2.295487	1.527599
C	-0.000000	-1.435180	-0.000000
H	0.363896	-1.993211	-2.092285
C	0.000000	0.000000	0.000000
S	0.451648	0.777811	1.510732
C	1.238377	2.142617	0.727629
C	0.454085	0.786559	-1.064665
C	1.147169	1.990043	-0.678287
C	0.422325	0.728240	-2.486150
C	1.054629	1.823683	-3.106916
S	1.675491	2.905718	-1.965735
C	1.185914	2.041729	-4.559972
O	0.721749	1.231802	-5.350277
O	1.830313	3.151386	-5.004375
F	-0.131347	-0.238577	-3.246290
C	2.018453	3.456956	-6.334976
H	2.571455	4.413580	-6.370268
H	1.052178	3.565244	-6.875609
H	2.601950	2.669768	-6.861878
H	1.698444	2.939346	1.321510
H	-0.793825	-9.146471	-0.401636
H	0.977367	-9.150570	-0.103519
H	-1.064992	-1.444158	-0.179195
$end

$rem
JOBTYPE		SP
EXCHANGE	HF
CORRELATION	pRIMP2
BASIS		cc-pvtz
METHOD		rimp2
AUX_BASIS	rimp2-cc-pvtz
SOLVENT_METHOD	PCM
PURECART	11111
SYMMETRY	false
MEM_TOTAL	110000
SCF_CONVERGENCE = 6
THRESH=10
GUI = 2
$end

$solvent
dielectric 4.90
$end
--------------------------------------------------------------

             Standard Nuclear Orientation (Angstroms)
    I     Atom           X                Y                Z
 ----------------------------------------------------------------
    1      C       0.0937110000    -8.5197410000    -0.2554590000
    2      C      -0.0838690000    -7.6359670000     0.7990360000
    3      S       0.3452600000    -7.6517400000    -1.7894250000
    4      C      -0.0184110000    -6.2618940000     0.4183600000
    5      H      -0.2591690000    -7.9547380000     1.8342940000
    6      C       0.2297010000    -6.0799850000    -0.9877690000
    7      C       0.3026970000    -4.7983820000    -1.5552600000
    8      C      -0.1964590000    -5.1535420000     1.2949920000
    9      C      -0.1276510000    -3.8696260000     0.7264080000
   10      C       0.1235440000    -3.6889270000    -0.6807160000
   11      O      -0.3967060000    -5.4810750000     2.6018520000
   12      O       0.5026730000    -4.4798710000    -2.8681930000
   13      C       1.2629180000    -5.3560260000    -3.6914950000
   14      H       1.4946040000    -4.7904960000    -4.6140800000
   15      H       0.6937380000    -6.2685130000    -3.9741950000
   16      H       2.2127200000    -5.6581870000    -3.1995590000
   17      C      -0.9970160000    -4.5469990000     3.4907430000
   18      H      -1.2266910000    -5.1075640000     4.4166300000
   19      H      -1.9395260000    -4.1314730000     3.0739340000
   20      H      -0.3092140000    -3.7120850000     3.7467940000
   21      C       0.1861330000    -2.3143260000    -1.0582470000
   22      S      -0.2560100000    -2.2954870000     1.5275990000
   23      C       0.0000000000    -1.4351800000     0.0000000000
   24      H       0.3638960000    -1.9932110000    -2.0922850000
   25      C       0.0000000000     0.0000000000     0.0000000000
   26      S       0.4516480000     0.7778110000     1.5107320000
   27      C       1.2383770000     2.1426170000     0.7276290000
   28      C       0.4540850000     0.7865590000    -1.0646650000
   29      C       1.1471690000     1.9900430000    -0.6782870000
   30      C       0.4223250000     0.7282400000    -2.4861500000
   31      C       1.0546290000     1.8236830000    -3.1069160000
   32      S       1.6754910000     2.9057180000    -1.9657350000
   33      C       1.1859140000     2.0417290000    -4.5599720000
   34      O       0.7217490000     1.2318020000    -5.3502770000
   35      O       1.8303130000     3.1513860000    -5.0043750000
   36      F      -0.1313470000    -0.2385770000    -3.2462900000
   37      C       2.0184530000     3.4569560000    -6.3349760000
   38      H       2.5714550000     4.4135800000    -6.3702680000
   39      H       1.0521780000     3.5652440000    -6.8756090000
   40      H       2.6019500000     2.6697680000    -6.8618780000
   41      H       1.6984440000     2.9393460000     1.3215100000
   42      H      -0.7938250000    -9.1464710000    -0.4016360000
   43      H       0.9773670000    -9.1505700000    -0.1035190000
   44      H      -1.0649920000    -1.4441580000    -0.1791950000
 ----------------------------------------------------------------

   11   -2755.3039951775      6.78e-07  Convergence criterion met
 Total energy in the final basis set =    -2755.3039951775
        RIMP2         total energy =     -2760.4037735790 a.u.

                    Orbital Energies (a.u.)
 --------------------------------------------------------------

 Alpha MOs
 -- Occupied --
-92.0143 -91.9952 -91.9824 -91.9589 -26.3399 -20.6119 -20.5892 -20.5869
-20.5494 -11.4099 -11.3793 -11.3159 -11.3111 -11.3097 -11.2979 -11.2961
-11.2905 -11.2885 -11.2860 -11.2852 -11.2830 -11.2821 -11.2801 -11.2737
-11.2717 -11.2594 -11.2594 -11.2507 -11.2398  -9.0130  -8.9992  -8.9846
 -8.9615  -6.6938  -6.6931  -6.6926  -6.6805  -6.6798  -6.6785  -6.6658
 -6.6649  -6.6636  -6.6427  -6.6418  -6.6408  -1.6542  -1.4716  -1.4124
 -1.4088  -1.3669  -1.2397  -1.2102  -1.1768  -1.1441  -1.1003  -1.0515
 -1.0478  -1.0294  -1.0099  -0.9997  -0.9723  -0.9599  -0.9499  -0.9410
 -0.8956  -0.8735  -0.8628  -0.8098  -0.7981  -0.7875  -0.7760  -0.7716
 -0.7628  -0.7350  -0.7237  -0.7199  -0.6985  -0.6939  -0.6848  -0.6786
 -0.6731  -0.6710  -0.6575  -0.6491  -0.6400  -0.6293  -0.6210  -0.6152
 -0.6092  -0.6062  -0.5959  -0.5937  -0.5777  -0.5705  -0.5595  -0.5542
 -0.5441  -0.5356  -0.5316  -0.5231  -0.5143  -0.5095  -0.5070  -0.5017
 -0.4855  -0.4836  -0.4780  -0.4685  -0.4621  -0.4609  -0.4589  -0.4474
 -0.4328  -0.3966  -0.3881  -0.3711  -0.3500  -0.2941  -0.2856  -0.2167

          Ground-State Mulliken Net Atomic Charges

     Atom                 Charge (a.u.)
  ----------------------------------------
      1 C                    -0.070681
      2 C                    -0.252841
      3 S                    -0.133471
      4 C                    -0.049971
      5 H                     0.194361
      6 C                    -0.050908
      7 C                     0.227242
      8 C                     0.234766
      9 C                    -0.075300
     10 C                    -0.040313
     11 O                    -0.333503
     12 O                    -0.343335
     13 C                    -0.083239
     14 H                     0.121641
     15 H                     0.092283
     16 H                     0.092500
     17 C                    -0.088680
     18 H                     0.125164
     19 H                     0.093376
     20 H                     0.090010
     21 C                    -0.307153
     22 S                    -0.098911
     23 C                     0.104176
     24 H                     0.214181
     25 C                    -0.033084
     26 S                     0.099335
     27 C                    -0.254221
     28 C                    -0.104321
     29 C                    -0.008348
     30 C                     0.355757
     31 C                    -0.140872
     32 S                     0.044902
     33 C                     0.459137
     34 O                    -0.452829
     35 O                    -0.298406
     36 F                    -0.215401
     37 C                    -0.054926
     38 H                     0.116680
     39 H                     0.084385
     40 H                     0.084323
     41 H                     0.215138
     42 H                     0.118469
     43 H                     0.116165
     44 H                     0.206722
  ----------------------------------------
  Sum of atomic charges =     0.000000

                    Cartesian Multipole Moments
 -----------------------------------------------------------------
    Charge (ESU x 10^10)
                -0.0000
    Dipole Moment (Debye)
         X       0.9479      Y       2.0956      Z       3.4721
       Tot       4.1649
    Quadrupole Moments (Debye-Ang)
        XX    -193.3292     XY       7.4561     YY    -174.0023
        XZ     -13.3191     YZ     -13.3278     ZZ    -192.4570

 Total job time:  330.09s(wall), 10609.10s(cpu)
        *  Thank you very much for using Q-Chem.  Have a nice day.  *
