 Q-Chem 5.4, Q-Chem, Inc., Pleasanton, CA (2021)
 Q-Chem 5.4.0 for Intel X86 EM64T Linux

User input:
--------------------------------------------------------------
$molecule
0 1
C	0.208002	-8.519741	0.175432
C	-0.722164	-7.635967	-0.352097
S	1.563424	-7.651740	0.936458
C	-0.386833	-6.261894	-0.160388
H	-1.635031	-7.954738	-0.870905
C	0.849637	-6.079985	0.553685
C	1.357938	-4.798382	0.816372
C	-1.149702	-5.153542	-0.627524
C	-0.638941	-3.869626	-0.368399
C	0.597409	-3.688927	0.348912
O	-2.309260	-5.481075	-1.262667
O	2.523296	-4.479871	1.453338
C	3.036927	-5.356026	2.449320
H	3.824632	-4.790496	2.982577
H	3.497250	-6.268513	2.011155
H	2.249807	-5.658187	3.173591
C	-2.939226	-4.546999	-2.130793
H	-3.730721	-5.107564	-2.663289
H	-2.225196	-4.131473	-2.873906
H	-3.415077	-3.712085	-1.572045
C	0.930765	-2.314326	0.536849
S	-1.347913	-2.295487	-0.763041
C	0.000000	-1.435180	0.000000
H	1.841645	-1.993211	1.057554
C	0.000000	0.000000	0.000000
S	0.309721	0.844422	1.510732
C	0.847502	2.325108	0.727629
C	0.310602	0.853460	-1.064665
C	0.784173	2.159014	-0.678287
C	0.289451	0.790512	-2.486150
C	0.721927	1.979112	-3.106916
S	1.145464	3.152519	-1.965735
C	0.813355	2.216642	-4.559972
O	0.496884	1.338418	-5.350277
O	1.255274	3.421340	-5.004375
F	-0.087923	-0.257761	-3.246290
C	1.387494	3.754937	-6.334976
H	1.765978	4.793056	-6.370268
H	0.417095	3.693789	-6.875609
H	2.098820	3.081033	-6.861878
H	1.162229	3.189623	1.321510
H	0.648918	-9.146471	-0.608584
H	-0.237003	-9.150570	0.953830
H	0.532637	-1.444158	-0.939477
$end

$rem
JOBTYPE		SP
EXCHANGE	HF
CORRELATION	pRIMP2
BASIS		cc-pvtz
METHOD		rimp2
AUX_BASIS	rimp2-cc-pvtz
SOLVENT_METHOD	PCM
PURECART	11111
SYMMETRY	false
MEM_TOTAL	110000
SCF_CONVERGENCE = 6
THRESH=10
GUI = 2
$end

$solvent
dielectric 4.90
$end
--------------------------------------------------------------

             Standard Nuclear Orientation (Angstroms)
    I     Atom           X                Y                Z
 ----------------------------------------------------------------
    1      C       0.2080020000    -8.5197410000     0.1754320000
    2      C      -0.7221640000    -7.6359670000    -0.3520970000
    3      S       1.5634240000    -7.6517400000     0.9364580000
    4      C      -0.3868330000    -6.2618940000    -0.1603880000
    5      H      -1.6350310000    -7.9547380000    -0.8709050000
    6      C       0.8496370000    -6.0799850000     0.5536850000
    7      C       1.3579380000    -4.7983820000     0.8163720000
    8      C      -1.1497020000    -5.1535420000    -0.6275240000
    9      C      -0.6389410000    -3.8696260000    -0.3683990000
   10      C       0.5974090000    -3.6889270000     0.3489120000
   11      O      -2.3092600000    -5.4810750000    -1.2626670000
   12      O       2.5232960000    -4.4798710000     1.4533380000
   13      C       3.0369270000    -5.3560260000     2.4493200000
   14      H       3.8246320000    -4.7904960000     2.9825770000
   15      H       3.4972500000    -6.2685130000     2.0111550000
   16      H       2.2498070000    -5.6581870000     3.1735910000
   17      C      -2.9392260000    -4.5469990000    -2.1307930000
   18      H      -3.7307210000    -5.1075640000    -2.6632890000
   19      H      -2.2251960000    -4.1314730000    -2.8739060000
   20      H      -3.4150770000    -3.7120850000    -1.5720450000
   21      C       0.9307650000    -2.3143260000     0.5368490000
   22      S      -1.3479130000    -2.2954870000    -0.7630410000
   23      C       0.0000000000    -1.4351800000     0.0000000000
   24      H       1.8416450000    -1.9932110000     1.0575540000
   25      C       0.0000000000     0.0000000000     0.0000000000
   26      S       0.3097210000     0.8444220000     1.5107320000
   27      C       0.8475020000     2.3251080000     0.7276290000
   28      C       0.3106020000     0.8534600000    -1.0646650000
   29      C       0.7841730000     2.1590140000    -0.6782870000
   30      C       0.2894510000     0.7905120000    -2.4861500000
   31      C       0.7219270000     1.9791120000    -3.1069160000
   32      S       1.1454640000     3.1525190000    -1.9657350000
   33      C       0.8133550000     2.2166420000    -4.5599720000
   34      O       0.4968840000     1.3384180000    -5.3502770000
   35      O       1.2552740000     3.4213400000    -5.0043750000
   36      F      -0.0879230000    -0.2577610000    -3.2462900000
   37      C       1.3874940000     3.7549370000    -6.3349760000
   38      H       1.7659780000     4.7930560000    -6.3702680000
   39      H       0.4170950000     3.6937890000    -6.8756090000
   40      H       2.0988200000     3.0810330000    -6.8618780000
   41      H       1.1622290000     3.1896230000     1.3215100000
   42      H       0.6489180000    -9.1464710000    -0.6085840000
   43      H      -0.2370030000    -9.1505700000     0.9538300000
   44      H       0.5326370000    -1.4441580000    -0.9394770000
 ----------------------------------------------------------------

   11   -2755.3201103461      7.34e-07  Convergence criterion met
 Total energy in the final basis set =    -2755.3201103461
        RIMP2         total energy =     -2760.4143985681 a.u.

                    Orbital Energies (a.u.)
 --------------------------------------------------------------

 Alpha MOs
 -- Occupied --
-92.0153 -91.9970 -91.9753 -91.9584 -26.3374 -20.6132 -20.5873 -20.5862
-20.5516 -11.4118 -11.3790 -11.3135 -11.3090 -11.3066 -11.3000 -11.2982
-11.2951 -11.2892 -11.2839 -11.2834 -11.2830 -11.2824 -11.2812 -11.2733
-11.2726 -11.2586 -11.2580 -11.2497 -11.2371  -9.0137  -9.0009  -8.9776
 -8.9610  -6.6945  -6.6939  -6.6935  -6.6822  -6.6815  -6.6802  -6.6587
 -6.6578  -6.6565  -6.6422  -6.6413  -6.6403  -1.6506  -1.4730  -1.4099
 -1.4088  -1.3684  -1.2399  -1.2084  -1.1754  -1.1439  -1.0998  -1.0521
 -1.0456  -1.0299  -1.0082  -0.9976  -0.9729  -0.9594  -0.9484  -0.9410
 -0.8928  -0.8745  -0.8620  -0.8110  -0.7928  -0.7853  -0.7804  -0.7681
 -0.7624  -0.7333  -0.7192  -0.7188  -0.6977  -0.6924  -0.6875  -0.6795
 -0.6762  -0.6733  -0.6551  -0.6483  -0.6309  -0.6296  -0.6200  -0.6149
 -0.6104  -0.6074  -0.5965  -0.5941  -0.5812  -0.5650  -0.5579  -0.5560
 -0.5521  -0.5313  -0.5281  -0.5210  -0.5129  -0.5075  -0.5039  -0.5003
 -0.4882  -0.4856  -0.4776  -0.4680  -0.4626  -0.4622  -0.4600  -0.4458
 -0.4266  -0.4006  -0.3847  -0.3699  -0.3504  -0.2933  -0.2876  -0.2193

          Ground-State Mulliken Net Atomic Charges

     Atom                 Charge (a.u.)
  ----------------------------------------
      1 C                    -0.070280
      2 C                    -0.258500
      3 S                    -0.134811
      4 C                    -0.045622
      5 H                     0.193695
      6 C                    -0.051176
      7 C                     0.221098
      8 C                     0.231189
      9 C                    -0.081879
     10 C                    -0.048719
     11 O                    -0.335617
     12 O                    -0.343813
     13 C                    -0.082406
     14 H                     0.119772
     15 H                     0.092054
     16 H                     0.092704
     17 C                    -0.086753
     18 H                     0.122687
     19 H                     0.093714
     20 H                     0.089673
     21 C                    -0.258654
     22 S                    -0.069007
     23 C                     0.042291
     24 H                     0.209995
     25 C                    -0.060183
     26 S                     0.100172
     27 C                    -0.235756
     28 C                    -0.089125
     29 C                    -0.003320
     30 C                     0.360819
     31 C                    -0.133018
     32 S                     0.044949
     33 C                     0.458237
     34 O                    -0.448807
     35 O                    -0.297690
     36 F                    -0.212047
     37 C                    -0.054926
     38 H                     0.116862
     39 H                     0.084820
     40 H                     0.084665
     41 H                     0.214895
     42 H                     0.117693
     43 H                     0.115116
     44 H                     0.195007
  ----------------------------------------
  Sum of atomic charges =     0.000000

                    Cartesian Multipole Moments
 -----------------------------------------------------------------
    Charge (ESU x 10^10)
                -0.0000
    Dipole Moment (Debye)
         X       1.4463      Y       3.3842      Z       2.5463
       Tot       4.4753
    Quadrupole Moments (Debye-Ang)
        XX    -191.7034     XY       8.4046     YY    -175.4535
        XZ       5.3046     YZ      -8.6018     ZZ    -195.3479

 Total job time:  327.37s(wall), 10547.03s(cpu)
        *  Thank you very much for using Q-Chem.  Have a nice day.  *
