 Q-Chem 5.4, Q-Chem, Inc., Pleasanton, CA (2021)
 Q-Chem 5.4.0 for Intel X86 EM64T Linux

User input:
--------------------------------------------------------------
$molecule
0 1
C	0.174379	-8.519741	0.208886
C	-0.650052	-7.635967	-0.472151
S	1.377058	-7.651740	1.193717
C	-0.353105	-6.261894	-0.225125
H	-1.458961	-7.954738	-1.141594
C	0.740583	-6.079985	0.692811
C	1.195546	-4.798382	1.039773
C	-1.023267	-5.153542	-0.817634
C	-0.565262	-3.869626	-0.473754
C	0.527745	-3.688927	0.447350
O	-2.054917	-5.481075	-1.644483
O	2.232592	-4.479871	1.869424
C	2.565470	-5.356026	2.939466
H	3.248608	-4.790496	3.601405
H	3.094885	-6.268513	2.587892
H	1.664539	-5.658187	3.516052
C	-2.524564	-4.546999	-2.608813
H	-3.211568	-5.107564	-3.270661
H	-1.692342	-4.131473	-3.216646
H	-3.090211	-3.712085	-2.141184
C	0.823402	-2.314326	0.690319
S	-1.194935	-2.295487	-0.985511
C	-0.000000	-1.435180	-0.000000
H	1.630024	-1.993211	1.361286
C	0.000000	0.000000	0.000000
S	0.382139	0.814215	1.510732
C	1.046923	2.242395	0.727629
C	0.383804	0.823142	-1.064665
C	0.969360	2.082453	-0.678287
C	0.357247	0.762277	-2.486150
C	0.891671	1.908660	-3.106916
S	1.415865	3.040689	-1.965735
C	1.003453	2.137318	-4.559972
O	0.611644	1.290019	-5.350277
O	1.548687	3.298916	-5.004375
F	-0.110054	-0.249117	-3.246290
C	1.709479	3.619721	-6.334976
H	2.177001	4.620902	-6.370268
H	0.737443	3.643380	-6.875609
H	2.359363	2.886384	-6.861878
H	1.435800	3.076190	1.321510
H	0.744739	-9.146471	-0.486655
H	-0.399033	-9.150570	0.898184
H	0.687683	-1.444158	-0.832713
$end

$rem
JOBTYPE		SP
EXCHANGE	HF
CORRELATION	pRIMP2
BASIS		cc-pvtz
METHOD		rimp2
AUX_BASIS	rimp2-cc-pvtz
SOLVENT_METHOD	PCM
PURECART	11111
SYMMETRY	false
MEM_TOTAL	110000
SCF_CONVERGENCE = 6
THRESH=10
GUI = 2
$end

$solvent
dielectric 4.90
$end
--------------------------------------------------------------

             Standard Nuclear Orientation (Angstroms)
    I     Atom           X                Y                Z
 ----------------------------------------------------------------
    1      C       0.1743790000    -8.5197410000     0.2088860000
    2      C      -0.6500520000    -7.6359670000    -0.4721510000
    3      S       1.3770580000    -7.6517400000     1.1937170000
    4      C      -0.3531050000    -6.2618940000    -0.2251250000
    5      H      -1.4589610000    -7.9547380000    -1.1415940000
    6      C       0.7405830000    -6.0799850000     0.6928110000
    7      C       1.1955460000    -4.7983820000     1.0397730000
    8      C      -1.0232670000    -5.1535420000    -0.8176340000
    9      C      -0.5652620000    -3.8696260000    -0.4737540000
   10      C       0.5277450000    -3.6889270000     0.4473500000
   11      O      -2.0549170000    -5.4810750000    -1.6444830000
   12      O       2.2325920000    -4.4798710000     1.8694240000
   13      C       2.5654700000    -5.3560260000     2.9394660000
   14      H       3.2486080000    -4.7904960000     3.6014050000
   15      H       3.0948850000    -6.2685130000     2.5878920000
   16      H       1.6645390000    -5.6581870000     3.5160520000
   17      C      -2.5245640000    -4.5469990000    -2.6088130000
   18      H      -3.2115680000    -5.1075640000    -3.2706610000
   19      H      -1.6923420000    -4.1314730000    -3.2166460000
   20      H      -3.0902110000    -3.7120850000    -2.1411840000
   21      C       0.8234020000    -2.3143260000     0.6903190000
   22      S      -1.1949350000    -2.2954870000    -0.9855110000
   23      C       0.0000000000    -1.4351800000     0.0000000000
   24      H       1.6300240000    -1.9932110000     1.3612860000
   25      C       0.0000000000     0.0000000000     0.0000000000
   26      S       0.3821390000     0.8142150000     1.5107320000
   27      C       1.0469230000     2.2423950000     0.7276290000
   28      C       0.3838040000     0.8231420000    -1.0646650000
   29      C       0.9693600000     2.0824530000    -0.6782870000
   30      C       0.3572470000     0.7622770000    -2.4861500000
   31      C       0.8916710000     1.9086600000    -3.1069160000
   32      S       1.4158650000     3.0406890000    -1.9657350000
   33      C       1.0034530000     2.1373180000    -4.5599720000
   34      O       0.6116440000     1.2900190000    -5.3502770000
   35      O       1.5486870000     3.2989160000    -5.0043750000
   36      F      -0.1100540000    -0.2491170000    -3.2462900000
   37      C       1.7094790000     3.6197210000    -6.3349760000
   38      H       2.1770010000     4.6209020000    -6.3702680000
   39      H       0.7374430000     3.6433800000    -6.8756090000
   40      H       2.3593630000     2.8863840000    -6.8618780000
   41      H       1.4358000000     3.0761900000     1.3215100000
   42      H       0.7447390000    -9.1464710000    -0.4866550000
   43      H      -0.3990330000    -9.1505700000     0.8981840000
   44      H       0.6876830000    -1.4441580000    -0.8327130000
 ----------------------------------------------------------------

   11   -2755.3143137830      7.40e-07  Convergence criterion met
 Total energy in the final basis set =    -2755.3143137830
        RIMP2         total energy =     -2760.4105940852 a.u.

                    Orbital Energies (a.u.)
 --------------------------------------------------------------

 Alpha MOs
 -- Occupied --
-92.0164 -91.9968 -91.9746 -91.9584 -26.3361 -20.6129 -20.5874 -20.5860
-20.5510 -11.4113 -11.3786 -11.3144 -11.3090 -11.3064 -11.2989 -11.2984
-11.2940 -11.2890 -11.2832 -11.2831 -11.2824 -11.2821 -11.2818 -11.2734
-11.2727 -11.2586 -11.2580 -11.2497 -11.2370  -9.0148  -9.0008  -8.9771
 -8.9611  -6.6955  -6.6949  -6.6945  -6.6820  -6.6814  -6.6801  -6.6582
 -6.6573  -6.6560  -6.6423  -6.6414  -6.6403  -1.6496  -1.4726  -1.4099
 -1.4087  -1.3680  -1.2404  -1.2085  -1.1756  -1.1441  -1.0996  -1.0520
 -1.0456  -1.0300  -1.0079  -0.9977  -0.9728  -0.9593  -0.9484  -0.9408
 -0.8929  -0.8743  -0.8615  -0.8114  -0.7925  -0.7855  -0.7793  -0.7671
 -0.7619  -0.7331  -0.7190  -0.7180  -0.6978  -0.6927  -0.6872  -0.6793
 -0.6760  -0.6729  -0.6551  -0.6483  -0.6317  -0.6295  -0.6200  -0.6149
 -0.6104  -0.6071  -0.5967  -0.5940  -0.5796  -0.5651  -0.5583  -0.5570
 -0.5520  -0.5310  -0.5284  -0.5207  -0.5129  -0.5076  -0.5041  -0.5001
 -0.4880  -0.4854  -0.4777  -0.4673  -0.4621  -0.4619  -0.4599  -0.4459
 -0.4285  -0.3990  -0.3842  -0.3698  -0.3507  -0.2933  -0.2869  -0.2182

          Ground-State Mulliken Net Atomic Charges

     Atom                 Charge (a.u.)
  ----------------------------------------
      1 C                    -0.070158
      2 C                    -0.259023
      3 S                    -0.135106
      4 C                    -0.045375
      5 H                     0.193757
      6 C                    -0.051176
      7 C                     0.221366
      8 C                     0.230070
      9 C                    -0.079739
     10 C                    -0.045670
     11 O                    -0.335722
     12 O                    -0.343923
     13 C                    -0.082436
     14 H                     0.119781
     15 H                     0.092038
     16 H                     0.092770
     17 C                    -0.087042
     18 H                     0.122761
     19 H                     0.093654
     20 H                     0.089715
     21 C                    -0.274037
     22 S                    -0.068393
     23 C                     0.048086
     24 H                     0.209175
     25 C                    -0.049875
     26 S                     0.099454
     27 C                    -0.237577
     28 C                    -0.090936
     29 C                    -0.002757
     30 C                     0.356877
     31 C                    -0.135345
     32 S                     0.045697
     33 C                     0.458002
     34 O                    -0.449650
     35 O                    -0.297973
     36 F                    -0.209759
     37 C                    -0.054892
     38 H                     0.116792
     39 H                     0.084671
     40 H                     0.084591
     41 H                     0.214879
     42 H                     0.117636
     43 H                     0.115150
     44 H                     0.199642
  ----------------------------------------
  Sum of atomic charges =     0.000000

                    Cartesian Multipole Moments
 -----------------------------------------------------------------
    Charge (ESU x 10^10)
                -0.0000
    Dipole Moment (Debye)
         X       1.8086      Y       3.1714      Z       2.6017
       Tot       4.4831
    Quadrupole Moments (Debye-Ang)
        XX    -193.8165     XY       8.9492     YY    -176.8096
        XZ       3.4703     YZ      -7.4430     ZZ    -192.4121

 Total job time:  336.55s(wall), 10232.00s(cpu)
        *  Thank you very much for using Q-Chem.  Have a nice day.  *
