 Q-Chem 5.4, Q-Chem, Inc., Pleasanton, CA (2021)
 Q-Chem 5.4.0 for Intel X86 EM64T Linux

User input:
--------------------------------------------------------------
$molecule
0 1
C	0.272104	-8.519741	0.000687
C	-0.779533	-7.635967	0.194476
S	1.799596	-7.651740	-0.287581
C	-0.399427	-6.261894	0.125787
H	-1.812314	-7.954738	0.383826
C	1.006762	-6.079985	-0.121989
C	1.564994	-4.798382	-0.247488
C	-1.284087	-5.153542	0.258303
C	-0.726260	-3.869626	0.128493
C	0.681918	-3.688927	-0.116725
O	-2.580622	-5.481075	0.517104
O	2.867144	-4.479871	-0.508622
C	3.900814	-5.356026	-0.075811
H	4.847002	-4.790496	-0.173640
H	3.971794	-6.268513	-0.707354
H	3.763397	-5.658187	0.984963
C	-3.621225	-4.546999	0.257016
H	-4.569828	-5.107564	0.357864
H	-3.551910	-4.131473	-0.771211
H	-3.626592	-3.712085	0.990913
C	1.058088	-2.314326	-0.187034
S	-1.523035	-2.295487	0.281899
C	-0.000000	-1.435180	-0.000000
H	2.090565	-1.993211	-0.373653
C	0.000000	0.000000	0.000000
S	0.158383	0.885376	1.510732
C	0.430876	2.436951	0.727629
C	0.157682	0.894430	-1.064665
C	0.397351	2.262384	-0.678287
C	0.147783	0.828765	-2.486150
C	0.367291	2.074406	-3.106916
S	0.580633	3.303533	-1.965735
C	0.416083	2.324204	-4.559972
O	0.256921	1.404367	-5.350277
O	0.642094	3.587338	-5.004375
F	-0.041828	-0.269113	-3.246290
C	0.714377	3.938827	-6.334976
H	0.906844	5.026898	-6.370268
H	-0.230661	3.710099	-6.875609
H	1.531918	3.398681	-6.861878
H	0.590699	3.342984	1.321510
H	0.105910	-9.146471	-0.883319
H	0.431555	-9.150570	0.883019
H	-0.195861	-1.444158	-1.062054
$end

$rem
JOBTYPE		SP
EXCHANGE	HF
CORRELATION	pRIMP2
BASIS		cc-pvtz
METHOD		rimp2
AUX_BASIS	rimp2-cc-pvtz
SOLVENT_METHOD	PCM
PURECART	11111
SYMMETRY	false
MEM_TOTAL	110000
SCF_CONVERGENCE = 6
THRESH=10
GUI = 2
$end

$solvent
dielectric 4.90
$end
--------------------------------------------------------------

             Standard Nuclear Orientation (Angstroms)
    I     Atom           X                Y                Z
 ----------------------------------------------------------------
    1      C       0.2721040000    -8.5197410000     0.0006870000
    2      C      -0.7795330000    -7.6359670000     0.1944760000
    3      S       1.7995960000    -7.6517400000    -0.2875810000
    4      C      -0.3994270000    -6.2618940000     0.1257870000
    5      H      -1.8123140000    -7.9547380000     0.3838260000
    6      C       1.0067620000    -6.0799850000    -0.1219890000
    7      C       1.5649940000    -4.7983820000    -0.2474880000
    8      C      -1.2840870000    -5.1535420000     0.2583030000
    9      C      -0.7262600000    -3.8696260000     0.1284930000
   10      C       0.6819180000    -3.6889270000    -0.1167250000
   11      O      -2.5806220000    -5.4810750000     0.5171040000
   12      O       2.8671440000    -4.4798710000    -0.5086220000
   13      C       3.9008140000    -5.3560260000    -0.0758110000
   14      H       4.8470020000    -4.7904960000    -0.1736400000
   15      H       3.9717940000    -6.2685130000    -0.7073540000
   16      H       3.7633970000    -5.6581870000     0.9849630000
   17      C      -3.6212250000    -4.5469990000     0.2570160000
   18      H      -4.5698280000    -5.1075640000     0.3578640000
   19      H      -3.5519100000    -4.1314730000    -0.7712110000
   20      H      -3.6265920000    -3.7120850000     0.9909130000
   21      C       1.0580880000    -2.3143260000    -0.1870340000
   22      S      -1.5230350000    -2.2954870000     0.2818990000
   23      C       0.0000000000    -1.4351800000     0.0000000000
   24      H       2.0905650000    -1.9932110000    -0.3736530000
   25      C       0.0000000000     0.0000000000     0.0000000000
   26      S       0.1583830000     0.8853760000     1.5107320000
   27      C       0.4308760000     2.4369510000     0.7276290000
   28      C       0.1576820000     0.8944300000    -1.0646650000
   29      C       0.3973510000     2.2623840000    -0.6782870000
   30      C       0.1477830000     0.8287650000    -2.4861500000
   31      C       0.3672910000     2.0744060000    -3.1069160000
   32      S       0.5806330000     3.3035330000    -1.9657350000
   33      C       0.4160830000     2.3242040000    -4.5599720000
   34      O       0.2569210000     1.4043670000    -5.3502770000
   35      O       0.6420940000     3.5873380000    -5.0043750000
   36      F      -0.0418280000    -0.2691130000    -3.2462900000
   37      C       0.7143770000     3.9388270000    -6.3349760000
   38      H       0.9068440000     5.0268980000    -6.3702680000
   39      H      -0.2306610000     3.7100990000    -6.8756090000
   40      H       1.5319180000     3.3986810000    -6.8618780000
   41      H       0.5906990000     3.3429840000     1.3215100000
   42      H       0.1059100000    -9.1464710000    -0.8833190000
   43      H       0.4315550000    -9.1505700000     0.8830190000
   44      H      -0.1958610000    -1.4441580000    -1.0620540000
 ----------------------------------------------------------------

   11   -2755.3277045868      6.93e-07  Convergence criterion met
 Total energy in the final basis set =    -2755.3277045868
        RIMP2         total energy =     -2760.4192492465 a.u.

                    Orbital Energies (a.u.)
 --------------------------------------------------------------

 Alpha MOs
 -- Occupied --
-92.0128 -91.9970 -91.9772 -91.9580 -26.3391 -20.6136 -20.5870 -20.5866
-20.5524 -11.4124 -11.3797 -11.3123 -11.3089 -11.3070 -11.3013 -11.2981
-11.2969 -11.2894 -11.2870 -11.2841 -11.2827 -11.2826 -11.2804 -11.2728
-11.2726 -11.2580 -11.2578 -11.2494 -11.2368  -9.0115  -9.0010  -8.9794
 -8.9606  -6.6922  -6.6916  -6.6912  -6.6823  -6.6816  -6.6803  -6.6605
 -6.6596  -6.6583  -6.6418  -6.6409  -6.6399  -1.6522  -1.4735  -1.4101
 -1.4087  -1.3690  -1.2393  -1.2083  -1.1749  -1.1435  -1.0999  -1.0522
 -1.0457  -1.0297  -1.0089  -0.9975  -0.9730  -0.9595  -0.9486  -0.9410
 -0.8931  -0.8746  -0.8627  -0.8091  -0.7943  -0.7849  -0.7809  -0.7712
 -0.7624  -0.7338  -0.7202  -0.7196  -0.6978  -0.6924  -0.6875  -0.6799
 -0.6762  -0.6739  -0.6553  -0.6483  -0.6325  -0.6278  -0.6198  -0.6147
 -0.6110  -0.6079  -0.5967  -0.5932  -0.5837  -0.5659  -0.5578  -0.5537
 -0.5485  -0.5335  -0.5290  -0.5224  -0.5127  -0.5074  -0.5030  -0.5015
 -0.4874  -0.4854  -0.4765  -0.4697  -0.4631  -0.4626  -0.4604  -0.4459
 -0.4219  -0.4048  -0.3853  -0.3699  -0.3501  -0.2931  -0.2891  -0.2208

          Ground-State Mulliken Net Atomic Charges

     Atom                 Charge (a.u.)
  ----------------------------------------
      1 C                    -0.070314
      2 C                    -0.259359
      3 S                    -0.135258
      4 C                    -0.044708
      5 H                     0.193424
      6 C                    -0.052349
      7 C                     0.224654
      8 C                     0.229819
      9 C                    -0.085466
     10 C                    -0.056492
     11 O                    -0.335307
     12 O                    -0.343253
     13 C                    -0.082526
     14 H                     0.119946
     15 H                     0.092131
     16 H                     0.092517
     17 C                    -0.086454
     18 H                     0.122848
     19 H                     0.092963
     20 H                     0.090036
     21 C                    -0.238028
     22 S                    -0.069463
     23 C                     0.054574
     24 H                     0.205976
     25 C                    -0.089997
     26 S                     0.098933
     27 C                    -0.229065
     28 C                    -0.089129
     29 C                    -0.007178
     30 C                     0.382107
     31 C                    -0.132529
     32 S                     0.042227
     33 C                     0.459582
     34 O                    -0.447909
     35 O                    -0.297316
     36 F                    -0.214845
     37 C                    -0.055074
     38 H                     0.116993
     39 H                     0.084952
     40 H                     0.084874
     41 H                     0.215343
     42 H                     0.117510
     43 H                     0.114946
     44 H                     0.185664
  ----------------------------------------
  Sum of atomic charges =     0.000000

                    Cartesian Multipole Moments
 -----------------------------------------------------------------
    Charge (ESU x 10^10)
                -0.0000
    Dipole Moment (Debye)
         X       0.4527      Y       3.7436      Z       2.4866
       Tot       4.5170
    Quadrupole Moments (Debye-Ang)
        XX    -182.9437     XY       6.5498     YY    -174.3405
        XZ       0.8092     YZ     -11.8423     ZZ    -205.3023

 Total job time:  332.91s(wall), 10600.02s(cpu)
        *  Thank you very much for using Q-Chem.  Have a nice day.  *
