 Q-Chem 5.4, Q-Chem, Inc., Pleasanton, CA (2021)
 Q-Chem 5.4.0 for Intel X86 EM64T Linux

User input:
--------------------------------------------------------------
$molecule
0 1
C	0.268090	-8.519741	-0.046574
C	-0.733920	-7.635967	0.326886
S	1.722318	-7.651740	-0.595708
C	-0.371516	-6.261894	0.193236
H	-1.718130	-7.954738	0.692700
C	0.970283	-6.079985	-0.294958
C	1.498243	-4.798382	-0.515487
C	-1.219725	-5.153542	0.477358
C	-0.692914	-3.869626	0.252655
C	0.651289	-3.688927	-0.233366
O	-2.451623	-5.481075	0.957369
O	2.735264	-4.479871	-0.998769
C	3.828387	-5.356026	-0.752029
H	4.743213	-4.790496	-1.012675
H	3.788623	-6.268513	-1.386303
H	3.877260	-5.658187	0.316492
C	-3.521580	-4.546999	0.881930
H	-4.438260	-5.107564	1.145969
H	-3.631868	-4.131473	-0.142712
H	-3.399425	-3.712085	1.605610
C	1.009535	-2.314326	-0.367928
S	-1.450945	-2.295487	0.542088
C	0.000000	-1.435180	0.000000
H	1.993920	-1.993211	-0.730999
C	0.000000	0.000000	0.000000
S	0.002233	0.899428	1.510732
C	0.001157	2.474749	0.727629
C	-0.000030	0.908223	-1.064665
C	-0.001545	2.297013	-0.678287
C	0.001624	0.841837	-2.486150
C	0.001494	2.106670	-3.106916
S	-0.001841	3.354171	-1.965735
C	0.006168	2.361146	-4.559972
O	0.009152	1.427646	-5.350277
O	0.009405	3.644337	-5.004375
F	0.005539	-0.272288	-3.246290
C	0.019554	4.003038	-6.334976
H	0.020155	5.108000	-6.370268
H	-0.871409	3.613681	-6.875609
H	0.918470	3.613062	-6.861878
H	0.001222	3.394771	1.321510
H	-0.049086	-9.146471	-0.888291
H	0.578334	-9.150570	0.794665
H	-0.377309	-1.444158	-1.011908
$end

$rem
JOBTYPE		SP
EXCHANGE	HF
CORRELATION	pRIMP2
BASIS		cc-pvtz
METHOD		rimp2
AUX_BASIS	rimp2-cc-pvtz
SOLVENT_METHOD	PCM
PURECART	11111
SYMMETRY	false
MEM_TOTAL	110000
SCF_CONVERGENCE = 6
THRESH=10
GUI = 2
$end

$solvent
dielectric 4.90
$end
--------------------------------------------------------------

             Standard Nuclear Orientation (Angstroms)
    I     Atom           X                Y                Z
 ----------------------------------------------------------------
    1      C       0.2680900000    -8.5197410000    -0.0465740000
    2      C      -0.7339200000    -7.6359670000     0.3268860000
    3      S       1.7223180000    -7.6517400000    -0.5957080000
    4      C      -0.3715160000    -6.2618940000     0.1932360000
    5      H      -1.7181300000    -7.9547380000     0.6927000000
    6      C       0.9702830000    -6.0799850000    -0.2949580000
    7      C       1.4982430000    -4.7983820000    -0.5154870000
    8      C      -1.2197250000    -5.1535420000     0.4773580000
    9      C      -0.6929140000    -3.8696260000     0.2526550000
   10      C       0.6512890000    -3.6889270000    -0.2333660000
   11      O      -2.4516230000    -5.4810750000     0.9573690000
   12      O       2.7352640000    -4.4798710000    -0.9987690000
   13      C       3.8283870000    -5.3560260000    -0.7520290000
   14      H       4.7432130000    -4.7904960000    -1.0126750000
   15      H       3.7886230000    -6.2685130000    -1.3863030000
   16      H       3.8772600000    -5.6581870000     0.3164920000
   17      C      -3.5215800000    -4.5469990000     0.8819300000
   18      H      -4.4382600000    -5.1075640000     1.1459690000
   19      H      -3.6318680000    -4.1314730000    -0.1427120000
   20      H      -3.3994250000    -3.7120850000     1.6056100000
   21      C       1.0095350000    -2.3143260000    -0.3679280000
   22      S      -1.4509450000    -2.2954870000     0.5420880000
   23      C       0.0000000000    -1.4351800000     0.0000000000
   24      H       1.9939200000    -1.9932110000    -0.7309990000
   25      C       0.0000000000     0.0000000000     0.0000000000
   26      S       0.0022330000     0.8994280000     1.5107320000
   27      C       0.0011570000     2.4747490000     0.7276290000
   28      C      -0.0000300000     0.9082230000    -1.0646650000
   29      C      -0.0015450000     2.2970130000    -0.6782870000
   30      C       0.0016240000     0.8418370000    -2.4861500000
   31      C       0.0014940000     2.1066700000    -3.1069160000
   32      S      -0.0018410000     3.3541710000    -1.9657350000
   33      C       0.0061680000     2.3611460000    -4.5599720000
   34      O       0.0091520000     1.4276460000    -5.3502770000
   35      O       0.0094050000     3.6443370000    -5.0043750000
   36      F       0.0055390000    -0.2722880000    -3.2462900000
   37      C       0.0195540000     4.0030380000    -6.3349760000
   38      H       0.0201550000     5.1080000000    -6.3702680000
   39      H      -0.8714090000     3.6136810000    -6.8756090000
   40      H       0.9184700000     3.6130620000    -6.8618780000
   41      H       0.0012220000     3.3947710000     1.3215100000
   42      H      -0.0490860000    -9.1464710000    -0.8882910000
   43      H       0.5783340000    -9.1505700000     0.7946650000
   44      H      -0.3773090000    -1.4441580000    -1.0119080000
 ----------------------------------------------------------------

   11   -2755.3291329237      7.09e-07  Convergence criterion met
 Total energy in the final basis set =    -2755.3291329237
        RIMP2         total energy =     -2760.4199584675 a.u.

                    Orbital Energies (a.u.)
 --------------------------------------------------------------

 Alpha MOs
 -- Occupied --
-92.0135 -91.9963 -91.9790 -91.9581 -26.3389 -20.6133 -20.5872 -20.5870
-20.5517 -11.4119 -11.3796 -11.3151 -11.3090 -11.3078 -11.2999 -11.2977
-11.2945 -11.2892 -11.2854 -11.2846 -11.2833 -11.2826 -11.2817 -11.2730
-11.2728 -11.2583 -11.2581 -11.2496 -11.2372  -9.0120  -9.0003  -8.9811
 -8.9607  -6.6928  -6.6922  -6.6918  -6.6816  -6.6809  -6.6796  -6.6623
 -6.6614  -6.6601  -6.6420  -6.6411  -6.6400  -1.6519  -1.4731  -1.4106
 -1.4088  -1.3686  -1.2390  -1.2090  -1.1752  -1.1435  -1.1002  -1.0519
 -1.0462  -1.0294  -1.0093  -0.9980  -0.9727  -0.9599  -0.9488  -0.9409
 -0.8937  -0.8744  -0.8629  -0.8088  -0.7943  -0.7854  -0.7800  -0.7717
 -0.7625  -0.7339  -0.7199  -0.7196  -0.6980  -0.6928  -0.6875  -0.6797
 -0.6763  -0.6735  -0.6557  -0.6485  -0.6335  -0.6279  -0.6200  -0.6148
 -0.6113  -0.6075  -0.5959  -0.5931  -0.5832  -0.5664  -0.5582  -0.5532
 -0.5477  -0.5353  -0.5296  -0.5227  -0.5129  -0.5076  -0.5032  -0.5021
 -0.4868  -0.4853  -0.4767  -0.4706  -0.4627  -0.4623  -0.4611  -0.4464
 -0.4237  -0.4038  -0.3858  -0.3702  -0.3502  -0.2929  -0.2888  -0.2207

          Ground-State Mulliken Net Atomic Charges

     Atom                 Charge (a.u.)
  ----------------------------------------
      1 C                    -0.070291
      2 C                    -0.258387
      3 S                    -0.134965
      4 C                    -0.044277
      5 H                     0.193469
      6 C                    -0.052227
      7 C                     0.226719
      8 C                     0.227535
      9 C                    -0.079198
     10 C                    -0.057702
     11 O                    -0.334926
     12 O                    -0.343066
     13 C                    -0.082609
     14 H                     0.120103
     15 H                     0.092202
     16 H                     0.092490
     17 C                    -0.086742
     18 H                     0.123227
     19 H                     0.093072
     20 H                     0.090107
     21 C                    -0.244524
     22 S                    -0.069891
     23 C                     0.058563
     24 H                     0.205394
     25 C                    -0.095942
     26 S                     0.100120
     27 C                    -0.235936
     28 C                    -0.077995
     29 C                    -0.007432
     30 C                     0.384567
     31 C                    -0.136421
     32 S                     0.039671
     33 C                     0.459784
     34 O                    -0.449148
     35 O                    -0.297488
     36 F                    -0.215152
     37 C                    -0.055104
     38 H                     0.116931
     39 H                     0.084858
     40 H                     0.084738
     41 H                     0.215037
     42 H                     0.117570
     43 H                     0.115063
     44 H                     0.188202
  ----------------------------------------
  Sum of atomic charges =     0.000000

                    Cartesian Multipole Moments
 -----------------------------------------------------------------
    Charge (ESU x 10^10)
                -0.0000
    Dipole Moment (Debye)
         X      -0.3220      Y       3.5120      Z       2.6166
       Tot       4.3914
    Quadrupole Moments (Debye-Ang)
        XX    -182.8981     XY       3.7271     YY    -173.5703
        XZ      -0.4322     YZ     -12.5244     ZZ    -206.0782

 Total job time:  331.16s(wall), 10668.84s(cpu)
        *  Thank you very much for using Q-Chem.  Have a nice day.  *
