 Q-Chem 5.4, Q-Chem, Inc., Pleasanton, CA (2021)
 Q-Chem 5.4.0 for Intel X86 EM64T Linux

User input:
--------------------------------------------------------------
$molecule
0 1
C	0.268090	-8.519741	-0.046574
C	-0.733920	-7.635967	0.326886
S	1.722318	-7.651740	-0.595708
C	-0.371516	-6.261894	0.193236
H	-1.718130	-7.954738	0.692700
C	0.970283	-6.079985	-0.294958
C	1.498243	-4.798382	-0.515487
C	-1.219725	-5.153542	0.477358
C	-0.692914	-3.869626	0.252655
C	0.651289	-3.688927	-0.233366
O	-2.451623	-5.481075	0.957369
O	2.735264	-4.479871	-0.998769
C	3.828387	-5.356026	-0.752029
H	4.743213	-4.790496	-1.012675
H	3.788623	-6.268513	-1.386303
H	3.877260	-5.658187	0.316492
C	-3.521580	-4.546999	0.881930
H	-4.438260	-5.107564	1.145969
H	-3.631868	-4.131473	-0.142712
H	-3.399425	-3.712085	1.605610
C	1.009535	-2.314326	-0.367928
S	-1.450945	-2.295487	0.542088
C	0.000000	-1.435180	0.000000
H	1.993920	-1.993211	-0.730999
C	0.000000	0.000000	0.000000
S	0.234946	0.868203	1.510732
C	0.641630	2.390125	0.727629
C	0.235036	0.877284	-1.064665
C	0.593019	2.219143	-0.678287
C	0.219452	0.812732	-2.486150
C	0.546689	2.034501	-3.106916
S	0.866345	3.240357	-1.965735
C	0.617067	2.279095	-4.559972
O	0.378342	1.376631	-5.350277
O	0.952308	3.517725	-5.004375
F	-0.065123	-0.264443	-3.246290
C	1.054950	3.861577	-6.334976
H	1.341516	4.928732	-6.370268
H	0.093573	3.716085	-6.875609
H	1.822303	3.252232	-6.861878
H	0.879812	3.278780	1.321510
H	-0.049086	-9.146471	-0.888291
H	0.578334	-9.150570	0.794665
H	-0.377309	-1.444158	-1.011908
$end

$rem
JOBTYPE		SP
EXCHANGE	HF
CORRELATION	pRIMP2
BASIS		cc-pvtz
METHOD		rimp2
AUX_BASIS	rimp2-cc-pvtz
SOLVENT_METHOD	PCM
PURECART	11111
SYMMETRY	false
MEM_TOTAL	110000
SCF_CONVERGENCE = 6
THRESH=10
GUI = 2
$end

$solvent
dielectric 4.90
$end
--------------------------------------------------------------

             Standard Nuclear Orientation (Angstroms)
    I     Atom           X                Y                Z
 ----------------------------------------------------------------
    1      C       0.2680900000    -8.5197410000    -0.0465740000
    2      C      -0.7339200000    -7.6359670000     0.3268860000
    3      S       1.7223180000    -7.6517400000    -0.5957080000
    4      C      -0.3715160000    -6.2618940000     0.1932360000
    5      H      -1.7181300000    -7.9547380000     0.6927000000
    6      C       0.9702830000    -6.0799850000    -0.2949580000
    7      C       1.4982430000    -4.7983820000    -0.5154870000
    8      C      -1.2197250000    -5.1535420000     0.4773580000
    9      C      -0.6929140000    -3.8696260000     0.2526550000
   10      C       0.6512890000    -3.6889270000    -0.2333660000
   11      O      -2.4516230000    -5.4810750000     0.9573690000
   12      O       2.7352640000    -4.4798710000    -0.9987690000
   13      C       3.8283870000    -5.3560260000    -0.7520290000
   14      H       4.7432130000    -4.7904960000    -1.0126750000
   15      H       3.7886230000    -6.2685130000    -1.3863030000
   16      H       3.8772600000    -5.6581870000     0.3164920000
   17      C      -3.5215800000    -4.5469990000     0.8819300000
   18      H      -4.4382600000    -5.1075640000     1.1459690000
   19      H      -3.6318680000    -4.1314730000    -0.1427120000
   20      H      -3.3994250000    -3.7120850000     1.6056100000
   21      C       1.0095350000    -2.3143260000    -0.3679280000
   22      S      -1.4509450000    -2.2954870000     0.5420880000
   23      C       0.0000000000    -1.4351800000     0.0000000000
   24      H       1.9939200000    -1.9932110000    -0.7309990000
   25      C       0.0000000000     0.0000000000     0.0000000000
   26      S       0.2349460000     0.8682030000     1.5107320000
   27      C       0.6416300000     2.3901250000     0.7276290000
   28      C       0.2350360000     0.8772840000    -1.0646650000
   29      C       0.5930190000     2.2191430000    -0.6782870000
   30      C       0.2194520000     0.8127320000    -2.4861500000
   31      C       0.5466890000     2.0345010000    -3.1069160000
   32      S       0.8663450000     3.2403570000    -1.9657350000
   33      C       0.6170670000     2.2790950000    -4.5599720000
   34      O       0.3783420000     1.3766310000    -5.3502770000
   35      O       0.9523080000     3.5177250000    -5.0043750000
   36      F      -0.0651230000    -0.2644430000    -3.2462900000
   37      C       1.0549500000     3.8615770000    -6.3349760000
   38      H       1.3415160000     4.9287320000    -6.3702680000
   39      H       0.0935730000     3.7160850000    -6.8756090000
   40      H       1.8223030000     3.2522320000    -6.8618780000
   41      H       0.8798120000     3.2787800000     1.3215100000
   42      H      -0.0490860000    -9.1464710000    -0.8882910000
   43      H       0.5783340000    -9.1505700000     0.7946650000
   44      H      -0.3773090000    -1.4441580000    -1.0119080000
 ----------------------------------------------------------------

   11   -2755.3254929779      7.05e-07  Convergence criterion met
 Total energy in the final basis set =    -2755.3254929779
        RIMP2         total energy =     -2760.4179170896 a.u.

                    Orbital Energies (a.u.)
 --------------------------------------------------------------

 Alpha MOs
 -- Occupied --
-92.0129 -91.9971 -91.9776 -91.9581 -26.3389 -20.6136 -20.5870 -20.5869
-20.5522 -11.4124 -11.3797 -11.3121 -11.3090 -11.3072 -11.3011 -11.2983
-11.2970 -11.2893 -11.2868 -11.2843 -11.2828 -11.2826 -11.2808 -11.2729
-11.2728 -11.2581 -11.2581 -11.2495 -11.2369  -9.0116  -9.0011  -8.9798
 -8.9607  -6.6923  -6.6917  -6.6913  -6.6824  -6.6817  -6.6804  -6.6609
 -6.6600  -6.6588  -6.6419  -6.6410  -6.6400  -1.6519  -1.4734  -1.4103
 -1.4087  -1.3689  -1.2396  -1.2086  -1.1751  -1.1437  -1.1000  -1.0523
 -1.0459  -1.0298  -1.0089  -0.9977  -0.9729  -0.9596  -0.9487  -0.9411
 -0.8934  -0.8746  -0.8626  -0.8087  -0.7945  -0.7852  -0.7804  -0.7718
 -0.7622  -0.7338  -0.7202  -0.7194  -0.6979  -0.6926  -0.6873  -0.6799
 -0.6761  -0.6738  -0.6555  -0.6484  -0.6336  -0.6275  -0.6199  -0.6148
 -0.6111  -0.6079  -0.5967  -0.5935  -0.5833  -0.5665  -0.5580  -0.5537
 -0.5476  -0.5338  -0.5294  -0.5227  -0.5127  -0.5074  -0.5033  -0.5019
 -0.4873  -0.4852  -0.4759  -0.4700  -0.4629  -0.4625  -0.4606  -0.4461
 -0.4228  -0.4040  -0.3854  -0.3700  -0.3503  -0.2935  -0.2889  -0.2204

          Ground-State Mulliken Net Atomic Charges

     Atom                 Charge (a.u.)
  ----------------------------------------
      1 C                    -0.070301
      2 C                    -0.259339
      3 S                    -0.135034
      4 C                    -0.045637
      5 H                     0.193386
      6 C                    -0.052421
      7 C                     0.222491
      8 C                     0.231321
      9 C                    -0.085133
     10 C                    -0.047171
     11 O                    -0.335223
     12 O                    -0.343116
     13 C                    -0.082559
     14 H                     0.119999
     15 H                     0.092164
     16 H                     0.092510
     17 C                    -0.086411
     18 H                     0.123084
     19 H                     0.092829
     20 H                     0.089986
     21 C                    -0.255780
     22 S                    -0.069825
     23 C                     0.061815
     24 H                     0.207175
     25 C                    -0.080944
     26 S                     0.099902
     27 C                    -0.228833
     28 C                    -0.104030
     29 C                    -0.005863
     30 C                     0.387708
     31 C                    -0.136887
     32 S                     0.042988
     33 C                     0.459987
     34 O                    -0.448026
     35 O                    -0.297438
     36 F                    -0.214931
     37 C                    -0.055036
     38 H                     0.116953
     39 H                     0.084969
     40 H                     0.084846
     41 H                     0.215262
     42 H                     0.117486
     43 H                     0.114977
     44 H                     0.188101
  ----------------------------------------
  Sum of atomic charges =     0.000000

                    Cartesian Multipole Moments
 -----------------------------------------------------------------
    Charge (ESU x 10^10)
                -0.0000
    Dipole Moment (Debye)
         X       0.6809      Y       3.6385      Z       2.5321
       Tot       4.4848
    Quadrupole Moments (Debye-Ang)
        XX    -181.8435     XY       7.6989     YY    -174.7232
        XZ      -3.3788     YZ     -12.2288     ZZ    -205.7896

 Total job time:  355.11s(wall), 12319.36s(cpu)
        *  Thank you very much for using Q-Chem.  Have a nice day.  *
