 Q-Chem 5.4, Q-Chem, Inc., Pleasanton, CA (2021)
 Q-Chem 5.4.0 for Intel X86 EM64T Linux

User input:
--------------------------------------------------------------
$molecule
0 1
C	0.208002	-8.519741	0.175432
C	-0.722164	-7.635967	-0.352097
S	1.563424	-7.651740	0.936458
C	-0.386833	-6.261894	-0.160388
H	-1.635031	-7.954738	-0.870905
C	0.849637	-6.079985	0.553685
C	1.357938	-4.798382	0.816372
C	-1.149702	-5.153542	-0.627524
C	-0.638941	-3.869626	-0.368399
C	0.597409	-3.688927	0.348912
O	-2.309260	-5.481075	-1.262667
O	2.523296	-4.479871	1.453338
C	3.036927	-5.356026	2.449320
H	3.824632	-4.790496	2.982577
H	3.497250	-6.268513	2.011155
H	2.249807	-5.658187	3.173591
C	-2.939226	-4.546999	-2.130793
H	-3.730721	-5.107564	-2.663289
H	-2.225196	-4.131473	-2.873906
H	-3.415077	-3.712085	-1.572045
C	0.930765	-2.314326	0.536849
S	-1.347913	-2.295487	-0.763041
C	-0.000000	-1.435180	-0.000000
H	1.841645	-1.993211	1.057554
C	0.000000	0.000000	0.000000
S	0.382139	0.814215	1.510732
C	1.046923	2.242395	0.727629
C	0.383804	0.823142	-1.064665
C	0.969360	2.082453	-0.678287
C	0.357247	0.762277	-2.486150
C	0.891671	1.908660	-3.106916
S	1.415865	3.040689	-1.965735
C	1.003453	2.137318	-4.559972
O	0.611644	1.290019	-5.350277
O	1.548687	3.298916	-5.004375
F	-0.110054	-0.249117	-3.246290
C	1.709479	3.619721	-6.334976
H	2.177001	4.620902	-6.370268
H	0.737443	3.643380	-6.875609
H	2.359363	2.886384	-6.861878
H	1.435800	3.076190	1.321510
H	0.648918	-9.146471	-0.608584
H	-0.237003	-9.150570	0.953830
H	0.532637	-1.444158	-0.939477
$end

$rem
JOBTYPE		SP
EXCHANGE	HF
CORRELATION	pRIMP2
BASIS		cc-pvtz
METHOD		rimp2
AUX_BASIS	rimp2-cc-pvtz
SOLVENT_METHOD	PCM
PURECART	11111
SYMMETRY	false
MEM_TOTAL	110000
SCF_CONVERGENCE = 6
THRESH=10
GUI = 2
$end

$solvent
dielectric 4.90
$end
--------------------------------------------------------------

             Standard Nuclear Orientation (Angstroms)
    I     Atom           X                Y                Z
 ----------------------------------------------------------------
    1      C       0.2080020000    -8.5197410000     0.1754320000
    2      C      -0.7221640000    -7.6359670000    -0.3520970000
    3      S       1.5634240000    -7.6517400000     0.9364580000
    4      C      -0.3868330000    -6.2618940000    -0.1603880000
    5      H      -1.6350310000    -7.9547380000    -0.8709050000
    6      C       0.8496370000    -6.0799850000     0.5536850000
    7      C       1.3579380000    -4.7983820000     0.8163720000
    8      C      -1.1497020000    -5.1535420000    -0.6275240000
    9      C      -0.6389410000    -3.8696260000    -0.3683990000
   10      C       0.5974090000    -3.6889270000     0.3489120000
   11      O      -2.3092600000    -5.4810750000    -1.2626670000
   12      O       2.5232960000    -4.4798710000     1.4533380000
   13      C       3.0369270000    -5.3560260000     2.4493200000
   14      H       3.8246320000    -4.7904960000     2.9825770000
   15      H       3.4972500000    -6.2685130000     2.0111550000
   16      H       2.2498070000    -5.6581870000     3.1735910000
   17      C      -2.9392260000    -4.5469990000    -2.1307930000
   18      H      -3.7307210000    -5.1075640000    -2.6632890000
   19      H      -2.2251960000    -4.1314730000    -2.8739060000
   20      H      -3.4150770000    -3.7120850000    -1.5720450000
   21      C       0.9307650000    -2.3143260000     0.5368490000
   22      S      -1.3479130000    -2.2954870000    -0.7630410000
   23      C       0.0000000000    -1.4351800000     0.0000000000
   24      H       1.8416450000    -1.9932110000     1.0575540000
   25      C       0.0000000000     0.0000000000     0.0000000000
   26      S       0.3821390000     0.8142150000     1.5107320000
   27      C       1.0469230000     2.2423950000     0.7276290000
   28      C       0.3838040000     0.8231420000    -1.0646650000
   29      C       0.9693600000     2.0824530000    -0.6782870000
   30      C       0.3572470000     0.7622770000    -2.4861500000
   31      C       0.8916710000     1.9086600000    -3.1069160000
   32      S       1.4158650000     3.0406890000    -1.9657350000
   33      C       1.0034530000     2.1373180000    -4.5599720000
   34      O       0.6116440000     1.2900190000    -5.3502770000
   35      O       1.5486870000     3.2989160000    -5.0043750000
   36      F      -0.1100540000    -0.2491170000    -3.2462900000
   37      C       1.7094790000     3.6197210000    -6.3349760000
   38      H       2.1770010000     4.6209020000    -6.3702680000
   39      H       0.7374430000     3.6433800000    -6.8756090000
   40      H       2.3593630000     2.8863840000    -6.8618780000
   41      H       1.4358000000     3.0761900000     1.3215100000
   42      H       0.6489180000    -9.1464710000    -0.6085840000
   43      H      -0.2370030000    -9.1505700000     0.9538300000
   44      H       0.5326370000    -1.4441580000    -0.9394770000
 ----------------------------------------------------------------

   11   -2755.3153178231      7.34e-07  Convergence criterion met
 Total energy in the final basis set =    -2755.3153178231
        RIMP2         total energy =     -2760.4112814595 a.u.

                    Orbital Energies (a.u.)
 --------------------------------------------------------------

 Alpha MOs
 -- Occupied --
-92.0157 -91.9977 -91.9743 -91.9581 -26.3373 -20.6135 -20.5872 -20.5858
-20.5521 -11.4122 -11.3788 -11.3112 -11.3089 -11.3060 -11.3010 -11.2986
-11.2969 -11.2893 -11.2844 -11.2831 -11.2829 -11.2820 -11.2805 -11.2730
-11.2725 -11.2581 -11.2577 -11.2494 -11.2365  -9.0141  -9.0017  -8.9767
 -8.9607  -6.6948  -6.6942  -6.6938  -6.6829  -6.6823  -6.6809  -6.6579
 -6.6569  -6.6556  -6.6420  -6.6410  -6.6400  -1.6505  -1.4733  -1.4097
 -1.4085  -1.3688  -1.2406  -1.2081  -1.1752  -1.1442  -1.0995  -1.0525
 -1.0453  -1.0303  -1.0079  -0.9972  -0.9732  -0.9592  -0.9483  -0.9409
 -0.8925  -0.8747  -0.8615  -0.8110  -0.7930  -0.7851  -0.7804  -0.7680
 -0.7620  -0.7331  -0.7193  -0.7189  -0.6977  -0.6923  -0.6877  -0.6798
 -0.6761  -0.6736  -0.6549  -0.6481  -0.6306  -0.6294  -0.6198  -0.6148
 -0.6103  -0.6078  -0.5970  -0.5944  -0.5806  -0.5648  -0.5576  -0.5556
 -0.5525  -0.5311  -0.5280  -0.5209  -0.5127  -0.5074  -0.5040  -0.5002
 -0.4884  -0.4858  -0.4770  -0.4675  -0.4630  -0.4624  -0.4596  -0.4455
 -0.4266  -0.4001  -0.3843  -0.3696  -0.3503  -0.2938  -0.2875  -0.2189

          Ground-State Mulliken Net Atomic Charges

     Atom                 Charge (a.u.)
  ----------------------------------------
      1 C                    -0.070183
      2 C                    -0.260245
      3 S                    -0.135383
      4 C                    -0.045061
      5 H                     0.193493
      6 C                    -0.051462
      7 C                     0.221551
      8 C                     0.229286
      9 C                    -0.079655
     10 C                    -0.045786
     11 O                    -0.335750
     12 O                    -0.343866
     13 C                    -0.082388
     14 H                     0.119687
     15 H                     0.092062
     16 H                     0.092700
     17 C                    -0.086670
     18 H                     0.122549
     19 H                     0.093535
     20 H                     0.089660
     21 C                    -0.266964
     22 S                    -0.071524
     23 C                     0.043224
     24 H                     0.210011
     25 C                    -0.059684
     26 S                     0.101221
     27 C                    -0.230684
     28 C                    -0.086118
     29 C                    -0.003328
     30 C                     0.353579
     31 C                    -0.131678
     32 S                     0.047885
     33 C                     0.457944
     34 O                    -0.447976
     35 O                    -0.297662
     36 F                    -0.211393
     37 C                    -0.054879
     38 H                     0.116933
     39 H                     0.084859
     40 H                     0.084797
     41 H                     0.215224
     42 H                     0.117472
     43 H                     0.114881
     44 H                     0.195787
  ----------------------------------------
  Sum of atomic charges =     0.000000

                    Cartesian Multipole Moments
 -----------------------------------------------------------------
    Charge (ESU x 10^10)
                -0.0000
    Dipole Moment (Debye)
         X       1.8260      Y       3.5241      Z       2.5249
       Tot       4.7041
    Quadrupole Moments (Debye-Ang)
        XX    -190.7086     XY       9.4346     YY    -177.1928
        XZ       4.2947     YZ      -8.3766     ZZ    -195.0736

 Total job time:  364.33s(wall), 10584.87s(cpu)
        *  Thank you very much for using Q-Chem.  Have a nice day.  *
