 Q-Chem 5.4, Q-Chem, Inc., Pleasanton, CA (2021)
 Q-Chem 5.4.0 for Intel X86 EM64T Linux

User input:
--------------------------------------------------------------
$molecule
0 1
C	0.174379	-8.519741	0.208886
C	-0.650052	-7.635967	-0.472151
S	1.377058	-7.651740	1.193717
C	-0.353105	-6.261894	-0.225125
H	-1.458961	-7.954738	-1.141594
C	0.740583	-6.079985	0.692811
C	1.195546	-4.798382	1.039773
C	-1.023267	-5.153542	-0.817634
C	-0.565262	-3.869626	-0.473754
C	0.527745	-3.688927	0.447350
O	-2.054917	-5.481075	-1.644483
O	2.232592	-4.479871	1.869424
C	2.565470	-5.356026	2.939466
H	3.248608	-4.790496	3.601405
H	3.094885	-6.268513	2.587892
H	1.664539	-5.658187	3.516052
C	-2.524564	-4.546999	-2.608813
H	-3.211568	-5.107564	-3.270661
H	-1.692342	-4.131473	-3.216646
H	-3.090211	-3.712085	-2.141184
C	0.823402	-2.314326	0.690319
S	-1.194935	-2.295487	-0.985511
C	0.000000	-1.435180	0.000000
H	1.630024	-1.993211	1.361286
C	0.000000	0.000000	0.000000
S	0.780044	0.447780	1.510732
C	2.143774	1.236372	0.727629
C	0.786529	0.454137	-1.064665
C	1.988499	1.149844	-0.678287
C	0.729864	0.419512	-2.486150
C	1.825177	1.052041	-3.106916
S	2.903877	1.678680	-1.965735
C	2.047896	1.175232	-4.559972
O	1.240953	0.705897	-5.350277
O	3.160791	1.814024	-5.004375
F	-0.233039	-0.140940	-3.246290
C	3.476510	1.984585	-6.334976
H	4.433735	2.536545	-6.370268
H	2.693835	2.561503	-6.875609
H	3.588239	1.011113	-6.861878
H	2.940569	1.696327	1.321510
H	0.744739	-9.146471	-0.486655
H	-0.399033	-9.150570	0.898184
H	0.687683	-1.444158	-0.832713
$end

$rem
JOBTYPE		SP
EXCHANGE	HF
CORRELATION	pRIMP2
BASIS		cc-pvtz
METHOD		rimp2
AUX_BASIS	rimp2-cc-pvtz
SOLVENT_METHOD	PCM
PURECART	11111
SYMMETRY	false
MEM_TOTAL	110000
SCF_CONVERGENCE = 6
THRESH=10
GUI = 2
$end

$solvent
dielectric 4.90
$end
--------------------------------------------------------------

             Standard Nuclear Orientation (Angstroms)
    I     Atom           X                Y                Z
 ----------------------------------------------------------------
    1      C       0.1743790000    -8.5197410000     0.2088860000
    2      C      -0.6500520000    -7.6359670000    -0.4721510000
    3      S       1.3770580000    -7.6517400000     1.1937170000
    4      C      -0.3531050000    -6.2618940000    -0.2251250000
    5      H      -1.4589610000    -7.9547380000    -1.1415940000
    6      C       0.7405830000    -6.0799850000     0.6928110000
    7      C       1.1955460000    -4.7983820000     1.0397730000
    8      C      -1.0232670000    -5.1535420000    -0.8176340000
    9      C      -0.5652620000    -3.8696260000    -0.4737540000
   10      C       0.5277450000    -3.6889270000     0.4473500000
   11      O      -2.0549170000    -5.4810750000    -1.6444830000
   12      O       2.2325920000    -4.4798710000     1.8694240000
   13      C       2.5654700000    -5.3560260000     2.9394660000
   14      H       3.2486080000    -4.7904960000     3.6014050000
   15      H       3.0948850000    -6.2685130000     2.5878920000
   16      H       1.6645390000    -5.6581870000     3.5160520000
   17      C      -2.5245640000    -4.5469990000    -2.6088130000
   18      H      -3.2115680000    -5.1075640000    -3.2706610000
   19      H      -1.6923420000    -4.1314730000    -3.2166460000
   20      H      -3.0902110000    -3.7120850000    -2.1411840000
   21      C       0.8234020000    -2.3143260000     0.6903190000
   22      S      -1.1949350000    -2.2954870000    -0.9855110000
   23      C       0.0000000000    -1.4351800000     0.0000000000
   24      H       1.6300240000    -1.9932110000     1.3612860000
   25      C       0.0000000000     0.0000000000     0.0000000000
   26      S       0.7800440000     0.4477800000     1.5107320000
   27      C       2.1437740000     1.2363720000     0.7276290000
   28      C       0.7865290000     0.4541370000    -1.0646650000
   29      C       1.9884990000     1.1498440000    -0.6782870000
   30      C       0.7298640000     0.4195120000    -2.4861500000
   31      C       1.8251770000     1.0520410000    -3.1069160000
   32      S       2.9038770000     1.6786800000    -1.9657350000
   33      C       2.0478960000     1.1752320000    -4.5599720000
   34      O       1.2409530000     0.7058970000    -5.3502770000
   35      O       3.1607910000     1.8140240000    -5.0043750000
   36      F      -0.2330390000    -0.1409400000    -3.2462900000
   37      C       3.4765100000     1.9845850000    -6.3349760000
   38      H       4.4337350000     2.5365450000    -6.3702680000
   39      H       2.6938350000     2.5615030000    -6.8756090000
   40      H       3.5882390000     1.0111130000    -6.8618780000
   41      H       2.9405690000     1.6963270000     1.3215100000
   42      H       0.7447390000    -9.1464710000    -0.4866550000
   43      H      -0.3990330000    -9.1505700000     0.8981840000
   44      H       0.6876830000    -1.4441580000    -0.8327130000
 ----------------------------------------------------------------

   11   -2755.2425736540      9.29e-07  Convergence criterion met
 Total energy in the final basis set =    -2755.2425736540
        RIMP2         total energy =     -2760.3596270073 a.u.

                    Orbital Energies (a.u.)
 --------------------------------------------------------------

 Alpha MOs
 -- Occupied --
-92.0202 -92.0098 -91.9666 -91.9547 -26.3358 -20.6170 -20.5862 -20.5816
-20.5584 -11.4177 -11.3780 -11.3254 -11.3143 -11.3070 -11.3037 -11.2990
-11.2933 -11.2912 -11.2823 -11.2804 -11.2796 -11.2783 -11.2730 -11.2713
-11.2678 -11.2542 -11.2505 -11.2458 -11.2278  -9.0191  -9.0131  -8.9693
 -8.9574  -6.6996  -6.6988  -6.6987  -6.6942  -6.6936  -6.6924  -6.6504
 -6.6495  -6.6483  -6.6386  -6.6377  -6.6367  -1.6495  -1.4773  -1.4082
 -1.4048  -1.3736  -1.2538  -1.2069  -1.1738  -1.1472  -1.0979  -1.0573
 -1.0420  -1.0358  -1.0051  -0.9939  -0.9777  -0.9581  -0.9467  -0.9402
 -0.8895  -0.8809  -0.8547  -0.8135  -0.7969  -0.7860  -0.7793  -0.7650
 -0.7574  -0.7321  -0.7204  -0.7181  -0.6989  -0.6911  -0.6907  -0.6828
 -0.6792  -0.6757  -0.6526  -0.6459  -0.6309  -0.6289  -0.6164  -0.6145
 -0.6129  -0.6088  -0.6050  -0.5934  -0.5748  -0.5617  -0.5594  -0.5543
 -0.5512  -0.5339  -0.5253  -0.5215  -0.5098  -0.5064  -0.5057  -0.4967
 -0.4920  -0.4848  -0.4719  -0.4682  -0.4655  -0.4604  -0.4532  -0.4418
 -0.4278  -0.3929  -0.3786  -0.3661  -0.3487  -0.3039  -0.2845  -0.2114

          Ground-State Mulliken Net Atomic Charges

     Atom                 Charge (a.u.)
  ----------------------------------------
      1 C                    -0.068294
      2 C                    -0.285138
      3 S                    -0.144686
      4 C                    -0.037256
      5 H                     0.190457
      6 C                    -0.054575
      7 C                     0.224440
      8 C                     0.212135
      9 C                    -0.063981
     10 C                    -0.067419
     11 O                    -0.337104
     12 O                    -0.345278
     13 C                    -0.082509
     14 H                     0.118563
     15 H                     0.092217
     16 H                     0.092808
     17 C                    -0.086644
     18 H                     0.121403
     19 H                     0.091510
     20 H                     0.089741
     21 C                    -0.257046
     22 S                    -0.101655
     23 C                     0.071536
     24 H                     0.202479
     25 C                    -0.171035
     26 S                     0.125828
     27 C                    -0.168237
     28 C                    -0.030475
     29 C                    -0.019704
     30 C                     0.330806
     31 C                    -0.114504
     32 S                     0.083235
     33 C                     0.458035
     34 O                    -0.437407
     35 O                    -0.296668
     36 F                    -0.208040
     37 C                    -0.054723
     38 H                     0.117718
     39 H                     0.085976
     40 H                     0.086011
     41 H                     0.222764
     42 H                     0.113998
     43 H                     0.111572
     44 H                     0.189148
  ----------------------------------------
  Sum of atomic charges =     0.000000

                    Cartesian Multipole Moments
 -----------------------------------------------------------------
    Charge (ESU x 10^10)
                -0.0000
    Dipole Moment (Debye)
         X       5.5990      Y       4.9014      Z       2.2425
       Tot       7.7719
    Quadrupole Moments (Debye-Ang)
        XX    -181.3433     XY      11.4763     YY    -199.7550
        XZ      -3.5830     YZ      -4.6487     ZZ    -188.2007

 Total job time:  531.07s(wall), 10841.47s(cpu)
        *  Thank you very much for using Q-Chem.  Have a nice day.  *
