 Q-Chem 5.4, Q-Chem, Inc., Pleasanton, CA (2021)
 Q-Chem 5.4.0 for Intel X86 EM64T Linux

User input:
--------------------------------------------------------------
$molecule
0 1
C	-0.235993	-8.519741	0.135457
C	0.577858	-7.635967	-0.558188
S	-1.414705	-7.651740	1.148850
C	0.283020	-6.261894	-0.308648
H	1.377597	-7.954738	-1.238560
C	-0.810887	-6.079985	0.609026
C	-1.231581	-4.798382	0.996828
C	0.982901	-5.153542	-0.865740
C	0.564713	-3.869626	-0.474408
C	-0.532196	-3.688927	0.442046
O	1.976332	-5.481075	-1.738137
O	-2.228709	-4.479871	1.874052
C	-3.340298	-5.356026	2.016062
H	-4.110807	-4.790496	2.573877
H	-3.085998	-6.268513	2.598484
H	-3.751679	-5.658187	1.028695
C	3.007565	-4.546999	-2.033195
H	3.778655	-5.107564	-2.594833
H	3.461650	-4.131473	-1.108067
H	2.645264	-3.712085	-2.671451
C	-0.822814	-2.314326	0.691020
S	1.178037	-2.295487	-1.005649
C	0.000000	-1.435180	0.000000
H	-1.623656	-1.993211	1.368875
C	0.000000	0.000000	0.000000
S	0.080615	0.895811	1.510732
C	0.216842	2.465231	0.727629
C	0.079127	0.904769	-1.064665
C	0.198659	2.288406	-0.678287
C	0.074988	0.838492	-2.486150
C	0.185097	2.098524	-3.106916
S	0.290501	3.341568	-1.965735
C	0.211932	2.351623	-4.559972
O	0.133545	1.421416	-5.350277
O	0.326994	3.629649	-5.004375
F	-0.018214	-0.271734	-3.246290
C	0.368367	3.986101	-6.334976
H	0.465270	5.086806	-6.370268
H	-0.553140	3.675878	-6.875609
H	1.229874	3.519263	-6.861878
H	0.297091	3.381746	1.321510
H	0.349939	-9.146471	0.817932
H	-0.815247	-9.150570	-0.548939
H	0.700647	-1.444158	0.821835
$end

$rem
JOBTYPE		SP
EXCHANGE	HF
CORRELATION	pRIMP2
BASIS		cc-pvtz
METHOD		rimp2
AUX_BASIS	rimp2-cc-pvtz
SOLVENT_METHOD	PCM
PURECART	11111
SYMMETRY	false
MEM_TOTAL	110000
SCF_CONVERGENCE = 6
THRESH=10
GUI = 2
$end

$solvent
dielectric 4.90
$end
--------------------------------------------------------------

             Standard Nuclear Orientation (Angstroms)
    I     Atom           X                Y                Z
 ----------------------------------------------------------------
    1      C      -0.2359930000    -8.5197410000     0.1354570000
    2      C       0.5778580000    -7.6359670000    -0.5581880000
    3      S      -1.4147050000    -7.6517400000     1.1488500000
    4      C       0.2830200000    -6.2618940000    -0.3086480000
    5      H       1.3775970000    -7.9547380000    -1.2385600000
    6      C      -0.8108870000    -6.0799850000     0.6090260000
    7      C      -1.2315810000    -4.7983820000     0.9968280000
    8      C       0.9829010000    -5.1535420000    -0.8657400000
    9      C       0.5647130000    -3.8696260000    -0.4744080000
   10      C      -0.5321960000    -3.6889270000     0.4420460000
   11      O       1.9763320000    -5.4810750000    -1.7381370000
   12      O      -2.2287090000    -4.4798710000     1.8740520000
   13      C      -3.3402980000    -5.3560260000     2.0160620000
   14      H      -4.1108070000    -4.7904960000     2.5738770000
   15      H      -3.0859980000    -6.2685130000     2.5984840000
   16      H      -3.7516790000    -5.6581870000     1.0286950000
   17      C       3.0075650000    -4.5469990000    -2.0331950000
   18      H       3.7786550000    -5.1075640000    -2.5948330000
   19      H       3.4616500000    -4.1314730000    -1.1080670000
   20      H       2.6452640000    -3.7120850000    -2.6714510000
   21      C      -0.8228140000    -2.3143260000     0.6910200000
   22      S       1.1780370000    -2.2954870000    -1.0056490000
   23      C       0.0000000000    -1.4351800000     0.0000000000
   24      H      -1.6236560000    -1.9932110000     1.3688750000
   25      C       0.0000000000     0.0000000000     0.0000000000
   26      S       0.0806150000     0.8958110000     1.5107320000
   27      C       0.2168420000     2.4652310000     0.7276290000
   28      C       0.0791270000     0.9047690000    -1.0646650000
   29      C       0.1986590000     2.2884060000    -0.6782870000
   30      C       0.0749880000     0.8384920000    -2.4861500000
   31      C       0.1850970000     2.0985240000    -3.1069160000
   32      S       0.2905010000     3.3415680000    -1.9657350000
   33      C       0.2119320000     2.3516230000    -4.5599720000
   34      O       0.1335450000     1.4214160000    -5.3502770000
   35      O       0.3269940000     3.6296490000    -5.0043750000
   36      F      -0.0182140000    -0.2717340000    -3.2462900000
   37      C       0.3683670000     3.9861010000    -6.3349760000
   38      H       0.4652700000     5.0868060000    -6.3702680000
   39      H      -0.5531400000     3.6758780000    -6.8756090000
   40      H       1.2298740000     3.5192630000    -6.8618780000
   41      H       0.2970910000     3.3817460000     1.3215100000
   42      H       0.3499390000    -9.1464710000     0.8179320000
   43      H      -0.8152470000    -9.1505700000    -0.5489390000
   44      H       0.7006470000    -1.4441580000     0.8218350000
 ----------------------------------------------------------------

   11   -2755.3253652973      8.03e-07  Convergence criterion met
 Total energy in the final basis set =    -2755.3253652973
        RIMP2         total energy =     -2760.4151068428 a.u.

                    Orbital Energies (a.u.)
 --------------------------------------------------------------

 Alpha MOs
 -- Occupied --
-92.0162 -91.9935 -91.9781 -91.9588 -26.3341 -20.6119 -20.5876 -20.5869
-20.5494 -11.4098 -11.3783 -11.3192 -11.3094 -11.3079 -11.2970 -11.2960
-11.2913 -11.2884 -11.2841 -11.2835 -11.2834 -11.2831 -11.2799 -11.2739
-11.2732 -11.2596 -11.2586 -11.2501 -11.2380  -9.0148  -8.9977  -8.9803
 -8.9614  -6.6956  -6.6950  -6.6945  -6.6790  -6.6783  -6.6769  -6.6614
 -6.6605  -6.6592  -6.6426  -6.6417  -6.6407  -1.6473  -1.4715  -1.4105
 -1.4093  -1.3667  -1.2381  -1.2098  -1.1761  -1.1438  -1.0998  -1.0502
 -1.0461  -1.0308  -1.0085  -0.9985  -0.9718  -0.9599  -0.9488  -0.9406
 -0.8938  -0.8709  -0.8648  -0.8105  -0.7923  -0.7856  -0.7766  -0.7707
 -0.7658  -0.7331  -0.7209  -0.7153  -0.6972  -0.6924  -0.6828  -0.6783
 -0.6714  -0.6664  -0.6565  -0.6488  -0.6375  -0.6288  -0.6205  -0.6151
 -0.6106  -0.6060  -0.5954  -0.5926  -0.5809  -0.5653  -0.5633  -0.5576
 -0.5499  -0.5340  -0.5279  -0.5215  -0.5129  -0.5080  -0.5033  -0.5016
 -0.4861  -0.4846  -0.4779  -0.4696  -0.4618  -0.4610  -0.4606  -0.4471
 -0.4268  -0.4013  -0.3857  -0.3710  -0.3515  -0.2929  -0.2865  -0.2195

          Ground-State Mulliken Net Atomic Charges

     Atom                 Charge (a.u.)
  ----------------------------------------
      1 C                    -0.070216
      2 C                    -0.255981
      3 S                    -0.134291
      4 C                    -0.046665
      5 H                     0.194078
      6 C                    -0.049028
      7 C                     0.222463
      8 C                     0.227289
      9 C                    -0.075255
     10 C                    -0.030010
     11 O                    -0.334798
     12 O                    -0.343789
     13 C                    -0.082732
     14 H                     0.119911
     15 H                     0.092141
     16 H                     0.093209
     17 C                    -0.087263
     18 H                     0.123584
     19 H                     0.091933
     20 H                     0.091720
     21 C                    -0.301878
     22 S                    -0.076350
     23 C                     0.125714
     24 H                     0.203419
     25 C                    -0.085956
     26 S                     0.094520
     27 C                    -0.247214
     28 C                    -0.106815
     29 C                    -0.006966
     30 C                     0.399446
     31 C                    -0.152244
     32 S                     0.032056
     33 C                     0.461328
     34 O                    -0.451195
     35 O                    -0.298058
     36 F                    -0.209871
     37 C                    -0.055181
     38 H                     0.116500
     39 H                     0.084620
     40 H                     0.084379
     41 H                     0.215138
     42 H                     0.117804
     43 H                     0.115680
     44 H                     0.194821
  ----------------------------------------
  Sum of atomic charges =     0.000000

                    Cartesian Multipole Moments
 -----------------------------------------------------------------
    Charge (ESU x 10^10)
                -0.0000
    Dipole Moment (Debye)
         X       0.8311      Y       2.9053      Z       3.5445
       Tot       4.6578
    Quadrupole Moments (Debye-Ang)
        XX    -185.2856     XY      -1.6277     YY    -172.9977
        XZ      -7.3533     YZ      -7.7145     ZZ    -204.1722

 Total job time:  320.32s(wall), 10461.72s(cpu)
        *  Thank you very much for using Q-Chem.  Have a nice day.  *
