 Q-Chem 5.4, Q-Chem, Inc., Pleasanton, CA (2021)
 Q-Chem 5.4.0 for Intel X86 EM64T Linux

User input:
--------------------------------------------------------------
$molecule
0 1
C	0.267851	-8.519741	0.047927
C	-0.801461	-7.635967	0.056157
S	1.822194	-7.651740	0.029285
C	-0.415201	-6.261894	0.054516
H	-1.851431	-7.954738	0.063290
C	1.012650	-6.079985	0.054687
C	1.584194	-4.798382	0.028030
C	-1.309433	-5.153542	0.031399
C	-0.737539	-3.869626	0.000427
C	0.691828	-3.688927	0.003462
O	-2.631211	-5.481075	0.061128
O	2.911907	-4.479871	-0.003021
C	3.854716	-5.356026	0.602710
H	4.803517	-4.790496	0.670671
H	4.034285	-6.268513	-0.006913
H	3.535185	-5.658187	1.623507
C	-3.610841	-4.546999	-0.375708
H	-4.562544	-5.107564	-0.441115
H	-3.364029	-4.131473	-1.376277
H	-3.743566	-3.712085	0.346107
C	1.074491	-2.314326	-0.000458
S	-1.548848	-2.295487	0.013144
C	-0.000000	-1.435180	-0.000000
H	2.123688	-1.993211	-0.004953
C	0.000000	0.000000	0.000000
S	0.690437	0.576430	1.510732
C	1.896512	1.589852	0.727629
C	0.695720	0.583817	-1.064665
C	1.758621	1.477674	-0.678287
C	0.645928	0.539878	-2.486150
C	1.614763	1.352997	-3.106916
S	2.568261	2.157430	-1.965735
C	1.812707	1.512991	-4.559972
O	1.099523	0.910662	-5.350277
O	2.797769	2.335330	-5.004375
F	-0.205024	-0.179266	-3.246290
C	3.079074	2.558124	-6.334976
H	3.925910	3.267919	-6.370268
H	2.208109	2.990367	-6.875609
H	3.358147	1.618843	-6.861878
H	2.601331	2.181180	1.321510
H	0.257688	-9.146471	-0.851509
H	0.271664	-9.150570	0.944542
H	-0.008462	-1.444158	-1.079930
$end

$rem
JOBTYPE		SP
EXCHANGE	HF
CORRELATION	pRIMP2
BASIS		cc-pvtz
METHOD		rimp2
AUX_BASIS	rimp2-cc-pvtz
SOLVENT_METHOD	PCM
PURECART	11111
SYMMETRY	false
MEM_TOTAL	110000
SCF_CONVERGENCE = 6
THRESH=10
GUI = 2
$end

$solvent
dielectric 4.90
$end
--------------------------------------------------------------

             Standard Nuclear Orientation (Angstroms)
    I     Atom           X                Y                Z
 ----------------------------------------------------------------
    1      C       0.2678510000    -8.5197410000     0.0479270000
    2      C      -0.8014610000    -7.6359670000     0.0561570000
    3      S       1.8221940000    -7.6517400000     0.0292850000
    4      C      -0.4152010000    -6.2618940000     0.0545160000
    5      H      -1.8514310000    -7.9547380000     0.0632900000
    6      C       1.0126500000    -6.0799850000     0.0546870000
    7      C       1.5841940000    -4.7983820000     0.0280300000
    8      C      -1.3094330000    -5.1535420000     0.0313990000
    9      C      -0.7375390000    -3.8696260000     0.0004270000
   10      C       0.6918280000    -3.6889270000     0.0034620000
   11      O      -2.6312110000    -5.4810750000     0.0611280000
   12      O       2.9119070000    -4.4798710000    -0.0030210000
   13      C       3.8547160000    -5.3560260000     0.6027100000
   14      H       4.8035170000    -4.7904960000     0.6706710000
   15      H       4.0342850000    -6.2685130000    -0.0069130000
   16      H       3.5351850000    -5.6581870000     1.6235070000
   17      C      -3.6108410000    -4.5469990000    -0.3757080000
   18      H      -4.5625440000    -5.1075640000    -0.4411150000
   19      H      -3.3640290000    -4.1314730000    -1.3762770000
   20      H      -3.7435660000    -3.7120850000     0.3461070000
   21      C       1.0744910000    -2.3143260000    -0.0004580000
   22      S      -1.5488480000    -2.2954870000     0.0131440000
   23      C       0.0000000000    -1.4351800000     0.0000000000
   24      H       2.1236880000    -1.9932110000    -0.0049530000
   25      C       0.0000000000     0.0000000000     0.0000000000
   26      S       0.6904370000     0.5764300000     1.5107320000
   27      C       1.8965120000     1.5898520000     0.7276290000
   28      C       0.6957200000     0.5838170000    -1.0646650000
   29      C       1.7586210000     1.4776740000    -0.6782870000
   30      C       0.6459280000     0.5398780000    -2.4861500000
   31      C       1.6147630000     1.3529970000    -3.1069160000
   32      S       2.5682610000     2.1574300000    -1.9657350000
   33      C       1.8127070000     1.5129910000    -4.5599720000
   34      O       1.0995230000     0.9106620000    -5.3502770000
   35      O       2.7977690000     2.3353300000    -5.0043750000
   36      F      -0.2050240000    -0.1792660000    -3.2462900000
   37      C       3.0790740000     2.5581240000    -6.3349760000
   38      H       3.9259100000     3.2679190000    -6.3702680000
   39      H       2.2081090000     2.9903670000    -6.8756090000
   40      H       3.3581470000     1.6188430000    -6.8618780000
   41      H       2.6013310000     2.1811800000     1.3215100000
   42      H       0.2576880000    -9.1464710000    -0.8515090000
   43      H       0.2716640000    -9.1505700000     0.9445420000
   44      H      -0.0084620000    -1.4441580000    -1.0799300000
 ----------------------------------------------------------------

   11   -2755.2830376644      7.06e-07  Convergence criterion met
 Total energy in the final basis set =    -2755.2830376644
        RIMP2         total energy =     -2760.3882802488 a.u.

                    Orbital Energies (a.u.)
 --------------------------------------------------------------

 Alpha MOs
 -- Occupied --
-92.0130 -92.0056 -91.9680 -91.9567 -26.3388 -20.6165 -20.5864 -20.5837
-20.5575 -11.4169 -11.3790 -11.3192 -11.3120 -11.3076 -11.3022 -11.3011
-11.2943 -11.2909 -11.2847 -11.2824 -11.2817 -11.2788 -11.2733 -11.2709
-11.2695 -11.2559 -11.2549 -11.2479 -11.2332  -9.0121  -9.0092  -8.9704
 -8.9593  -6.6927  -6.6919  -6.6918  -6.6903  -6.6897  -6.6884  -6.6515
 -6.6507  -6.6494  -6.6405  -6.6396  -6.6386  -1.6520  -1.4767  -1.4085
 -1.4067  -1.3729  -1.2469  -1.2055  -1.1741  -1.1462  -1.0983  -1.0558
 -1.0430  -1.0334  -1.0061  -0.9943  -0.9760  -0.9585  -0.9477  -0.9409
 -0.8905  -0.8781  -0.8581  -0.8102  -0.7970  -0.7836  -0.7822  -0.7699
 -0.7593  -0.7332  -0.7213  -0.7180  -0.6976  -0.6926  -0.6870  -0.6824
 -0.6784  -0.6748  -0.6536  -0.6469  -0.6315  -0.6262  -0.6184  -0.6144
 -0.6118  -0.6099  -0.6025  -0.5944  -0.5785  -0.5649  -0.5557  -0.5551
 -0.5486  -0.5326  -0.5248  -0.5224  -0.5111  -0.5061  -0.5045  -0.4992
 -0.4914  -0.4842  -0.4704  -0.4669  -0.4657  -0.4640  -0.4560  -0.4434
 -0.4184  -0.4009  -0.3815  -0.3680  -0.3493  -0.3023  -0.2862  -0.2177

          Ground-State Mulliken Net Atomic Charges

     Atom                 Charge (a.u.)
  ----------------------------------------
      1 C                    -0.069464
      2 C                    -0.269316
      3 S                    -0.138804
      4 C                    -0.041201
      5 H                     0.192379
      6 C                    -0.052050
      7 C                     0.222917
      8 C                     0.219680
      9 C                    -0.074487
     10 C                    -0.051750
     11 O                    -0.336319
     12 O                    -0.344097
     13 C                    -0.082476
     14 H                     0.119109
     15 H                     0.092045
     16 H                     0.092520
     17 C                    -0.086282
     18 H                     0.122003
     19 H                     0.091977
     20 H                     0.090053
     21 C                    -0.266465
     22 S                    -0.101052
     23 C                     0.058337
     24 H                     0.207325
     25 C                    -0.135394
     26 S                     0.109141
     27 C                    -0.169926
     28 C                    -0.065780
     29 C                    -0.014252
     30 C                     0.347629
     31 C                    -0.116866
     32 S                     0.070619
     33 C                     0.457921
     34 O                    -0.439135
     35 O                    -0.296544
     36 F                    -0.210011
     37 C                    -0.054612
     38 H                     0.117614
     39 H                     0.085770
     40 H                     0.085865
     41 H                     0.219634
     42 H                     0.116134
     43 H                     0.113565
     44 H                     0.184045
  ----------------------------------------
  Sum of atomic charges =     0.000000

                    Cartesian Multipole Moments
 -----------------------------------------------------------------
    Charge (ESU x 10^10)
                 0.0000
    Dipole Moment (Debye)
         X       4.2157      Y       4.4157      Z       2.0020
       Tot       6.4248
    Quadrupole Moments (Debye-Ang)
        XX    -174.0006     XY      12.9669     YY    -187.9616
        XZ      -4.1803     YZ      -8.1871     ZZ    -200.6827

 Total job time:  337.75s(wall), 11026.55s(cpu)
        *  Thank you very much for using Q-Chem.  Have a nice day.  *
