 Q-Chem 5.4, Q-Chem, Inc., Pleasanton, CA (2021)
 Q-Chem 5.4.0 for Intel X86 EM64T Linux

User input:
--------------------------------------------------------------
$molecule
0 1
C	-0.208886	-8.519741	0.174379
C	0.472151	-7.635967	-0.650052
S	-1.193717	-7.651740	1.377058
C	0.225125	-6.261894	-0.353105
H	1.141594	-7.954738	-1.458961
C	-0.692811	-6.079985	0.740583
C	-1.039773	-4.798382	1.195546
C	0.817634	-5.153542	-1.023267
C	0.473754	-3.869626	-0.565262
C	-0.447350	-3.688927	0.527745
O	1.644483	-5.481075	-2.054917
O	-1.869424	-4.479871	2.232592
C	-2.939466	-5.356026	2.565470
H	-3.601405	-4.790496	3.248608
H	-2.587892	-6.268513	3.094885
H	-3.516052	-5.658187	1.664539
C	2.608813	-4.546999	-2.524564
H	3.270661	-5.107564	-3.211568
H	3.216646	-4.131473	-1.692342
H	2.141184	-3.712085	-3.090211
C	-0.690319	-2.314326	0.823402
S	0.985511	-2.295487	-1.194935
C	-0.000000	-1.435180	-0.000000
H	-1.361286	-1.993211	1.630024
C	0.000000	0.000000	0.000000
S	0.158383	0.885376	1.510732
C	0.430876	2.436951	0.727629
C	0.157682	0.894430	-1.064665
C	0.397351	2.262384	-0.678287
C	0.147783	0.828765	-2.486150
C	0.367291	2.074406	-3.106916
S	0.580633	3.303533	-1.965735
C	0.416083	2.324204	-4.559972
O	0.256921	1.404367	-5.350277
O	0.642094	3.587338	-5.004375
F	-0.041828	-0.269113	-3.246290
C	0.714377	3.938827	-6.334976
H	0.906844	5.026898	-6.370268
H	-0.230661	3.710099	-6.875609
H	1.531918	3.398681	-6.861878
H	0.590699	3.342984	1.321510
H	0.486655	-9.146471	0.744739
H	-0.898184	-9.150570	-0.399033
H	0.832713	-1.444158	0.687683
$end

$rem
JOBTYPE		SP
EXCHANGE	HF
CORRELATION	pRIMP2
BASIS		cc-pvtz
METHOD		rimp2
AUX_BASIS	rimp2-cc-pvtz
SOLVENT_METHOD	PCM
PURECART	11111
SYMMETRY	false
MEM_TOTAL	110000
SCF_CONVERGENCE = 6
THRESH=10
GUI = 2
$end

$solvent
dielectric 4.90
$end
--------------------------------------------------------------

             Standard Nuclear Orientation (Angstroms)
    I     Atom           X                Y                Z
 ----------------------------------------------------------------
    1      C      -0.2088860000    -8.5197410000     0.1743790000
    2      C       0.4721510000    -7.6359670000    -0.6500520000
    3      S      -1.1937170000    -7.6517400000     1.3770580000
    4      C       0.2251250000    -6.2618940000    -0.3531050000
    5      H       1.1415940000    -7.9547380000    -1.4589610000
    6      C      -0.6928110000    -6.0799850000     0.7405830000
    7      C      -1.0397730000    -4.7983820000     1.1955460000
    8      C       0.8176340000    -5.1535420000    -1.0232670000
    9      C       0.4737540000    -3.8696260000    -0.5652620000
   10      C      -0.4473500000    -3.6889270000     0.5277450000
   11      O       1.6444830000    -5.4810750000    -2.0549170000
   12      O      -1.8694240000    -4.4798710000     2.2325920000
   13      C      -2.9394660000    -5.3560260000     2.5654700000
   14      H      -3.6014050000    -4.7904960000     3.2486080000
   15      H      -2.5878920000    -6.2685130000     3.0948850000
   16      H      -3.5160520000    -5.6581870000     1.6645390000
   17      C       2.6088130000    -4.5469990000    -2.5245640000
   18      H       3.2706610000    -5.1075640000    -3.2115680000
   19      H       3.2166460000    -4.1314730000    -1.6923420000
   20      H       2.1411840000    -3.7120850000    -3.0902110000
   21      C      -0.6903190000    -2.3143260000     0.8234020000
   22      S       0.9855110000    -2.2954870000    -1.1949350000
   23      C       0.0000000000    -1.4351800000     0.0000000000
   24      H      -1.3612860000    -1.9932110000     1.6300240000
   25      C       0.0000000000     0.0000000000     0.0000000000
   26      S       0.1583830000     0.8853760000     1.5107320000
   27      C       0.4308760000     2.4369510000     0.7276290000
   28      C       0.1576820000     0.8944300000    -1.0646650000
   29      C       0.3973510000     2.2623840000    -0.6782870000
   30      C       0.1477830000     0.8287650000    -2.4861500000
   31      C       0.3672910000     2.0744060000    -3.1069160000
   32      S       0.5806330000     3.3035330000    -1.9657350000
   33      C       0.4160830000     2.3242040000    -4.5599720000
   34      O       0.2569210000     1.4043670000    -5.3502770000
   35      O       0.6420940000     3.5873380000    -5.0043750000
   36      F      -0.0418280000    -0.2691130000    -3.2462900000
   37      C       0.7143770000     3.9388270000    -6.3349760000
   38      H       0.9068440000     5.0268980000    -6.3702680000
   39      H      -0.2306610000     3.7100990000    -6.8756090000
   40      H       1.5319180000     3.3986810000    -6.8618780000
   41      H       0.5906990000     3.3429840000     1.3215100000
   42      H       0.4866550000    -9.1464710000     0.7447390000
   43      H      -0.8981840000    -9.1505700000    -0.3990330000
   44      H       0.8327130000    -1.4441580000     0.6876830000
 ----------------------------------------------------------------

   11   -2755.3235193906      7.91e-07  Convergence criterion met
 Total energy in the final basis set =    -2755.3235193906
        RIMP2         total energy =     -2760.4137782776 a.u.

                    Orbital Energies (a.u.)
 --------------------------------------------------------------

 Alpha MOs
 -- Occupied --
-92.0142 -91.9926 -91.9778 -91.9595 -26.3339 -20.6115 -20.5879 -20.5874
-20.5486 -11.4092 -11.3786 -11.3217 -11.3096 -11.3087 -11.2965 -11.2946
-11.2888 -11.2882 -11.2845 -11.2842 -11.2837 -11.2834 -11.2791 -11.2749
-11.2726 -11.2609 -11.2591 -11.2509 -11.2396  -9.0130  -8.9968  -8.9801
 -8.9621  -6.6938  -6.6932  -6.6927  -6.6781  -6.6774  -6.6760  -6.6612
 -6.6603  -6.6590  -6.6433  -6.6424  -6.6414  -1.6476  -1.4710  -1.4109
 -1.4096  -1.3661  -1.2383  -1.2100  -1.1768  -1.1437  -1.1001  -1.0503
 -1.0465  -1.0305  -1.0085  -0.9991  -0.9715  -0.9601  -0.9491  -0.9406
 -0.8943  -0.8708  -0.8646  -0.8110  -0.7928  -0.7858  -0.7764  -0.7688
 -0.7660  -0.7332  -0.7208  -0.7154  -0.6973  -0.6928  -0.6834  -0.6779
 -0.6711  -0.6679  -0.6567  -0.6491  -0.6385  -0.6290  -0.6211  -0.6154
 -0.6108  -0.6055  -0.5956  -0.5924  -0.5800  -0.5663  -0.5639  -0.5583
 -0.5494  -0.5341  -0.5279  -0.5214  -0.5132  -0.5083  -0.5036  -0.5012
 -0.4856  -0.4837  -0.4785  -0.4691  -0.4622  -0.4607  -0.4599  -0.4477
 -0.4280  -0.4011  -0.3854  -0.3718  -0.3515  -0.2932  -0.2852  -0.2191

          Ground-State Mulliken Net Atomic Charges

     Atom                 Charge (a.u.)
  ----------------------------------------
      1 C                    -0.070420
      2 C                    -0.251907
      3 S                    -0.132970
      4 C                    -0.048719
      5 H                     0.194688
      6 C                    -0.047193
      7 C                     0.218983
      8 C                     0.228253
      9 C                    -0.075137
     10 C                    -0.013634
     11 O                    -0.334691
     12 O                    -0.343762
     13 C                    -0.082687
     14 H                     0.120028
     15 H                     0.092034
     16 H                     0.093267
     17 C                    -0.088311
     18 H                     0.123942
     19 H                     0.092100
     20 H                     0.092213
     21 C                    -0.327626
     22 S                    -0.081586
     23 C                     0.142496
     24 H                     0.201125
     25 C                    -0.055457
     26 S                     0.090950
     27 C                    -0.254042
     28 C                    -0.134306
     29 C                    -0.005585
     30 C                     0.395610
     31 C                    -0.151779
     32 S                     0.030480
     33 C                     0.461489
     34 O                    -0.452437
     35 O                    -0.298299
     36 F                    -0.208476
     37 C                    -0.055080
     38 H                     0.116422
     39 H                     0.084463
     40 H                     0.084196
     41 H                     0.214242
     42 H                     0.118427
     43 H                     0.116385
     44 H                     0.202308
  ----------------------------------------
  Sum of atomic charges =     0.000000

                    Cartesian Multipole Moments
 -----------------------------------------------------------------
    Charge (ESU x 10^10)
                -0.0000
    Dipole Moment (Debye)
         X       1.1613      Y       2.3161      Z       3.4294
       Tot       4.2981
    Quadrupole Moments (Debye-Ang)
        XX    -187.4913     XY      -0.0085     YY    -171.3561
        XZ     -10.2267     YZ      -6.7722     ZZ    -201.9012

 Total job time:  341.42s(wall), 10496.89s(cpu)
        *  Thank you very much for using Q-Chem.  Have a nice day.  *
