 Q-Chem 5.4, Q-Chem, Inc., Pleasanton, CA (2021)
 Q-Chem 5.4.0 for Intel X86 EM64T Linux

User input:
--------------------------------------------------------------
$molecule
0 1
C	-0.046574	-8.519741	-0.268090
C	0.326886	-7.635967	0.733920
S	-0.595708	-7.651740	-1.722318
C	0.193236	-6.261894	0.371516
H	0.692700	-7.954738	1.718130
C	-0.294958	-6.079985	-0.970283
C	-0.515487	-4.798382	-1.498243
C	0.477358	-5.153542	1.219725
C	0.252655	-3.869626	0.692914
C	-0.233366	-3.688927	-0.651289
O	0.957369	-5.481075	2.451623
O	-0.998769	-4.479871	-2.735264
C	-0.752029	-5.356026	-3.828387
H	-1.012675	-4.790496	-4.743213
H	-1.386303	-6.268513	-3.788623
H	0.316492	-5.658187	-3.877260
C	0.881930	-4.546999	3.521580
H	1.145969	-5.107564	4.438260
H	-0.142712	-4.131473	3.631868
H	1.605610	-3.712085	3.399425
C	-0.367928	-2.314326	-1.009535
S	0.542088	-2.295487	1.450945
C	0.000000	-1.435180	0.000000
H	-0.730999	-1.993211	-1.993920
C	0.000000	0.000000	0.000000
S	0.002233	0.899428	1.510732
C	0.001157	2.474749	0.727629
C	-0.000030	0.908223	-1.064665
C	-0.001545	2.297013	-0.678287
C	0.001624	0.841837	-2.486150
C	0.001494	2.106670	-3.106916
S	-0.001841	3.354171	-1.965735
C	0.006168	2.361146	-4.559972
O	0.009152	1.427646	-5.350277
O	0.009405	3.644337	-5.004375
F	0.005539	-0.272288	-3.246290
C	0.019554	4.003038	-6.334976
H	0.020155	5.108000	-6.370268
H	-0.871409	3.613681	-6.875609
H	0.918470	3.613062	-6.861878
H	0.001222	3.394771	1.321510
H	-0.888291	-9.146471	0.049086
H	0.794665	-9.150570	-0.578334
H	-1.011908	-1.444158	0.377309
$end

$rem
JOBTYPE		SP
EXCHANGE	HF
CORRELATION	pRIMP2
BASIS		cc-pvtz
METHOD		rimp2
AUX_BASIS	rimp2-cc-pvtz
SOLVENT_METHOD	PCM
PURECART	11111
SYMMETRY	false
MEM_TOTAL	110000
SCF_CONVERGENCE = 6
THRESH=10
GUI = 2
$end

$solvent
dielectric 4.90
$end
--------------------------------------------------------------

             Standard Nuclear Orientation (Angstroms)
    I     Atom           X                Y                Z
 ----------------------------------------------------------------
    1      C      -0.0465740000    -8.5197410000    -0.2680900000
    2      C       0.3268860000    -7.6359670000     0.7339200000
    3      S      -0.5957080000    -7.6517400000    -1.7223180000
    4      C       0.1932360000    -6.2618940000     0.3715160000
    5      H       0.6927000000    -7.9547380000     1.7181300000
    6      C      -0.2949580000    -6.0799850000    -0.9702830000
    7      C      -0.5154870000    -4.7983820000    -1.4982430000
    8      C       0.4773580000    -5.1535420000     1.2197250000
    9      C       0.2526550000    -3.8696260000     0.6929140000
   10      C      -0.2333660000    -3.6889270000    -0.6512890000
   11      O       0.9573690000    -5.4810750000     2.4516230000
   12      O      -0.9987690000    -4.4798710000    -2.7352640000
   13      C      -0.7520290000    -5.3560260000    -3.8283870000
   14      H      -1.0126750000    -4.7904960000    -4.7432130000
   15      H      -1.3863030000    -6.2685130000    -3.7886230000
   16      H       0.3164920000    -5.6581870000    -3.8772600000
   17      C       0.8819300000    -4.5469990000     3.5215800000
   18      H       1.1459690000    -5.1075640000     4.4382600000
   19      H      -0.1427120000    -4.1314730000     3.6318680000
   20      H       1.6056100000    -3.7120850000     3.3994250000
   21      C      -0.3679280000    -2.3143260000    -1.0095350000
   22      S       0.5420880000    -2.2954870000     1.4509450000
   23      C       0.0000000000    -1.4351800000     0.0000000000
   24      H      -0.7309990000    -1.9932110000    -1.9939200000
   25      C       0.0000000000     0.0000000000     0.0000000000
   26      S       0.0022330000     0.8994280000     1.5107320000
   27      C       0.0011570000     2.4747490000     0.7276290000
   28      C      -0.0000300000     0.9082230000    -1.0646650000
   29      C      -0.0015450000     2.2970130000    -0.6782870000
   30      C       0.0016240000     0.8418370000    -2.4861500000
   31      C       0.0014940000     2.1066700000    -3.1069160000
   32      S      -0.0018410000     3.3541710000    -1.9657350000
   33      C       0.0061680000     2.3611460000    -4.5599720000
   34      O       0.0091520000     1.4276460000    -5.3502770000
   35      O       0.0094050000     3.6443370000    -5.0043750000
   36      F       0.0055390000    -0.2722880000    -3.2462900000
   37      C       0.0195540000     4.0030380000    -6.3349760000
   38      H       0.0201550000     5.1080000000    -6.3702680000
   39      H      -0.8714090000     3.6136810000    -6.8756090000
   40      H       0.9184700000     3.6130620000    -6.8618780000
   41      H       0.0012220000     3.3947710000     1.3215100000
   42      H      -0.8882910000    -9.1464710000     0.0490860000
   43      H       0.7946650000    -9.1505700000    -0.5783340000
   44      H      -1.0119080000    -1.4441580000     0.3773090000
 ----------------------------------------------------------------

   11   -2755.3273727761      7.29e-07  Convergence criterion met
 Total energy in the final basis set =    -2755.3273727761
        RIMP2         total energy =     -2760.4167807239 a.u.

                    Orbital Energies (a.u.)
 --------------------------------------------------------------

 Alpha MOs
 -- Occupied --
-92.0145 -91.9920 -91.9836 -91.9599 -26.3387 -20.6110 -20.5901 -20.5872
-20.5477 -11.4085 -11.3797 -11.3258 -11.3125 -11.3100 -11.2965 -11.2925
-11.2880 -11.2876 -11.2866 -11.2858 -11.2839 -11.2823 -11.2765 -11.2754
-11.2712 -11.2616 -11.2604 -11.2517 -11.2420  -9.0132  -8.9962  -8.9859
 -8.9625  -6.6940  -6.6934  -6.6928  -6.6775  -6.6768  -6.6754  -6.6670
 -6.6661  -6.6648  -6.6437  -6.6428  -6.6418  -1.6525  -1.4706  -1.4133
 -1.4092  -1.3656  -1.2380  -1.2113  -1.1779  -1.1437  -1.1012  -1.0500
 -1.0486  -1.0290  -1.0105  -1.0005  -0.9715  -0.9602  -0.9505  -0.9408
 -0.8961  -0.8723  -0.8640  -0.8100  -0.7974  -0.7878  -0.7764  -0.7702
 -0.7649  -0.7336  -0.7231  -0.7194  -0.6991  -0.6945  -0.6843  -0.6778
 -0.6717  -0.6699  -0.6581  -0.6495  -0.6396  -0.6310  -0.6220  -0.6159
 -0.6092  -0.6050  -0.5954  -0.5914  -0.5786  -0.5712  -0.5604  -0.5510
 -0.5499  -0.5365  -0.5335  -0.5226  -0.5152  -0.5095  -0.5064  -0.5013
 -0.4848  -0.4841  -0.4807  -0.4711  -0.4628  -0.4606  -0.4584  -0.4479
 -0.4330  -0.3991  -0.3885  -0.3726  -0.3512  -0.2943  -0.2842  -0.2194

          Ground-State Mulliken Net Atomic Charges

     Atom                 Charge (a.u.)
  ----------------------------------------
      1 C                    -0.070935
      2 C                    -0.246320
      3 S                    -0.130879
      4 C                    -0.049376
      5 H                     0.195111
      6 C                    -0.050862
      7 C                     0.225860
      8 C                     0.235313
      9 C                    -0.076403
     10 C                    -0.051775
     11 O                    -0.333334
     12 O                    -0.342876
     13 C                    -0.082995
     14 H                     0.121792
     15 H                     0.091854
     16 H                     0.092909
     17 C                    -0.088293
     18 H                     0.124943
     19 H                     0.093424
     20 H                     0.090372
     21 C                    -0.285239
     22 S                    -0.087163
     23 C                     0.127480
     24 H                     0.207194
     25 C                    -0.111453
     26 S                     0.073322
     27 C                    -0.264679
     28 C                    -0.054921
     29 C                    -0.019541
     30 C                     0.410074
     31 C                    -0.151430
     32 S                     0.027177
     33 C                     0.462825
     34 O                    -0.455763
     35 O                    -0.298487
     36 F                    -0.216959
     37 C                    -0.055232
     38 H                     0.116442
     39 H                     0.084087
     40 H                     0.084154
     41 H                     0.214971
     42 H                     0.119176
     43 H                     0.117087
     44 H                     0.209349
  ----------------------------------------
  Sum of atomic charges =     0.000000

                    Cartesian Multipole Moments
 -----------------------------------------------------------------
    Charge (ESU x 10^10)
                -0.0000
    Dipole Moment (Debye)
         X      -0.5423      Y       1.5253      Z       3.9372
       Tot       4.2570
    Quadrupole Moments (Debye-Ang)
        XX    -201.5393     XY      -1.5089     YY    -167.7274
        XZ       0.4793     YZ     -14.2147     ZZ    -188.9183

 Total job time:  332.01s(wall), 10749.01s(cpu)
        *  Thank you very much for using Q-Chem.  Have a nice day.  *
