 Q-Chem 5.4, Q-Chem, Inc., Pleasanton, CA (2021)
 Q-Chem 5.4.0 for Intel X86 EM64T Linux

User input:
--------------------------------------------------------------
$molecule
0 1
C	0.255459	-8.519741	0.093711
C	-0.799036	-7.635967	-0.083869
S	1.789425	-7.651740	0.345260
C	-0.418360	-6.261894	-0.018411
H	-1.834294	-7.954738	-0.259169
C	0.987769	-6.079985	0.229701
C	1.555260	-4.798382	0.302697
C	-1.294992	-5.153542	-0.196459
C	-0.726408	-3.869626	-0.127651
C	0.680716	-3.688927	0.123544
O	-2.601852	-5.481075	-0.396706
O	2.868193	-4.479871	0.502673
C	3.691495	-5.356026	1.262918
H	4.614080	-4.790496	1.494604
H	3.974195	-6.268513	0.693738
H	3.199559	-5.658187	2.212720
C	-3.490743	-4.546999	-0.997016
H	-4.416630	-5.107564	-1.226691
H	-3.073934	-4.131473	-1.939526
H	-3.746794	-3.712085	-0.309214
C	1.058247	-2.314326	0.186133
S	-1.527599	-2.295487	-0.256010
C	0.000000	-1.435180	0.000000
H	2.092285	-1.993211	0.363896
C	0.000000	0.000000	0.000000
S	0.309721	0.844422	1.510732
C	0.847502	2.325108	0.727629
C	0.310602	0.853460	-1.064665
C	0.784173	2.159014	-0.678287
C	0.289451	0.790512	-2.486150
C	0.721927	1.979112	-3.106916
S	1.145464	3.152519	-1.965735
C	0.813355	2.216642	-4.559972
O	0.496884	1.338418	-5.350277
O	1.255274	3.421340	-5.004375
F	-0.087923	-0.257761	-3.246290
C	1.387494	3.754937	-6.334976
H	1.765978	4.793056	-6.370268
H	0.417095	3.693789	-6.875609
H	2.098820	3.081033	-6.861878
H	1.162229	3.189623	1.321510
H	0.401636	-9.146471	-0.793825
H	0.103519	-9.150570	0.977367
H	0.179195	-1.444158	-1.064992
$end

$rem
JOBTYPE		SP
EXCHANGE	HF
CORRELATION	pRIMP2
BASIS		cc-pvtz
METHOD		rimp2
AUX_BASIS	rimp2-cc-pvtz
SOLVENT_METHOD	PCM
PURECART	11111
SYMMETRY	false
MEM_TOTAL	110000
SCF_CONVERGENCE = 6
THRESH=10
GUI = 2
$end

$solvent
dielectric 4.90
$end
--------------------------------------------------------------

             Standard Nuclear Orientation (Angstroms)
    I     Atom           X                Y                Z
 ----------------------------------------------------------------
    1      C       0.2554590000    -8.5197410000     0.0937110000
    2      C      -0.7990360000    -7.6359670000    -0.0838690000
    3      S       1.7894250000    -7.6517400000     0.3452600000
    4      C      -0.4183600000    -6.2618940000    -0.0184110000
    5      H      -1.8342940000    -7.9547380000    -0.2591690000
    6      C       0.9877690000    -6.0799850000     0.2297010000
    7      C       1.5552600000    -4.7983820000     0.3026970000
    8      C      -1.2949920000    -5.1535420000    -0.1964590000
    9      C      -0.7264080000    -3.8696260000    -0.1276510000
   10      C       0.6807160000    -3.6889270000     0.1235440000
   11      O      -2.6018520000    -5.4810750000    -0.3967060000
   12      O       2.8681930000    -4.4798710000     0.5026730000
   13      C       3.6914950000    -5.3560260000     1.2629180000
   14      H       4.6140800000    -4.7904960000     1.4946040000
   15      H       3.9741950000    -6.2685130000     0.6937380000
   16      H       3.1995590000    -5.6581870000     2.2127200000
   17      C      -3.4907430000    -4.5469990000    -0.9970160000
   18      H      -4.4166300000    -5.1075640000    -1.2266910000
   19      H      -3.0739340000    -4.1314730000    -1.9395260000
   20      H      -3.7467940000    -3.7120850000    -0.3092140000
   21      C       1.0582470000    -2.3143260000     0.1861330000
   22      S      -1.5275990000    -2.2954870000    -0.2560100000
   23      C       0.0000000000    -1.4351800000     0.0000000000
   24      H       2.0922850000    -1.9932110000     0.3638960000
   25      C       0.0000000000     0.0000000000     0.0000000000
   26      S       0.3097210000     0.8444220000     1.5107320000
   27      C       0.8475020000     2.3251080000     0.7276290000
   28      C       0.3106020000     0.8534600000    -1.0646650000
   29      C       0.7841730000     2.1590140000    -0.6782870000
   30      C       0.2894510000     0.7905120000    -2.4861500000
   31      C       0.7219270000     1.9791120000    -3.1069160000
   32      S       1.1454640000     3.1525190000    -1.9657350000
   33      C       0.8133550000     2.2166420000    -4.5599720000
   34      O       0.4968840000     1.3384180000    -5.3502770000
   35      O       1.2552740000     3.4213400000    -5.0043750000
   36      F      -0.0879230000    -0.2577610000    -3.2462900000
   37      C       1.3874940000     3.7549370000    -6.3349760000
   38      H       1.7659780000     4.7930560000    -6.3702680000
   39      H       0.4170950000     3.6937890000    -6.8756090000
   40      H       2.0988200000     3.0810330000    -6.8618780000
   41      H       1.1622290000     3.1896230000     1.3215100000
   42      H       0.4016360000    -9.1464710000    -0.7938250000
   43      H       0.1035190000    -9.1505700000     0.9773670000
   44      H       0.1791950000    -1.4441580000    -1.0649920000
 ----------------------------------------------------------------

   11   -2755.3215771144      6.89e-07  Convergence criterion met
 Total energy in the final basis set =    -2755.3215771144
        RIMP2         total energy =     -2760.4153385684 a.u.

                    Orbital Energies (a.u.)
 --------------------------------------------------------------

 Alpha MOs
 -- Occupied --
-92.0135 -91.9980 -91.9749 -91.9580 -26.3388 -20.6139 -20.5870 -20.5860
-20.5529 -11.4129 -11.3794 -11.3093 -11.3087 -11.3061 -11.3024 -11.2996
-11.2979 -11.2895 -11.2873 -11.2834 -11.2828 -11.2819 -11.2794 -11.2728
-11.2722 -11.2578 -11.2577 -11.2493 -11.2364  -9.0121  -9.0019  -8.9772
 -8.9606  -6.6928  -6.6922  -6.6919  -6.6832  -6.6825  -6.6812  -6.6583
 -6.6574  -6.6561  -6.6418  -6.6409  -6.6399  -1.6519  -1.4738  -1.4097
 -1.4086  -1.3694  -1.2402  -1.2078  -1.1748  -1.1439  -1.0996  -1.0527
 -1.0452  -1.0302  -1.0082  -0.9970  -0.9733  -0.9592  -0.9484  -0.9410
 -0.8925  -0.8749  -0.8621  -0.8101  -0.7940  -0.7847  -0.7815  -0.7697
 -0.7622  -0.7335  -0.7202  -0.7194  -0.6976  -0.6921  -0.6877  -0.6802
 -0.6762  -0.6742  -0.6549  -0.6481  -0.6310  -0.6283  -0.6197  -0.6147
 -0.6105  -0.6083  -0.5974  -0.5940  -0.5826  -0.5651  -0.5574  -0.5541
 -0.5512  -0.5318  -0.5280  -0.5218  -0.5126  -0.5072  -0.5035  -0.5006
 -0.4882  -0.4858  -0.4764  -0.4683  -0.4636  -0.4627  -0.4597  -0.4455
 -0.4226  -0.4033  -0.3847  -0.3696  -0.3500  -0.2940  -0.2886  -0.2203

          Ground-State Mulliken Net Atomic Charges

     Atom                 Charge (a.u.)
  ----------------------------------------
      1 C                    -0.070235
      2 C                    -0.260284
      3 S                    -0.135542
      4 C                    -0.044949
      5 H                     0.193417
      6 C                    -0.051901
      7 C                     0.222902
      8 C                     0.229428
      9 C                    -0.084237
     10 C                    -0.047323
     11 O                    -0.335705
     12 O                    -0.343591
     13 C                    -0.082387
     14 H                     0.119771
     15 H                     0.092076
     16 H                     0.092547
     17 C                    -0.086238
     18 H                     0.122529
     19 H                     0.093169
     20 H                     0.089698
     21 C                    -0.251986
     22 S                    -0.071920
     23 C                     0.044012
     24 H                     0.207895
     25 C                    -0.069061
     26 S                     0.099811
     27 C                    -0.225324
     28 C                    -0.091894
     29 C                    -0.004612
     30 C                     0.361270
     31 C                    -0.126564
     32 S                     0.047042
     33 C                     0.458079
     34 O                    -0.446816
     35 O                    -0.297296
     36 F                    -0.213287
     37 C                    -0.054951
     38 H                     0.117055
     39 H                     0.085060
     40 H                     0.084919
     41 H                     0.215528
     42 H                     0.117434
     43 H                     0.114856
     44 H                     0.187607
  ----------------------------------------
  Sum of atomic charges =     0.000000

                    Cartesian Multipole Moments
 -----------------------------------------------------------------
    Charge (ESU x 10^10)
                -0.0000
    Dipole Moment (Debye)
         X       1.3751      Y       3.8421      Z       2.4197
       Tot       4.7443
    Quadrupole Moments (Debye-Ang)
        XX    -185.5143     XY       8.9565     YY    -176.0083
        XZ       3.8246     YZ     -10.2057     ZZ    -201.0191

 Total job time:  330.04s(wall), 10714.11s(cpu)
        *  Thank you very much for using Q-Chem.  Have a nice day.  *
