 Q-Chem 5.4, Q-Chem, Inc., Pleasanton, CA (2021)
 Q-Chem 5.4.0 for Intel X86 EM64T Linux

User input:
--------------------------------------------------------------
$molecule
0 1
C	0.000687	-8.519741	-0.272104
C	0.194476	-7.635967	0.779533
S	-0.287581	-7.651740	-1.799596
C	0.125787	-6.261894	0.399427
H	0.383826	-7.954738	1.812314
C	-0.121989	-6.079985	-1.006762
C	-0.247488	-4.798382	-1.564994
C	0.258303	-5.153542	1.284087
C	0.128493	-3.869626	0.726260
C	-0.116725	-3.688927	-0.681918
O	0.517104	-5.481075	2.580622
O	-0.508622	-4.479871	-2.867144
C	-0.075811	-5.356026	-3.900814
H	-0.173640	-4.790496	-4.847002
H	-0.707354	-6.268513	-3.971794
H	0.984963	-5.658187	-3.763397
C	0.257016	-4.546999	3.621225
H	0.357864	-5.107564	4.569828
H	-0.771211	-4.131473	3.551910
H	0.990913	-3.712085	3.626592
C	-0.187034	-2.314326	-1.058088
S	0.281899	-2.295487	1.523035
C	-0.000000	-1.435180	-0.000000
H	-0.373653	-1.993211	-2.090565
C	0.000000	0.000000	0.000000
S	0.451648	0.777811	1.510732
C	1.238377	2.142617	0.727629
C	0.454085	0.786559	-1.064665
C	1.147169	1.990043	-0.678287
C	0.422325	0.728240	-2.486150
C	1.054629	1.823683	-3.106916
S	1.675491	2.905718	-1.965735
C	1.185914	2.041729	-4.559972
O	0.721749	1.231802	-5.350277
O	1.830313	3.151386	-5.004375
F	-0.131347	-0.238577	-3.246290
C	2.018453	3.456956	-6.334976
H	2.571455	4.413580	-6.370268
H	1.052178	3.565244	-6.875609
H	2.601950	2.669768	-6.861878
H	1.698444	2.939346	1.321510
H	-0.883319	-9.146471	-0.105910
H	0.883019	-9.150570	-0.431555
H	-1.062054	-1.444158	0.195861
$end

$rem
JOBTYPE		SP
EXCHANGE	HF
CORRELATION	pRIMP2
BASIS		cc-pvtz
METHOD		rimp2
AUX_BASIS	rimp2-cc-pvtz
SOLVENT_METHOD	PCM
PURECART	11111
SYMMETRY	false
MEM_TOTAL	110000
SCF_CONVERGENCE = 6
THRESH=10
GUI = 2
$end

$solvent
dielectric 4.90
$end
--------------------------------------------------------------

             Standard Nuclear Orientation (Angstroms)
    I     Atom           X                Y                Z
 ----------------------------------------------------------------
    1      C       0.0006870000    -8.5197410000    -0.2721040000
    2      C       0.1944760000    -7.6359670000     0.7795330000
    3      S      -0.2875810000    -7.6517400000    -1.7995960000
    4      C       0.1257870000    -6.2618940000     0.3994270000
    5      H       0.3838260000    -7.9547380000     1.8123140000
    6      C      -0.1219890000    -6.0799850000    -1.0067620000
    7      C      -0.2474880000    -4.7983820000    -1.5649940000
    8      C       0.2583030000    -5.1535420000     1.2840870000
    9      C       0.1284930000    -3.8696260000     0.7262600000
   10      C      -0.1167250000    -3.6889270000    -0.6819180000
   11      O       0.5171040000    -5.4810750000     2.5806220000
   12      O      -0.5086220000    -4.4798710000    -2.8671440000
   13      C      -0.0758110000    -5.3560260000    -3.9008140000
   14      H      -0.1736400000    -4.7904960000    -4.8470020000
   15      H      -0.7073540000    -6.2685130000    -3.9717940000
   16      H       0.9849630000    -5.6581870000    -3.7633970000
   17      C       0.2570160000    -4.5469990000     3.6212250000
   18      H       0.3578640000    -5.1075640000     4.5698280000
   19      H      -0.7712110000    -4.1314730000     3.5519100000
   20      H       0.9909130000    -3.7120850000     3.6265920000
   21      C      -0.1870340000    -2.3143260000    -1.0580880000
   22      S       0.2818990000    -2.2954870000     1.5230350000
   23      C       0.0000000000    -1.4351800000     0.0000000000
   24      H      -0.3736530000    -1.9932110000    -2.0905650000
   25      C       0.0000000000     0.0000000000     0.0000000000
   26      S       0.4516480000     0.7778110000     1.5107320000
   27      C       1.2383770000     2.1426170000     0.7276290000
   28      C       0.4540850000     0.7865590000    -1.0646650000
   29      C       1.1471690000     1.9900430000    -0.6782870000
   30      C       0.4223250000     0.7282400000    -2.4861500000
   31      C       1.0546290000     1.8236830000    -3.1069160000
   32      S       1.6754910000     2.9057180000    -1.9657350000
   33      C       1.1859140000     2.0417290000    -4.5599720000
   34      O       0.7217490000     1.2318020000    -5.3502770000
   35      O       1.8303130000     3.1513860000    -5.0043750000
   36      F      -0.1313470000    -0.2385770000    -3.2462900000
   37      C       2.0184530000     3.4569560000    -6.3349760000
   38      H       2.5714550000     4.4135800000    -6.3702680000
   39      H       1.0521780000     3.5652440000    -6.8756090000
   40      H       2.6019500000     2.6697680000    -6.8618780000
   41      H       1.6984440000     2.9393460000     1.3215100000
   42      H      -0.8833190000    -9.1464710000    -0.1059100000
   43      H       0.8830190000    -9.1505700000    -0.4315550000
   44      H      -1.0620540000    -1.4441580000     0.1958610000
 ----------------------------------------------------------------

   11   -2755.3026388362      6.87e-07  Convergence criterion met
 Total energy in the final basis set =    -2755.3026388362
        RIMP2         total energy =     -2760.4021626627 a.u.

                    Orbital Energies (a.u.)
 --------------------------------------------------------------

 Alpha MOs
 -- Occupied --
-92.0149 -91.9949 -91.9825 -91.9585 -26.3397 -20.6120 -20.5888 -20.5866
-20.5495 -11.4100 -11.3793 -11.3153 -11.3103 -11.3093 -11.2977 -11.2962
-11.2913 -11.2885 -11.2859 -11.2843 -11.2822 -11.2818 -11.2796 -11.2732
-11.2706 -11.2591 -11.2586 -11.2503 -11.2389  -9.0138  -8.9989  -8.9847
 -8.9611  -6.6946  -6.6939  -6.6934  -6.6802  -6.6795  -6.6782  -6.6658
 -6.6649  -6.6636  -6.6423  -6.6414  -6.6404  -1.6542  -1.4717  -1.4120
 -1.4085  -1.3669  -1.2395  -1.2100  -1.1765  -1.1441  -1.0997  -1.0512
 -1.0474  -1.0297  -1.0098  -0.9992  -0.9725  -0.9597  -0.9495  -0.9406
 -0.8954  -0.8729  -0.8633  -0.8102  -0.7985  -0.7872  -0.7757  -0.7707
 -0.7634  -0.7331  -0.7241  -0.7209  -0.6981  -0.6942  -0.6847  -0.6786
 -0.6730  -0.6683  -0.6574  -0.6488  -0.6398  -0.6295  -0.6206  -0.6149
 -0.6085  -0.6063  -0.5959  -0.5933  -0.5759  -0.5707  -0.5591  -0.5535
 -0.5448  -0.5365  -0.5324  -0.5229  -0.5148  -0.5096  -0.5068  -0.5008
 -0.4855  -0.4831  -0.4778  -0.4694  -0.4620  -0.4609  -0.4574  -0.4467
 -0.4330  -0.3965  -0.3877  -0.3708  -0.3503  -0.2941  -0.2850  -0.2163

          Ground-State Mulliken Net Atomic Charges

     Atom                 Charge (a.u.)
  ----------------------------------------
      1 C                    -0.070531
      2 C                    -0.255294
      3 S                    -0.134204
      4 C                    -0.047963
      5 H                     0.194006
      6 C                    -0.052474
      7 C                     0.229613
      8 C                     0.230054
      9 C                    -0.078107
     10 C                    -0.042027
     11 O                    -0.333645
     12 O                    -0.343744
     13 C                    -0.083120
     14 H                     0.121788
     15 H                     0.092082
     16 H                     0.092565
     17 C                    -0.088989
     18 H                     0.124941
     19 H                     0.093106
     20 H                     0.089846
     21 C                    -0.296042
     22 S                    -0.092082
     23 C                     0.081885
     24 H                     0.220343
     25 C                    -0.056488
     26 S                     0.087776
     27 C                    -0.239823
     28 C                    -0.077179
     29 C                    -0.017519
     30 C                     0.371607
     31 C                    -0.140533
     32 S                     0.042027
     33 C                     0.457241
     34 O                    -0.452492
     35 O                    -0.298248
     36 F                    -0.215076
     37 C                    -0.054968
     38 H                     0.116679
     39 H                     0.084339
     40 H                     0.084419
     41 H                     0.216232
     42 H                     0.118064
     43 H                     0.115803
     44 H                     0.206135
  ----------------------------------------
  Sum of atomic charges =     0.000000

                    Cartesian Multipole Moments
 -----------------------------------------------------------------
    Charge (ESU x 10^10)
                -0.0000
    Dipole Moment (Debye)
         X       1.0587      Y       2.3227      Z       3.6773
       Tot       4.4764
    Quadrupole Moments (Debye-Ang)
        XX    -197.2115     XY       5.9380     YY    -175.5118
        XZ      -8.1084     YZ     -13.2110     ZZ    -188.4220

 Total job time:  331.44s(wall), 10623.17s(cpu)
        *  Thank you very much for using Q-Chem.  Have a nice day.  *
