 Q-Chem 5.4, Q-Chem, Inc., Pleasanton, CA (2021)
 Q-Chem 5.4.0 for Intel X86 EM64T Linux

User input:
--------------------------------------------------------------
$molecule
0 1
C	-0.208002	-8.519741	-0.175432
C	0.722164	-7.635967	0.352097
S	-1.563424	-7.651740	-0.936458
C	0.386833	-6.261894	0.160388
H	1.635031	-7.954738	0.870905
C	-0.849637	-6.079985	-0.553685
C	-1.357938	-4.798382	-0.816372
C	1.149702	-5.153542	0.627524
C	0.638941	-3.869626	0.368399
C	-0.597409	-3.688927	-0.348912
O	2.309260	-5.481075	1.262667
O	-2.523296	-4.479871	-1.453338
C	-3.036927	-5.356026	-2.449320
H	-3.824632	-4.790496	-2.982577
H	-3.497250	-6.268513	-2.011155
H	-2.249807	-5.658187	-3.173591
C	2.939226	-4.546999	2.130793
H	3.730721	-5.107564	2.663289
H	2.225196	-4.131473	2.873906
H	3.415077	-3.712085	1.572045
C	-0.930765	-2.314326	-0.536849
S	1.347913	-2.295487	0.763041
C	-0.000000	-1.435180	-0.000000
H	-1.841645	-1.993211	-1.057554
C	0.000000	0.000000	0.000000
S	0.579852	0.687566	1.510732
C	1.591625	1.895024	0.727629
C	0.583771	0.695758	-1.064665
C	1.475308	1.760606	-0.678287
C	0.542366	0.643841	-2.486150
C	1.355286	1.612843	-3.106916
S	2.154609	2.570627	-1.965735
C	1.522440	1.804778	-4.559972
O	0.924684	1.087757	-5.350277
O	2.349739	2.785679	-5.004375
F	-0.170780	-0.212144	-3.246290
C	2.588082	3.053936	-6.334976
H	3.298799	3.899999	-6.370268
H	1.655291	3.328371	-6.875609
H	3.026021	2.177385	-6.861878
H	2.183053	2.599759	1.321510
H	-0.648918	-9.146471	0.608584
H	0.237003	-9.150570	-0.953830
H	-0.532637	-1.444158	0.939477
$end

$rem
JOBTYPE		SP
EXCHANGE	HF
CORRELATION	pRIMP2
BASIS		cc-pvtz
METHOD		rimp2
AUX_BASIS	rimp2-cc-pvtz
SOLVENT_METHOD	PCM
PURECART	11111
SYMMETRY	false
MEM_TOTAL	110000
SCF_CONVERGENCE = 6
THRESH=10
GUI = 2
$end

$solvent
dielectric 4.90
$end
--------------------------------------------------------------

             Standard Nuclear Orientation (Angstroms)
    I     Atom           X                Y                Z
 ----------------------------------------------------------------
    1      C      -0.2080020000    -8.5197410000    -0.1754320000
    2      C       0.7221640000    -7.6359670000     0.3520970000
    3      S      -1.5634240000    -7.6517400000    -0.9364580000
    4      C       0.3868330000    -6.2618940000     0.1603880000
    5      H       1.6350310000    -7.9547380000     0.8709050000
    6      C      -0.8496370000    -6.0799850000    -0.5536850000
    7      C      -1.3579380000    -4.7983820000    -0.8163720000
    8      C       1.1497020000    -5.1535420000     0.6275240000
    9      C       0.6389410000    -3.8696260000     0.3683990000
   10      C      -0.5974090000    -3.6889270000    -0.3489120000
   11      O       2.3092600000    -5.4810750000     1.2626670000
   12      O      -2.5232960000    -4.4798710000    -1.4533380000
   13      C      -3.0369270000    -5.3560260000    -2.4493200000
   14      H      -3.8246320000    -4.7904960000    -2.9825770000
   15      H      -3.4972500000    -6.2685130000    -2.0111550000
   16      H      -2.2498070000    -5.6581870000    -3.1735910000
   17      C       2.9392260000    -4.5469990000     2.1307930000
   18      H       3.7307210000    -5.1075640000     2.6632890000
   19      H       2.2251960000    -4.1314730000     2.8739060000
   20      H       3.4150770000    -3.7120850000     1.5720450000
   21      C      -0.9307650000    -2.3143260000    -0.5368490000
   22      S       1.3479130000    -2.2954870000     0.7630410000
   23      C       0.0000000000    -1.4351800000     0.0000000000
   24      H      -1.8416450000    -1.9932110000    -1.0575540000
   25      C       0.0000000000     0.0000000000     0.0000000000
   26      S       0.5798520000     0.6875660000     1.5107320000
   27      C       1.5916250000     1.8950240000     0.7276290000
   28      C       0.5837710000     0.6957580000    -1.0646650000
   29      C       1.4753080000     1.7606060000    -0.6782870000
   30      C       0.5423660000     0.6438410000    -2.4861500000
   31      C       1.3552860000     1.6128430000    -3.1069160000
   32      S       2.1546090000     2.5706270000    -1.9657350000
   33      C       1.5224400000     1.8047780000    -4.5599720000
   34      O       0.9246840000     1.0877570000    -5.3502770000
   35      O       2.3497390000     2.7856790000    -5.0043750000
   36      F      -0.1707800000    -0.2121440000    -3.2462900000
   37      C       2.5880820000     3.0539360000    -6.3349760000
   38      H       3.2987990000     3.8999990000    -6.3702680000
   39      H       1.6552910000     3.3283710000    -6.8756090000
   40      H       3.0260210000     2.1773850000    -6.8618780000
   41      H       2.1830530000     2.5997590000     1.3215100000
   42      H      -0.6489180000    -9.1464710000     0.6085840000
   43      H       0.2370030000    -9.1505700000    -0.9538300000
   44      H      -0.5326370000    -1.4441580000     0.9394770000
 ----------------------------------------------------------------

   11   -2755.2961069788      7.26e-07  Convergence criterion met
 Total energy in the final basis set =    -2755.2961069788
        RIMP2         total energy =     -2760.3971455793 a.u.

                    Orbital Energies (a.u.)
 --------------------------------------------------------------

 Alpha MOs
 -- Occupied --
-92.0182 -92.0003 -91.9749 -91.9559 -26.3358 -20.6145 -20.5857 -20.5850
-20.5542 -11.4139 -11.3772 -11.3106 -11.3075 -11.3054 -11.3037 -11.2991
-11.2944 -11.2897 -11.2857 -11.2837 -11.2813 -11.2809 -11.2762 -11.2710
-11.2697 -11.2562 -11.2534 -11.2474 -11.2322  -9.0170  -9.0041  -8.9773
 -8.9586  -6.6976  -6.6970  -6.6966  -6.6854  -6.6847  -6.6834  -6.6583
 -6.6575  -6.6562  -6.6398  -6.6389  -6.6378  -1.6488  -1.4745  -1.4086
 -1.4073  -1.3703  -1.2418  -1.2073  -1.1737  -1.1453  -1.0970  -1.0523
 -1.0439  -1.0326  -1.0071  -0.9956  -0.9744  -0.9594  -0.9471  -0.9394
 -0.8921  -0.8739  -0.8613  -0.8073  -0.7962  -0.7837  -0.7777  -0.7731
 -0.7630  -0.7325  -0.7212  -0.7175  -0.6961  -0.6937  -0.6806  -0.6801
 -0.6752  -0.6637  -0.6548  -0.6471  -0.6323  -0.6288  -0.6179  -0.6132
 -0.6112  -0.6094  -0.5997  -0.5920  -0.5760  -0.5644  -0.5577  -0.5536
 -0.5433  -0.5367  -0.5296  -0.5226  -0.5124  -0.5064  -0.5052  -0.4992
 -0.4885  -0.4846  -0.4738  -0.4717  -0.4647  -0.4631  -0.4574  -0.4441
 -0.4234  -0.3992  -0.3834  -0.3678  -0.3502  -0.2964  -0.2866  -0.2171

          Ground-State Mulliken Net Atomic Charges

     Atom                 Charge (a.u.)
  ----------------------------------------
      1 C                    -0.069495
      2 C                    -0.272863
      3 S                    -0.139614
      4 C                    -0.040704
      5 H                     0.191567
      6 C                    -0.053639
      7 C                     0.222104
      8 C                     0.219516
      9 C                    -0.077948
     10 C                    -0.052476
     11 O                    -0.335620
     12 O                    -0.343318
     13 C                    -0.082169
     14 H                     0.119846
     15 H                     0.091384
     16 H                     0.093081
     17 C                    -0.086875
     18 H                     0.122952
     19 H                     0.090970
     20 H                     0.089449
     21 C                    -0.260450
     22 S                    -0.073933
     23 C                     0.018635
     24 H                     0.205648
     25 C                    -0.098238
     26 S                     0.106708
     27 C                    -0.191524
     28 C                    -0.034668
     29 C                    -0.013218
     30 C                     0.355726
     31 C                    -0.131811
     32 S                     0.055427
     33 C                     0.457331
     34 O                    -0.443533
     35 O                    -0.297173
     36 F                    -0.210641
     37 C                    -0.054722
     38 H                     0.117151
     39 H                     0.085163
     40 H                     0.085324
     41 H                     0.219262
     42 H                     0.115411
     43 H                     0.113277
     44 H                     0.188696
  ----------------------------------------
  Sum of atomic charges =     0.000000

                    Cartesian Multipole Moments
 -----------------------------------------------------------------
    Charge (ESU x 10^10)
                 0.0000
    Dipole Moment (Debye)
         X       2.8039      Y       4.5924      Z       3.4353
       Tot       6.3839
    Quadrupole Moments (Debye-Ang)
        XX    -186.1676     XY       6.2016     YY    -187.0417
        XZ       1.4845     YZ     -10.3628     ZZ    -193.5678

 Total job time:  329.33s(wall), 10803.67s(cpu)
        *  Thank you very much for using Q-Chem.  Have a nice day.  *
