 Q-Chem 5.4, Q-Chem, Inc., Pleasanton, CA (2021)
 Q-Chem 5.4.0 for Intel X86 EM64T Linux

User input:
--------------------------------------------------------------
$molecule
0 1
C	0.093711	-8.519741	-0.255459
C	-0.083869	-7.635967	0.799036
S	0.345260	-7.651740	-1.789425
C	-0.018411	-6.261894	0.418360
H	-0.259169	-7.954738	1.834294
C	0.229701	-6.079985	-0.987769
C	0.302697	-4.798382	-1.555260
C	-0.196459	-5.153542	1.294992
C	-0.127651	-3.869626	0.726408
C	0.123544	-3.688927	-0.680716
O	-0.396706	-5.481075	2.601852
O	0.502673	-4.479871	-2.868193
C	1.262918	-5.356026	-3.691495
H	1.494604	-4.790496	-4.614080
H	0.693738	-6.268513	-3.974195
H	2.212720	-5.658187	-3.199559
C	-0.997016	-4.546999	3.490743
H	-1.226691	-5.107564	4.416630
H	-1.939526	-4.131473	3.073934
H	-0.309214	-3.712085	3.746794
C	0.186133	-2.314326	-1.058247
S	-0.256010	-2.295487	1.527599
C	-0.000000	-1.435180	-0.000000
H	0.363896	-1.993211	-2.092285
C	0.000000	0.000000	0.000000
S	0.158383	0.885376	1.510732
C	0.430876	2.436951	0.727629
C	0.157682	0.894430	-1.064665
C	0.397351	2.262384	-0.678287
C	0.147783	0.828765	-2.486150
C	0.367291	2.074406	-3.106916
S	0.580633	3.303533	-1.965735
C	0.416083	2.324204	-4.559972
O	0.256921	1.404367	-5.350277
O	0.642094	3.587338	-5.004375
F	-0.041828	-0.269113	-3.246290
C	0.714377	3.938827	-6.334976
H	0.906844	5.026898	-6.370268
H	-0.230661	3.710099	-6.875609
H	1.531918	3.398681	-6.861878
H	0.590699	3.342984	1.321510
H	-0.793825	-9.146471	-0.401636
H	0.977367	-9.150570	-0.103519
H	-1.064992	-1.444158	-0.179195
$end

$rem
JOBTYPE		SP
EXCHANGE	HF
CORRELATION	pRIMP2
BASIS		cc-pvtz
METHOD		rimp2
AUX_BASIS	rimp2-cc-pvtz
SOLVENT_METHOD	PCM
PURECART	11111
SYMMETRY	false
MEM_TOTAL	110000
SCF_CONVERGENCE = 6
THRESH=10
GUI = 2
$end

$solvent
dielectric 4.90
$end
--------------------------------------------------------------

             Standard Nuclear Orientation (Angstroms)
    I     Atom           X                Y                Z
 ----------------------------------------------------------------
    1      C       0.0937110000    -8.5197410000    -0.2554590000
    2      C      -0.0838690000    -7.6359670000     0.7990360000
    3      S       0.3452600000    -7.6517400000    -1.7894250000
    4      C      -0.0184110000    -6.2618940000     0.4183600000
    5      H      -0.2591690000    -7.9547380000     1.8342940000
    6      C       0.2297010000    -6.0799850000    -0.9877690000
    7      C       0.3026970000    -4.7983820000    -1.5552600000
    8      C      -0.1964590000    -5.1535420000     1.2949920000
    9      C      -0.1276510000    -3.8696260000     0.7264080000
   10      C       0.1235440000    -3.6889270000    -0.6807160000
   11      O      -0.3967060000    -5.4810750000     2.6018520000
   12      O       0.5026730000    -4.4798710000    -2.8681930000
   13      C       1.2629180000    -5.3560260000    -3.6914950000
   14      H       1.4946040000    -4.7904960000    -4.6140800000
   15      H       0.6937380000    -6.2685130000    -3.9741950000
   16      H       2.2127200000    -5.6581870000    -3.1995590000
   17      C      -0.9970160000    -4.5469990000     3.4907430000
   18      H      -1.2266910000    -5.1075640000     4.4166300000
   19      H      -1.9395260000    -4.1314730000     3.0739340000
   20      H      -0.3092140000    -3.7120850000     3.7467940000
   21      C       0.1861330000    -2.3143260000    -1.0582470000
   22      S      -0.2560100000    -2.2954870000     1.5275990000
   23      C       0.0000000000    -1.4351800000     0.0000000000
   24      H       0.3638960000    -1.9932110000    -2.0922850000
   25      C       0.0000000000     0.0000000000     0.0000000000
   26      S       0.1583830000     0.8853760000     1.5107320000
   27      C       0.4308760000     2.4369510000     0.7276290000
   28      C       0.1576820000     0.8944300000    -1.0646650000
   29      C       0.3973510000     2.2623840000    -0.6782870000
   30      C       0.1477830000     0.8287650000    -2.4861500000
   31      C       0.3672910000     2.0744060000    -3.1069160000
   32      S       0.5806330000     3.3035330000    -1.9657350000
   33      C       0.4160830000     2.3242040000    -4.5599720000
   34      O       0.2569210000     1.4043670000    -5.3502770000
   35      O       0.6420940000     3.5873380000    -5.0043750000
   36      F      -0.0418280000    -0.2691130000    -3.2462900000
   37      C       0.7143770000     3.9388270000    -6.3349760000
   38      H       0.9068440000     5.0268980000    -6.3702680000
   39      H      -0.2306610000     3.7100990000    -6.8756090000
   40      H       1.5319180000     3.3986810000    -6.8618780000
   41      H       0.5906990000     3.3429840000     1.3215100000
   42      H      -0.7938250000    -9.1464710000    -0.4016360000
   43      H       0.9773670000    -9.1505700000    -0.1035190000
   44      H      -1.0649920000    -1.4441580000    -0.1791950000
 ----------------------------------------------------------------

   11   -2755.3231728263      6.84e-07  Convergence criterion met
 Total energy in the final basis set =    -2755.3231728263
        RIMP2         total energy =     -2760.4149187270 a.u.

                    Orbital Energies (a.u.)
 --------------------------------------------------------------

 Alpha MOs
 -- Occupied --
-92.0151 -91.9925 -91.9839 -91.9602 -26.3400 -20.6108 -20.5904 -20.5873
-20.5474 -11.4082 -11.3799 -11.3260 -11.3131 -11.3102 -11.2969 -11.2920
-11.2879 -11.2877 -11.2867 -11.2861 -11.2824 -11.2823 -11.2762 -11.2756
-11.2704 -11.2619 -11.2606 -11.2519 -11.2427  -9.0136  -8.9966  -8.9861
 -8.9627  -6.6944  -6.6938  -6.6933  -6.6779  -6.6772  -6.6759  -6.6672
 -6.6663  -6.6650  -6.6439  -6.6430  -6.6420  -1.6545  -1.4703  -1.4136
 -1.4093  -1.3654  -1.2381  -1.2112  -1.1781  -1.1435  -1.1015  -1.0505
 -1.0488  -1.0284  -1.0110  -1.0007  -0.9715  -0.9602  -0.9507  -0.9410
 -0.8964  -0.8735  -0.8633  -0.8112  -0.7974  -0.7881  -0.7757  -0.7712
 -0.7633  -0.7348  -0.7226  -0.7210  -0.6994  -0.6957  -0.6848  -0.6777
 -0.6729  -0.6718  -0.6581  -0.6496  -0.6402  -0.6306  -0.6222  -0.6161
 -0.6086  -0.6049  -0.5956  -0.5913  -0.5781  -0.5716  -0.5604  -0.5519
 -0.5479  -0.5369  -0.5325  -0.5229  -0.5149  -0.5098  -0.5070  -0.5021
 -0.4848  -0.4836  -0.4801  -0.4694  -0.4633  -0.4605  -0.4581  -0.4486
 -0.4340  -0.3980  -0.3889  -0.3726  -0.3507  -0.2943  -0.2842  -0.2191

          Ground-State Mulliken Net Atomic Charges

     Atom                 Charge (a.u.)
  ----------------------------------------
      1 C                    -0.071123
      2 C                    -0.244575
      3 S                    -0.130482
      4 C                    -0.052265
      5 H                     0.195409
      6 C                    -0.048855
      7 C                     0.225945
      8 C                     0.238929
      9 C                    -0.077755
     10 C                    -0.028967
     11 O                    -0.333209
     12 O                    -0.342860
     13 C                    -0.083394
     14 H                     0.121866
     15 H                     0.092331
     16 H                     0.092615
     17 C                    -0.088891
     18 H                     0.125497
     19 H                     0.093750
     20 H                     0.090481
     21 C                    -0.348887
     22 S                    -0.095541
     23 C                     0.145853
     24 H                     0.214878
     25 C                    -0.080146
     26 S                     0.085597
     27 C                    -0.275616
     28 C                    -0.071039
     29 C                    -0.006709
     30 C                     0.395132
     31 C                    -0.149995
     32 S                     0.030609
     33 C                     0.463250
     34 O                    -0.456285
     35 O                    -0.298663
     36 F                    -0.218114
     37 C                    -0.055130
     38 H                     0.116418
     39 H                     0.084069
     40 H                     0.084002
     41 H                     0.214342
     42 H                     0.119604
     43 H                     0.117315
     44 H                     0.210606
  ----------------------------------------
  Sum of atomic charges =     0.000000

                    Cartesian Multipole Moments
 -----------------------------------------------------------------
    Charge (ESU x 10^10)
                 0.0000
    Dipole Moment (Debye)
         X      -0.2685      Y       1.2955      Z       3.6758
       Tot       3.9067
    Quadrupole Moments (Debye-Ang)
        XX    -196.7917     XY       3.2955     YY    -167.1442
        XZ      -9.8038     YZ     -14.3001     ZZ    -193.3446

 Total job time:  348.37s(wall), 10866.61s(cpu)
        *  Thank you very much for using Q-Chem.  Have a nice day.  *
