 Q-Chem 5.4, Q-Chem, Inc., Pleasanton, CA (2021)
 Q-Chem 5.4.0 for Intel X86 EM64T Linux

User input:
--------------------------------------------------------------
$molecule
0 1
C	0.000687	-8.519741	-0.272104
C	0.194476	-7.635967	0.779533
S	-0.287581	-7.651740	-1.799596
C	0.125787	-6.261894	0.399427
H	0.383826	-7.954738	1.812314
C	-0.121989	-6.079985	-1.006762
C	-0.247488	-4.798382	-1.564994
C	0.258303	-5.153542	1.284087
C	0.128493	-3.869626	0.726260
C	-0.116725	-3.688927	-0.681918
O	0.517104	-5.481075	2.580622
O	-0.508622	-4.479871	-2.867144
C	-0.075811	-5.356026	-3.900814
H	-0.173640	-4.790496	-4.847002
H	-0.707354	-6.268513	-3.971794
H	0.984963	-5.658187	-3.763397
C	0.257016	-4.546999	3.621225
H	0.357864	-5.107564	4.569828
H	-0.771211	-4.131473	3.551910
H	0.990913	-3.712085	3.626592
C	-0.187034	-2.314326	-1.058088
S	0.281899	-2.295487	1.523035
C	0.000000	-1.435180	0.000000
H	-0.373653	-1.993211	-2.090565
C	0.000000	0.000000	0.000000
S	0.780044	0.447780	1.510732
C	2.143774	1.236372	0.727629
C	0.786529	0.454137	-1.064665
C	1.988499	1.149844	-0.678287
C	0.729864	0.419512	-2.486150
C	1.825177	1.052041	-3.106916
S	2.903877	1.678680	-1.965735
C	2.047896	1.175232	-4.559972
O	1.240953	0.705897	-5.350277
O	3.160791	1.814024	-5.004375
F	-0.233039	-0.140940	-3.246290
C	3.476510	1.984585	-6.334976
H	4.433735	2.536545	-6.370268
H	2.693835	2.561503	-6.875609
H	3.588239	1.011113	-6.861878
H	2.940569	1.696327	1.321510
H	-0.883319	-9.146471	-0.105910
H	0.883019	-9.150570	-0.431555
H	-1.062054	-1.444158	0.195861
$end

$rem
JOBTYPE		SP
EXCHANGE	HF
CORRELATION	pRIMP2
BASIS		cc-pvtz
METHOD		rimp2
AUX_BASIS	rimp2-cc-pvtz
SOLVENT_METHOD	PCM
PURECART	11111
SYMMETRY	false
MEM_TOTAL	110000
SCF_CONVERGENCE = 6
THRESH=10
GUI = 2
$end

$solvent
dielectric 4.90
$end
--------------------------------------------------------------

             Standard Nuclear Orientation (Angstroms)
    I     Atom           X                Y                Z
 ----------------------------------------------------------------
    1      C       0.0006870000    -8.5197410000    -0.2721040000
    2      C       0.1944760000    -7.6359670000     0.7795330000
    3      S      -0.2875810000    -7.6517400000    -1.7995960000
    4      C       0.1257870000    -6.2618940000     0.3994270000
    5      H       0.3838260000    -7.9547380000     1.8123140000
    6      C      -0.1219890000    -6.0799850000    -1.0067620000
    7      C      -0.2474880000    -4.7983820000    -1.5649940000
    8      C       0.2583030000    -5.1535420000     1.2840870000
    9      C       0.1284930000    -3.8696260000     0.7262600000
   10      C      -0.1167250000    -3.6889270000    -0.6819180000
   11      O       0.5171040000    -5.4810750000     2.5806220000
   12      O      -0.5086220000    -4.4798710000    -2.8671440000
   13      C      -0.0758110000    -5.3560260000    -3.9008140000
   14      H      -0.1736400000    -4.7904960000    -4.8470020000
   15      H      -0.7073540000    -6.2685130000    -3.9717940000
   16      H       0.9849630000    -5.6581870000    -3.7633970000
   17      C       0.2570160000    -4.5469990000     3.6212250000
   18      H       0.3578640000    -5.1075640000     4.5698280000
   19      H      -0.7712110000    -4.1314730000     3.5519100000
   20      H       0.9909130000    -3.7120850000     3.6265920000
   21      C      -0.1870340000    -2.3143260000    -1.0580880000
   22      S       0.2818990000    -2.2954870000     1.5230350000
   23      C       0.0000000000    -1.4351800000     0.0000000000
   24      H      -0.3736530000    -1.9932110000    -2.0905650000
   25      C       0.0000000000     0.0000000000     0.0000000000
   26      S       0.7800440000     0.4477800000     1.5107320000
   27      C       2.1437740000     1.2363720000     0.7276290000
   28      C       0.7865290000     0.4541370000    -1.0646650000
   29      C       1.9884990000     1.1498440000    -0.6782870000
   30      C       0.7298640000     0.4195120000    -2.4861500000
   31      C       1.8251770000     1.0520410000    -3.1069160000
   32      S       2.9038770000     1.6786800000    -1.9657350000
   33      C       2.0478960000     1.1752320000    -4.5599720000
   34      O       1.2409530000     0.7058970000    -5.3502770000
   35      O       3.1607910000     1.8140240000    -5.0043750000
   36      F      -0.2330390000    -0.1409400000    -3.2462900000
   37      C       3.4765100000     1.9845850000    -6.3349760000
   38      H       4.4337350000     2.5365450000    -6.3702680000
   39      H       2.6938350000     2.5615030000    -6.8756090000
   40      H       3.5882390000     1.0111130000    -6.8618780000
   41      H       2.9405690000     1.6963270000     1.3215100000
   42      H      -0.8833190000    -9.1464710000    -0.1059100000
   43      H       0.8830190000    -9.1505700000    -0.4315550000
   44      H      -1.0620540000    -1.4441580000     0.1958610000
 ----------------------------------------------------------------

   11   -2755.2368731561      8.78e-07  Convergence criterion met
 Total energy in the final basis set =    -2755.2368731561
        RIMP2         total energy =     -2760.3566182665 a.u.

                    Orbital Energies (a.u.)
 --------------------------------------------------------------

 Alpha MOs
 -- Occupied --
-92.0148 -92.0064 -91.9765 -91.9543 -26.3396 -20.6161 -20.5850 -20.5845
-20.5569 -11.4163 -11.3778 -11.3213 -11.3112 -11.3070 -11.3024 -11.3017
-11.2922 -11.2907 -11.2836 -11.2807 -11.2785 -11.2774 -11.2715 -11.2698
-11.2670 -11.2549 -11.2502 -11.2460 -11.2289  -9.0146  -9.0099  -8.9789
 -8.9570  -6.6951  -6.6942  -6.6941  -6.6910  -6.6904  -6.6892  -6.6598
 -6.6589  -6.6576  -6.6382  -6.6373  -6.6363  -1.6539  -1.4763  -1.4079
 -1.4066  -1.3725  -1.2482  -1.2073  -1.1733  -1.1464  -1.0963  -1.0559
 -1.0442  -1.0340  -1.0064  -0.9962  -0.9759  -0.9597  -0.9464  -0.9394
 -0.8935  -0.8766  -0.8582  -0.8080  -0.8018  -0.7865  -0.7750  -0.7721
 -0.7596  -0.7337  -0.7266  -0.7182  -0.6971  -0.6940  -0.6836  -0.6816
 -0.6777  -0.6659  -0.6551  -0.6467  -0.6403  -0.6269  -0.6165  -0.6122
 -0.6114  -0.6097  -0.6038  -0.5913  -0.5743  -0.5687  -0.5567  -0.5556
 -0.5399  -0.5361  -0.5296  -0.5223  -0.5169  -0.5095  -0.5055  -0.4985
 -0.4894  -0.4802  -0.4705  -0.4690  -0.4647  -0.4599  -0.4489  -0.4423
 -0.4314  -0.3890  -0.3847  -0.3657  -0.3468  -0.3007  -0.2839  -0.2091

          Ground-State Mulliken Net Atomic Charges

     Atom                 Charge (a.u.)
  ----------------------------------------
      1 C                    -0.068826
      2 C                    -0.282871
      3 S                    -0.143882
      4 C                    -0.041800
      5 H                     0.190276
      6 C                    -0.057677
      7 C                     0.232565
      8 C                     0.221140
      9 C                    -0.077022
     10 C                    -0.054679
     11 O                    -0.335570
     12 O                    -0.344275
     13 C                    -0.083160
     14 H                     0.120907
     15 H                     0.092224
     16 H                     0.091940
     17 C                    -0.087983
     18 H                     0.123612
     19 H                     0.091681
     20 H                     0.088266
     21 C                    -0.270099
     22 S                    -0.099628
     23 C                     0.040257
     24 H                     0.219828
     25 C                    -0.179412
     26 S                     0.110172
     27 C                    -0.158881
     28 C                    -0.003518
     29 C                    -0.036172
     30 C                     0.341813
     31 C                    -0.111889
     32 S                     0.074161
     33 C                     0.458007
     34 O                    -0.440651
     35 O                    -0.296705
     36 F                    -0.214326
     37 C                    -0.054747
     38 H                     0.117615
     39 H                     0.085663
     40 H                     0.085600
     41 H                     0.220886
     42 H                     0.114251
     43 H                     0.111745
     44 H                     0.211161
  ----------------------------------------
  Sum of atomic charges =     0.000000

                    Cartesian Multipole Moments
 -----------------------------------------------------------------
    Charge (ESU x 10^10)
                 0.0000
    Dipole Moment (Debye)
         X       4.3546      Y       4.4035      Z       2.9410
       Tot       6.8558
    Quadrupole Moments (Debye-Ang)
        XX    -185.5954     XY       8.3307     YY    -198.5092
        XZ     -13.5395     YZ      -9.5761     ZZ    -184.7525

 Total job time:  338.21s(wall), 11099.64s(cpu)
        *  Thank you very much for using Q-Chem.  Have a nice day.  *
