 Q-Chem 5.4, Q-Chem, Inc., Pleasanton, CA (2021)
 Q-Chem 5.4.0 for Intel X86 EM64T Linux

User input:
--------------------------------------------------------------
$molecule
0 1
C	-0.267851	-8.519741	-0.047927
C	0.801461	-7.635967	-0.056157
S	-1.822194	-7.651740	-0.029285
C	0.415201	-6.261894	-0.054516
H	1.851431	-7.954738	-0.063290
C	-1.012650	-6.079985	-0.054687
C	-1.584194	-4.798382	-0.028030
C	1.309433	-5.153542	-0.031399
C	0.737539	-3.869626	-0.000427
C	-0.691828	-3.688927	-0.003462
O	2.631211	-5.481075	-0.061128
O	-2.911907	-4.479871	0.003021
C	-3.854716	-5.356026	-0.602710
H	-4.803517	-4.790496	-0.670671
H	-4.034285	-6.268513	0.006913
H	-3.535185	-5.658187	-1.623507
C	3.610841	-4.546999	0.375708
H	4.562544	-5.107564	0.441115
H	3.364029	-4.131473	1.376277
H	3.743566	-3.712085	-0.346107
C	-1.074491	-2.314326	0.000458
S	1.548848	-2.295487	-0.013144
C	0.000000	-1.435180	0.000000
H	-2.123688	-1.993211	0.004953
C	0.000000	0.000000	0.000000
S	0.080615	0.895811	1.510732
C	0.216842	2.465231	0.727629
C	0.079127	0.904769	-1.064665
C	0.198659	2.288406	-0.678287
C	0.074988	0.838492	-2.486150
C	0.185097	2.098524	-3.106916
S	0.290501	3.341568	-1.965735
C	0.211932	2.351623	-4.559972
O	0.133545	1.421416	-5.350277
O	0.326994	3.629649	-5.004375
F	-0.018214	-0.271734	-3.246290
C	0.368367	3.986101	-6.334976
H	0.465270	5.086806	-6.370268
H	-0.553140	3.675878	-6.875609
H	1.229874	3.519263	-6.861878
H	0.297091	3.381746	1.321510
H	-0.257688	-9.146471	0.851509
H	-0.271664	-9.150570	-0.944542
H	0.008462	-1.444158	1.079930
$end

$rem
JOBTYPE		SP
EXCHANGE	HF
CORRELATION	pRIMP2
BASIS		cc-pvtz
METHOD		rimp2
AUX_BASIS	rimp2-cc-pvtz
SOLVENT_METHOD	PCM
PURECART	11111
SYMMETRY	false
MEM_TOTAL	110000
SCF_CONVERGENCE = 6
THRESH=10
GUI = 2
$end

$solvent
dielectric 4.90
$end
--------------------------------------------------------------

             Standard Nuclear Orientation (Angstroms)
    I     Atom           X                Y                Z
 ----------------------------------------------------------------
    1      C      -0.2678510000    -8.5197410000    -0.0479270000
    2      C       0.8014610000    -7.6359670000    -0.0561570000
    3      S      -1.8221940000    -7.6517400000    -0.0292850000
    4      C       0.4152010000    -6.2618940000    -0.0545160000
    5      H       1.8514310000    -7.9547380000    -0.0632900000
    6      C      -1.0126500000    -6.0799850000    -0.0546870000
    7      C      -1.5841940000    -4.7983820000    -0.0280300000
    8      C       1.3094330000    -5.1535420000    -0.0313990000
    9      C       0.7375390000    -3.8696260000    -0.0004270000
   10      C      -0.6918280000    -3.6889270000    -0.0034620000
   11      O       2.6312110000    -5.4810750000    -0.0611280000
   12      O      -2.9119070000    -4.4798710000     0.0030210000
   13      C      -3.8547160000    -5.3560260000    -0.6027100000
   14      H      -4.8035170000    -4.7904960000    -0.6706710000
   15      H      -4.0342850000    -6.2685130000     0.0069130000
   16      H      -3.5351850000    -5.6581870000    -1.6235070000
   17      C       3.6108410000    -4.5469990000     0.3757080000
   18      H       4.5625440000    -5.1075640000     0.4411150000
   19      H       3.3640290000    -4.1314730000     1.3762770000
   20      H       3.7435660000    -3.7120850000    -0.3461070000
   21      C      -1.0744910000    -2.3143260000     0.0004580000
   22      S       1.5488480000    -2.2954870000    -0.0131440000
   23      C       0.0000000000    -1.4351800000     0.0000000000
   24      H      -2.1236880000    -1.9932110000     0.0049530000
   25      C       0.0000000000     0.0000000000     0.0000000000
   26      S       0.0806150000     0.8958110000     1.5107320000
   27      C       0.2168420000     2.4652310000     0.7276290000
   28      C       0.0791270000     0.9047690000    -1.0646650000
   29      C       0.1986590000     2.2884060000    -0.6782870000
   30      C       0.0749880000     0.8384920000    -2.4861500000
   31      C       0.1850970000     2.0985240000    -3.1069160000
   32      S       0.2905010000     3.3415680000    -1.9657350000
   33      C       0.2119320000     2.3516230000    -4.5599720000
   34      O       0.1335450000     1.4214160000    -5.3502770000
   35      O       0.3269940000     3.6296490000    -5.0043750000
   36      F      -0.0182140000    -0.2717340000    -3.2462900000
   37      C       0.3683670000     3.9861010000    -6.3349760000
   38      H       0.4652700000     5.0868060000    -6.3702680000
   39      H      -0.5531400000     3.6758780000    -6.8756090000
   40      H       1.2298740000     3.5192630000    -6.8618780000
   41      H       0.2970910000     3.3817460000     1.3215100000
   42      H      -0.2576880000    -9.1464710000     0.8515090000
   43      H      -0.2716640000    -9.1505700000    -0.9445420000
   44      H       0.0084620000    -1.4441580000     1.0799300000
 ----------------------------------------------------------------

   11   -2755.3264332629      7.46e-07  Convergence criterion met
 Total energy in the final basis set =    -2755.3264332629
        RIMP2         total energy =     -2760.4164332255 a.u.

                    Orbital Energies (a.u.)
 --------------------------------------------------------------

 Alpha MOs
 -- Occupied --
-92.0198 -91.9957 -91.9774 -91.9578 -26.3352 -20.6128 -20.5869 -20.5865
-20.5512 -11.4113 -11.3776 -11.3112 -11.3087 -11.3068 -11.2993 -11.2979
-11.2967 -11.2888 -11.2842 -11.2826 -11.2824 -11.2812 -11.2807 -11.2724
-11.2723 -11.2579 -11.2572 -11.2493 -11.2363  -9.0180  -8.9998  -8.9796
 -8.9604  -6.6987  -6.6982  -6.6977  -6.6811  -6.6804  -6.6791  -6.6607
 -6.6597  -6.6585  -6.6416  -6.6407  -6.6397  -1.6481  -1.4726  -1.4100
 -1.4086  -1.3680  -1.2378  -1.2087  -1.1750  -1.1440  -1.0990  -1.0501
 -1.0454  -1.0313  -1.0083  -0.9973  -0.9727  -0.9594  -0.9483  -0.9404
 -0.8929  -0.8715  -0.8646  -0.8086  -0.7933  -0.7847  -0.7775  -0.7744
 -0.7653  -0.7331  -0.7213  -0.7163  -0.6970  -0.6923  -0.6813  -0.6791
 -0.6726  -0.6640  -0.6560  -0.6483  -0.6323  -0.6298  -0.6197  -0.6145
 -0.6108  -0.6072  -0.5958  -0.5924  -0.5827  -0.5647  -0.5593  -0.5547
 -0.5496  -0.5348  -0.5279  -0.5221  -0.5127  -0.5072  -0.5035  -0.5014
 -0.4877  -0.4862  -0.4776  -0.4698  -0.4623  -0.4618  -0.4609  -0.4460
 -0.4228  -0.4031  -0.3851  -0.3699  -0.3511  -0.2922  -0.2892  -0.2209

          Ground-State Mulliken Net Atomic Charges

     Atom                 Charge (a.u.)
  ----------------------------------------
      1 C                    -0.070058
      2 C                    -0.260418
      3 S                    -0.136146
      4 C                    -0.043565
      5 H                     0.193358
      6 C                    -0.052814
      7 C                     0.229308
      8 C                     0.225043
      9 C                    -0.078432
     10 C                    -0.059188
     11 O                    -0.334743
     12 O                    -0.343429
     13 C                    -0.082364
     14 H                     0.119867
     15 H                     0.091549
     16 H                     0.093340
     17 C                    -0.086413
     18 H                     0.122998
     19 H                     0.091562
     20 H                     0.090801
     21 C                    -0.246611
     22 S                    -0.071591
     23 C                     0.068760
     24 H                     0.203607
     25 C                    -0.088186
     26 S                     0.103624
     27 C                    -0.239331
     28 C                    -0.082344
     29 C                    -0.002215
     30 C                     0.395536
     31 C                    -0.157267
     32 S                     0.039848
     33 C                     0.460352
     34 O                    -0.448476
     35 O                    -0.297576
     36 F                    -0.212158
     37 C                    -0.055143
     38 H                     0.116687
     39 H                     0.084788
     40 H                     0.084807
     41 H                     0.216916
     42 H                     0.116948
     43 H                     0.114965
     44 H                     0.183806
  ----------------------------------------
  Sum of atomic charges =     0.000000

                    Cartesian Multipole Moments
 -----------------------------------------------------------------
    Charge (ESU x 10^10)
                -0.0000
    Dipole Moment (Debye)
         X       0.4503      Y       3.8779      Z       3.7397
       Tot       5.4062
    Quadrupole Moments (Debye-Ang)
        XX    -184.8622     XY      -2.2945     YY    -174.9380
        XZ       4.6519     YZ     -10.7101     ZZ    -203.9278

 Total job time:  329.36s(wall), 10631.96s(cpu)
        *  Thank you very much for using Q-Chem.  Have a nice day.  *
