 Q-Chem 5.4, Q-Chem, Inc., Pleasanton, CA (2021)
 Q-Chem 5.4.0 for Intel X86 EM64T Linux

User input:
--------------------------------------------------------------
$molecule
0 1
C	-0.255929	-8.519741	0.092419
C	0.666007	-7.635967	-0.449364
S	-1.592708	-7.651740	0.885736
C	0.332317	-6.261894	-0.254813
H	1.571741	-7.954738	-0.980526
C	-0.904324	-6.079985	0.458965
C	-1.385968	-4.798382	0.767823
C	1.118303	-5.153542	-0.681909
C	0.638514	-3.869626	-0.369139
C	-0.600871	-3.688927	0.342916
O	2.248132	-5.481075	-1.368544
O	-2.520275	-4.479871	1.458570
C	-3.639637	-5.356026	1.405396
H	-4.495304	-4.790496	1.820940
H	-3.490336	-6.268513	2.023129
H	-3.873314	-5.658187	0.361595
C	3.314934	-4.546999	-1.480048
H	4.171837	-5.107564	-1.899255
H	3.601473	-4.131473	-0.490123
H	3.068969	-3.712085	-2.171521
C	-0.930308	-2.314326	0.537642
S	1.334769	-2.295487	-0.785807
C	-0.000000	-1.435180	-0.000000
H	-1.836691	-1.993211	1.066134
C	0.000000	0.000000	0.000000
S	0.690437	0.576430	1.510732
C	1.896512	1.589852	0.727629
C	0.695720	0.583817	-1.064665
C	1.758621	1.477674	-0.678287
C	0.645928	0.539878	-2.486150
C	1.614763	1.352997	-3.106916
S	2.568261	2.157430	-1.965735
C	1.812707	1.512991	-4.559972
O	1.099523	0.910662	-5.350277
O	2.797769	2.335330	-5.004375
F	-0.205024	-0.179266	-3.246290
C	3.079074	2.558124	-6.334976
H	3.925910	3.267919	-6.370268
H	2.208109	2.990367	-6.875609
H	3.358147	1.618843	-6.861878
H	2.601331	2.181180	1.321510
H	0.202590	-9.146471	0.866272
H	-0.707539	-9.150570	-0.682165
H	0.547293	-1.444158	0.931016
$end

$rem
JOBTYPE		SP
EXCHANGE	HF
CORRELATION	pRIMP2
BASIS		cc-pvtz
METHOD		rimp2
AUX_BASIS	rimp2-cc-pvtz
SOLVENT_METHOD	PCM
PURECART	11111
SYMMETRY	false
MEM_TOTAL	110000
SCF_CONVERGENCE = 6
THRESH=10
GUI = 2
$end

$solvent
dielectric 4.90
$end
--------------------------------------------------------------

             Standard Nuclear Orientation (Angstroms)
    I     Atom           X                Y                Z
 ----------------------------------------------------------------
    1      C      -0.2559290000    -8.5197410000     0.0924190000
    2      C       0.6660070000    -7.6359670000    -0.4493640000
    3      S      -1.5927080000    -7.6517400000     0.8857360000
    4      C       0.3323170000    -6.2618940000    -0.2548130000
    5      H       1.5717410000    -7.9547380000    -0.9805260000
    6      C      -0.9043240000    -6.0799850000     0.4589650000
    7      C      -1.3859680000    -4.7983820000     0.7678230000
    8      C       1.1183030000    -5.1535420000    -0.6819090000
    9      C       0.6385140000    -3.8696260000    -0.3691390000
   10      C      -0.6008710000    -3.6889270000     0.3429160000
   11      O       2.2481320000    -5.4810750000    -1.3685440000
   12      O      -2.5202750000    -4.4798710000     1.4585700000
   13      C      -3.6396370000    -5.3560260000     1.4053960000
   14      H      -4.4953040000    -4.7904960000     1.8209400000
   15      H      -3.4903360000    -6.2685130000     2.0231290000
   16      H      -3.8733140000    -5.6581870000     0.3615950000
   17      C       3.3149340000    -4.5469990000    -1.4800480000
   18      H       4.1718370000    -5.1075640000    -1.8992550000
   19      H       3.6014730000    -4.1314730000    -0.4901230000
   20      H       3.0689690000    -3.7120850000    -2.1715210000
   21      C      -0.9303080000    -2.3143260000     0.5376420000
   22      S       1.3347690000    -2.2954870000    -0.7858070000
   23      C       0.0000000000    -1.4351800000     0.0000000000
   24      H      -1.8366910000    -1.9932110000     1.0661340000
   25      C       0.0000000000     0.0000000000     0.0000000000
   26      S       0.6904370000     0.5764300000     1.5107320000
   27      C       1.8965120000     1.5898520000     0.7276290000
   28      C       0.6957200000     0.5838170000    -1.0646650000
   29      C       1.7586210000     1.4776740000    -0.6782870000
   30      C       0.6459280000     0.5398780000    -2.4861500000
   31      C       1.6147630000     1.3529970000    -3.1069160000
   32      S       2.5682610000     2.1574300000    -1.9657350000
   33      C       1.8127070000     1.5129910000    -4.5599720000
   34      O       1.0995230000     0.9106620000    -5.3502770000
   35      O       2.7977690000     2.3353300000    -5.0043750000
   36      F      -0.2050240000    -0.1792660000    -3.2462900000
   37      C       3.0790740000     2.5581240000    -6.3349760000
   38      H       3.9259100000     3.2679190000    -6.3702680000
   39      H       2.2081090000     2.9903670000    -6.8756090000
   40      H       3.3581470000     1.6188430000    -6.8618780000
   41      H       2.6013310000     2.1811800000     1.3215100000
   42      H       0.2025900000    -9.1464710000     0.8662720000
   43      H      -0.7075390000    -9.1505700000    -0.6821650000
   44      H       0.5472930000    -1.4441580000     0.9310160000
 ----------------------------------------------------------------

   11   -2755.2706827233      8.80e-07  Convergence criterion met
 Total energy in the final basis set =    -2755.2706827233
        RIMP2         total energy =     -2760.3772244251 a.u.

                    Orbital Energies (a.u.)
 --------------------------------------------------------------

 Alpha MOs
 -- Occupied --
-92.0127 -92.0026 -91.9759 -91.9551 -26.3356 -20.6159 -20.5860 -20.5843
-20.5565 -11.4158 -11.3782 -11.3168 -11.3103 -11.3074 -11.3027 -11.3002
-11.2928 -11.2911 -11.2904 -11.2832 -11.2818 -11.2808 -11.2727 -11.2697
-11.2683 -11.2555 -11.2513 -11.2465 -11.2300  -9.0127  -9.0064  -8.9781
 -8.9578  -6.6934  -6.6925  -6.6922  -6.6876  -6.6870  -6.6857  -6.6592
 -6.6584  -6.6571  -6.6390  -6.6381  -6.6371  -1.6485  -1.4759  -1.4083
 -1.4071  -1.3720  -1.2479  -1.2077  -1.1741  -1.1467  -1.0966  -1.0548
 -1.0429  -1.0359  -1.0065  -0.9948  -0.9762  -0.9592  -0.9470  -0.9403
 -0.8913  -0.8762  -0.8585  -0.8112  -0.7955  -0.7842  -0.7779  -0.7725
 -0.7622  -0.7341  -0.7205  -0.7171  -0.6969  -0.6942  -0.6816  -0.6798
 -0.6766  -0.6667  -0.6546  -0.6471  -0.6352  -0.6275  -0.6170  -0.6140
 -0.6112  -0.6106  -0.6024  -0.5917  -0.5782  -0.5657  -0.5606  -0.5547
 -0.5443  -0.5336  -0.5306  -0.5214  -0.5112  -0.5059  -0.5059  -0.4990
 -0.4908  -0.4826  -0.4730  -0.4675  -0.4649  -0.4638  -0.4585  -0.4441
 -0.4222  -0.4016  -0.3824  -0.3691  -0.3499  -0.2984  -0.2864  -0.2138

          Ground-State Mulliken Net Atomic Charges

     Atom                 Charge (a.u.)
  ----------------------------------------
      1 C                    -0.069074
      2 C                    -0.279245
      3 S                    -0.142636
      4 C                    -0.042140
      5 H                     0.190831
      6 C                    -0.052944
      7 C                     0.221659
      8 C                     0.218245
      9 C                    -0.069159
     10 C                    -0.043828
     11 O                    -0.335420
     12 O                    -0.343603
     13 C                    -0.082421
     14 H                     0.119269
     15 H                     0.091807
     16 H                     0.093078
     17 C                    -0.087968
     18 H                     0.123163
     19 H                     0.090808
     20 H                     0.089852
     21 C                    -0.289894
     22 S                    -0.103669
     23 C                     0.082670
     24 H                     0.203753
     25 C                    -0.111414
     26 S                     0.099171
     27 C                    -0.167746
     28 C                    -0.101422
     29 C                    -0.017497
     30 C                     0.396909
     31 C                    -0.129919
     32 S                     0.061163
     33 C                     0.459367
     34 O                    -0.439234
     35 O                    -0.296644
     36 F                    -0.210049
     37 C                    -0.054655
     38 H                     0.117412
     39 H                     0.085685
     40 H                     0.085742
     41 H                     0.219434
     42 H                     0.114521
     43 H                     0.112458
     44 H                     0.193588
  ----------------------------------------
  Sum of atomic charges =     0.000000

                    Cartesian Multipole Moments
 -----------------------------------------------------------------
    Charge (ESU x 10^10)
                 0.0000
    Dipole Moment (Debye)
         X       4.2218      Y       4.6871      Z       3.0633
       Tot       7.0126
    Quadrupole Moments (Debye-Ang)
        XX    -172.7433     XY       6.6776     YY    -193.4761
        XZ     -12.9063     YZ      -6.1169     ZZ    -201.9892

 Total job time:  328.79s(wall), 10653.42s(cpu)
        *  Thank you very much for using Q-Chem.  Have a nice day.  *
