 Q-Chem 5.4, Q-Chem, Inc., Pleasanton, CA (2021)
 Q-Chem 5.4.0 for Intel X86 EM64T Linux

User input:
--------------------------------------------------------------
$molecule
0 1
C	0.255459	-8.519741	0.093711
C	-0.799036	-7.635967	-0.083869
S	1.789425	-7.651740	0.345260
C	-0.418360	-6.261894	-0.018411
H	-1.834294	-7.954738	-0.259169
C	0.987769	-6.079985	0.229701
C	1.555260	-4.798382	0.302697
C	-1.294992	-5.153542	-0.196459
C	-0.726408	-3.869626	-0.127651
C	0.680716	-3.688927	0.123544
O	-2.601852	-5.481075	-0.396706
O	2.868193	-4.479871	0.502673
C	3.691495	-5.356026	1.262918
H	4.614080	-4.790496	1.494604
H	3.974195	-6.268513	0.693738
H	3.199559	-5.658187	2.212720
C	-3.490743	-4.546999	-0.997016
H	-4.416630	-5.107564	-1.226691
H	-3.073934	-4.131473	-1.939526
H	-3.746794	-3.712085	-0.309214
C	1.058247	-2.314326	0.186133
S	-1.527599	-2.295487	-0.256010
C	-0.000000	-1.435180	-0.000000
H	2.092285	-1.993211	0.363896
C	0.000000	0.000000	0.000000
S	0.579852	0.687566	1.510732
C	1.591625	1.895024	0.727629
C	0.583771	0.695758	-1.064665
C	1.475308	1.760606	-0.678287
C	0.542366	0.643841	-2.486150
C	1.355286	1.612843	-3.106916
S	2.154609	2.570627	-1.965735
C	1.522440	1.804778	-4.559972
O	0.924684	1.087757	-5.350277
O	2.349739	2.785679	-5.004375
F	-0.170780	-0.212144	-3.246290
C	2.588082	3.053936	-6.334976
H	3.298799	3.899999	-6.370268
H	1.655291	3.328371	-6.875609
H	3.026021	2.177385	-6.861878
H	2.183053	2.599759	1.321510
H	0.401636	-9.146471	-0.793825
H	0.103519	-9.150570	0.977367
H	0.179195	-1.444158	-1.064992
$end

$rem
JOBTYPE		SP
EXCHANGE	HF
CORRELATION	pRIMP2
BASIS		cc-pvtz
METHOD		rimp2
AUX_BASIS	rimp2-cc-pvtz
SOLVENT_METHOD	PCM
PURECART	11111
SYMMETRY	false
MEM_TOTAL	110000
SCF_CONVERGENCE = 6
THRESH=10
GUI = 2
$end

$solvent
dielectric 4.90
$end
--------------------------------------------------------------

             Standard Nuclear Orientation (Angstroms)
    I     Atom           X                Y                Z
 ----------------------------------------------------------------
    1      C       0.2554590000    -8.5197410000     0.0937110000
    2      C      -0.7990360000    -7.6359670000    -0.0838690000
    3      S       1.7894250000    -7.6517400000     0.3452600000
    4      C      -0.4183600000    -6.2618940000    -0.0184110000
    5      H      -1.8342940000    -7.9547380000    -0.2591690000
    6      C       0.9877690000    -6.0799850000     0.2297010000
    7      C       1.5552600000    -4.7983820000     0.3026970000
    8      C      -1.2949920000    -5.1535420000    -0.1964590000
    9      C      -0.7264080000    -3.8696260000    -0.1276510000
   10      C       0.6807160000    -3.6889270000     0.1235440000
   11      O      -2.6018520000    -5.4810750000    -0.3967060000
   12      O       2.8681930000    -4.4798710000     0.5026730000
   13      C       3.6914950000    -5.3560260000     1.2629180000
   14      H       4.6140800000    -4.7904960000     1.4946040000
   15      H       3.9741950000    -6.2685130000     0.6937380000
   16      H       3.1995590000    -5.6581870000     2.2127200000
   17      C      -3.4907430000    -4.5469990000    -0.9970160000
   18      H      -4.4166300000    -5.1075640000    -1.2266910000
   19      H      -3.0739340000    -4.1314730000    -1.9395260000
   20      H      -3.7467940000    -3.7120850000    -0.3092140000
   21      C       1.0582470000    -2.3143260000     0.1861330000
   22      S      -1.5275990000    -2.2954870000    -0.2560100000
   23      C       0.0000000000    -1.4351800000     0.0000000000
   24      H       2.0922850000    -1.9932110000     0.3638960000
   25      C       0.0000000000     0.0000000000     0.0000000000
   26      S       0.5798520000     0.6875660000     1.5107320000
   27      C       1.5916250000     1.8950240000     0.7276290000
   28      C       0.5837710000     0.6957580000    -1.0646650000
   29      C       1.4753080000     1.7606060000    -0.6782870000
   30      C       0.5423660000     0.6438410000    -2.4861500000
   31      C       1.3552860000     1.6128430000    -3.1069160000
   32      S       2.1546090000     2.5706270000    -1.9657350000
   33      C       1.5224400000     1.8047780000    -4.5599720000
   34      O       0.9246840000     1.0877570000    -5.3502770000
   35      O       2.3497390000     2.7856790000    -5.0043750000
   36      F      -0.1707800000    -0.2121440000    -3.2462900000
   37      C       2.5880820000     3.0539360000    -6.3349760000
   38      H       3.2987990000     3.8999990000    -6.3702680000
   39      H       1.6552910000     3.3283710000    -6.8756090000
   40      H       3.0260210000     2.1773850000    -6.8618780000
   41      H       2.1830530000     2.5997590000     1.3215100000
   42      H       0.4016360000    -9.1464710000    -0.7938250000
   43      H       0.1035190000    -9.1505700000     0.9773670000
   44      H       0.1791950000    -1.4441580000    -1.0649920000
 ----------------------------------------------------------------

   11   -2755.2982606505      6.78e-07  Convergence criterion met
 Total energy in the final basis set =    -2755.2982606505
        RIMP2         total energy =     -2760.3994942804 a.u.

                    Orbital Energies (a.u.)
 --------------------------------------------------------------

 Alpha MOs
 -- Occupied --
-92.0140 -92.0022 -91.9703 -91.9572 -26.3386 -20.6154 -20.5867 -20.5845
-20.5555 -11.4151 -11.3790 -11.3101 -11.3080 -11.3078 -11.3036 -11.2998
-11.2960 -11.2906 -11.2903 -11.2826 -11.2823 -11.2800 -11.2758 -11.2716
-11.2710 -11.2566 -11.2560 -11.2484 -11.2343  -9.0128  -9.0060  -8.9728
 -8.9598  -6.6935  -6.6928  -6.6925  -6.6872  -6.6865  -6.6852  -6.6539
 -6.6530  -6.6517  -6.6410  -6.6401  -6.6391  -1.6518  -1.4754  -1.4089
 -1.4074  -1.3714  -1.2439  -1.2063  -1.1743  -1.1453  -1.0986  -1.0545
 -1.0438  -1.0321  -1.0068  -0.9954  -0.9749  -0.9586  -0.9478  -0.9410
 -0.8911  -0.8766  -0.8597  -0.8104  -0.7955  -0.7838  -0.7819  -0.7694
 -0.7605  -0.7330  -0.7207  -0.7188  -0.6974  -0.6921  -0.6877  -0.6814
 -0.6770  -0.6749  -0.6540  -0.6474  -0.6305  -0.6271  -0.6188  -0.6144
 -0.6104  -0.6099  -0.6003  -0.5946  -0.5798  -0.5645  -0.5560  -0.5547
 -0.5510  -0.5318  -0.5261  -0.5216  -0.5116  -0.5065  -0.5042  -0.4996
 -0.4901  -0.4853  -0.4732  -0.4664  -0.4655  -0.4636  -0.4576  -0.4442
 -0.4216  -0.4010  -0.3828  -0.3685  -0.3496  -0.2983  -0.2870  -0.2185

          Ground-State Mulliken Net Atomic Charges

     Atom                 Charge (a.u.)
  ----------------------------------------
      1 C                    -0.069841
      2 C                    -0.266155
      3 S                    -0.137547
      4 C                    -0.042359
      5 H                     0.192729
      6 C                    -0.052491
      7 C                     0.224011
      8 C                     0.221808
      9 C                    -0.076099
     10 C                    -0.046145
     11 O                    -0.336212
     12 O                    -0.343974
     13 C                    -0.082414
     14 H                     0.119365
     15 H                     0.092111
     16 H                     0.092548
     17 C                    -0.086191
     18 H                     0.122096
     19 H                     0.092537
     20 H                     0.089780
     21 C                    -0.271254
     22 S                    -0.088586
     23 C                     0.049992
     24 H                     0.208155
     25 C                    -0.092917
     26 S                     0.105742
     27 C                    -0.196305
     28 C                    -0.073938
     29 C                    -0.008472
     30 C                     0.342361
     31 C                    -0.122407
     32 S                     0.061168
     33 C                     0.457665
     34 O                    -0.442486
     35 O                    -0.296958
     36 F                    -0.210740
     37 C                    -0.054680
     38 H                     0.117369
     39 H                     0.085473
     40 H                     0.085412
     41 H                     0.217751
     42 H                     0.116662
     43 H                     0.114070
     44 H                     0.189367
  ----------------------------------------
  Sum of atomic charges =     0.000000

                    Cartesian Multipole Moments
 -----------------------------------------------------------------
    Charge (ESU x 10^10)
                 0.0000
    Dipole Moment (Debye)
         X       3.1834      Y       4.2788      Z       2.2224
       Tot       5.7777
    Quadrupole Moments (Debye-Ang)
        XX    -180.1977     XY      12.3204     YY    -183.4272
        XZ      -0.1829     YZ      -8.7755     ZZ    -199.4812

 Total job time:  334.22s(wall), 10883.45s(cpu)
        *  Thank you very much for using Q-Chem.  Have a nice day.  *
