 Q-Chem 5.4, Q-Chem, Inc., Pleasanton, CA (2021)
 Q-Chem 5.4.0 for Intel X86 EM64T Linux

User input:
--------------------------------------------------------------
$molecule
0 1
C	0.093711	-8.519741	-0.255459
C	-0.083869	-7.635967	0.799036
S	0.345260	-7.651740	-1.789425
C	-0.018411	-6.261894	0.418360
H	-0.259169	-7.954738	1.834294
C	0.229701	-6.079985	-0.987769
C	0.302697	-4.798382	-1.555260
C	-0.196459	-5.153542	1.294992
C	-0.127651	-3.869626	0.726408
C	0.123544	-3.688927	-0.680716
O	-0.396706	-5.481075	2.601852
O	0.502673	-4.479871	-2.868193
C	1.262918	-5.356026	-3.691495
H	1.494604	-4.790496	-4.614080
H	0.693738	-6.268513	-3.974195
H	2.212720	-5.658187	-3.199559
C	-0.997016	-4.546999	3.490743
H	-1.226691	-5.107564	4.416630
H	-1.939526	-4.131473	3.073934
H	-0.309214	-3.712085	3.746794
C	0.186133	-2.314326	-1.058247
S	-0.256010	-2.295487	1.527599
C	-0.000000	-1.435180	-0.000000
H	0.363896	-1.993211	-2.092285
C	0.000000	0.000000	0.000000
S	0.382139	0.814215	1.510732
C	1.046923	2.242395	0.727629
C	0.383804	0.823142	-1.064665
C	0.969360	2.082453	-0.678287
C	0.357247	0.762277	-2.486150
C	0.891671	1.908660	-3.106916
S	1.415865	3.040689	-1.965735
C	1.003453	2.137318	-4.559972
O	0.611644	1.290019	-5.350277
O	1.548687	3.298916	-5.004375
F	-0.110054	-0.249117	-3.246290
C	1.709479	3.619721	-6.334976
H	2.177001	4.620902	-6.370268
H	0.737443	3.643380	-6.875609
H	2.359363	2.886384	-6.861878
H	1.435800	3.076190	1.321510
H	-0.793825	-9.146471	-0.401636
H	0.977367	-9.150570	-0.103519
H	-1.064992	-1.444158	-0.179195
$end

$rem
JOBTYPE		SP
EXCHANGE	HF
CORRELATION	pRIMP2
BASIS		cc-pvtz
METHOD		rimp2
AUX_BASIS	rimp2-cc-pvtz
SOLVENT_METHOD	PCM
PURECART	11111
SYMMETRY	false
MEM_TOTAL	110000
SCF_CONVERGENCE = 6
THRESH=10
GUI = 2
$end

$solvent
dielectric 4.90
$end
--------------------------------------------------------------

             Standard Nuclear Orientation (Angstroms)
    I     Atom           X                Y                Z
 ----------------------------------------------------------------
    1      C       0.0937110000    -8.5197410000    -0.2554590000
    2      C      -0.0838690000    -7.6359670000     0.7990360000
    3      S       0.3452600000    -7.6517400000    -1.7894250000
    4      C      -0.0184110000    -6.2618940000     0.4183600000
    5      H      -0.2591690000    -7.9547380000     1.8342940000
    6      C       0.2297010000    -6.0799850000    -0.9877690000
    7      C       0.3026970000    -4.7983820000    -1.5552600000
    8      C      -0.1964590000    -5.1535420000     1.2949920000
    9      C      -0.1276510000    -3.8696260000     0.7264080000
   10      C       0.1235440000    -3.6889270000    -0.6807160000
   11      O      -0.3967060000    -5.4810750000     2.6018520000
   12      O       0.5026730000    -4.4798710000    -2.8681930000
   13      C       1.2629180000    -5.3560260000    -3.6914950000
   14      H       1.4946040000    -4.7904960000    -4.6140800000
   15      H       0.6937380000    -6.2685130000    -3.9741950000
   16      H       2.2127200000    -5.6581870000    -3.1995590000
   17      C      -0.9970160000    -4.5469990000     3.4907430000
   18      H      -1.2266910000    -5.1075640000     4.4166300000
   19      H      -1.9395260000    -4.1314730000     3.0739340000
   20      H      -0.3092140000    -3.7120850000     3.7467940000
   21      C       0.1861330000    -2.3143260000    -1.0582470000
   22      S      -0.2560100000    -2.2954870000     1.5275990000
   23      C       0.0000000000    -1.4351800000     0.0000000000
   24      H       0.3638960000    -1.9932110000    -2.0922850000
   25      C       0.0000000000     0.0000000000     0.0000000000
   26      S       0.3821390000     0.8142150000     1.5107320000
   27      C       1.0469230000     2.2423950000     0.7276290000
   28      C       0.3838040000     0.8231420000    -1.0646650000
   29      C       0.9693600000     2.0824530000    -0.6782870000
   30      C       0.3572470000     0.7622770000    -2.4861500000
   31      C       0.8916710000     1.9086600000    -3.1069160000
   32      S       1.4158650000     3.0406890000    -1.9657350000
   33      C       1.0034530000     2.1373180000    -4.5599720000
   34      O       0.6116440000     1.2900190000    -5.3502770000
   35      O       1.5486870000     3.2989160000    -5.0043750000
   36      F      -0.1100540000    -0.2491170000    -3.2462900000
   37      C       1.7094790000     3.6197210000    -6.3349760000
   38      H       2.1770010000     4.6209020000    -6.3702680000
   39      H       0.7374430000     3.6433800000    -6.8756090000
   40      H       2.3593630000     2.8863840000    -6.8618780000
   41      H       1.4358000000     3.0761900000     1.3215100000
   42      H      -0.7938250000    -9.1464710000    -0.4016360000
   43      H       0.9773670000    -9.1505700000    -0.1035190000
   44      H      -1.0649920000    -1.4441580000    -0.1791950000
 ----------------------------------------------------------------

   11   -2755.3103769412      6.80e-07  Convergence criterion met
 Total energy in the final basis set =    -2755.3103769412
        RIMP2         total energy =     -2760.4075364145 a.u.

                    Orbital Energies (a.u.)
 --------------------------------------------------------------

 Alpha MOs
 -- Occupied --
-92.0145 -91.9943 -91.9830 -91.9593 -26.3400 -20.6115 -20.5896 -20.5870
-20.5487 -11.4094 -11.3795 -11.3193 -11.3117 -11.3098 -11.2976 -11.2947
-11.2883 -11.2878 -11.2863 -11.2855 -11.2845 -11.2822 -11.2788 -11.2743
-11.2714 -11.2602 -11.2598 -11.2511 -11.2407  -9.0132  -8.9983  -8.9852
 -8.9619  -6.6940  -6.6933  -6.6928  -6.6796  -6.6789  -6.6776  -6.6663
 -6.6654  -6.6641  -6.6431  -6.6422  -6.6412  -1.6543  -1.4712  -1.4128
 -1.4090  -1.3663  -1.2391  -1.2105  -1.1772  -1.1439  -1.1007  -1.0511
 -1.0481  -1.0290  -1.0102  -1.0000  -0.9720  -0.9600  -0.9502  -0.9410
 -0.8959  -0.8734  -0.8630  -0.8102  -0.7978  -0.7877  -0.7759  -0.7714
 -0.7630  -0.7350  -0.7234  -0.7202  -0.6988  -0.6943  -0.6849  -0.6783
 -0.6727  -0.6715  -0.6577  -0.6493  -0.6401  -0.6297  -0.6214  -0.6155
 -0.6090  -0.6058  -0.5957  -0.5930  -0.5778  -0.5708  -0.5598  -0.5536
 -0.5451  -0.5360  -0.5319  -0.5231  -0.5145  -0.5095  -0.5070  -0.5018
 -0.4849  -0.4839  -0.4787  -0.4688  -0.4623  -0.4609  -0.4587  -0.4478
 -0.4331  -0.3971  -0.3884  -0.3716  -0.3503  -0.2940  -0.2852  -0.2174

          Ground-State Mulliken Net Atomic Charges

     Atom                 Charge (a.u.)
  ----------------------------------------
      1 C                    -0.070844
      2 C                    -0.250268
      3 S                    -0.132506
      4 C                    -0.050707
      5 H                     0.194699
      6 C                    -0.050203
      7 C                     0.226577
      8 C                     0.235653
      9 C                    -0.075503
     10 C                    -0.037713
     11 O                    -0.333377
     12 O                    -0.343195
     13 C                    -0.083255
     14 H                     0.121720
     15 H                     0.092273
     16 H                     0.092540
     17 C                    -0.088769
     18 H                     0.125291
     19 H                     0.093505
     20 H                     0.090151
     21 C                    -0.317368
     22 S                    -0.097946
     23 C                     0.115155
     24 H                     0.214398
     25 C                    -0.031585
     26 S                     0.096748
     27 C                    -0.262612
     28 C                    -0.105588
     29 C                    -0.006175
     30 C                     0.361869
     31 C                    -0.142805
     32 S                     0.041287
     33 C                     0.459349
     34 O                    -0.453864
     35 O                    -0.298527
     36 F                    -0.215826
     37 C                    -0.054879
     38 H                     0.116584
     39 H                     0.084270
     40 H                     0.084169
     41 H                     0.214724
     42 H                     0.118829
     43 H                     0.116531
     44 H                     0.207194
  ----------------------------------------
  Sum of atomic charges =     0.000000

                    Cartesian Multipole Moments
 -----------------------------------------------------------------
    Charge (ESU x 10^10)
                -0.0000
    Dipole Moment (Debye)
         X       0.5940      Y       1.8511      Z       3.5371
       Tot       4.0362
    Quadrupole Moments (Debye-Ang)
        XX    -194.5170     XY       6.5451     YY    -171.7523
        XZ     -12.4444     YZ     -13.6690     ZZ    -192.7518

 Total job time:  350.63s(wall), 10346.94s(cpu)
        *  Thank you very much for using Q-Chem.  Have a nice day.  *
