 Q-Chem 5.4, Q-Chem, Inc., Pleasanton, CA (2021)
 Q-Chem 5.4.0 for Intel X86 EM64T Linux

User input:
--------------------------------------------------------------
$molecule
0 1
C	-0.000687	-8.519741	0.272104
C	-0.194476	-7.635967	-0.779533
S	0.287581	-7.651740	1.799596
C	-0.125787	-6.261894	-0.399427
H	-0.383826	-7.954738	-1.812314
C	0.121989	-6.079985	1.006762
C	0.247488	-4.798382	1.564994
C	-0.258303	-5.153542	-1.284087
C	-0.128493	-3.869626	-0.726260
C	0.116725	-3.688927	0.681918
O	-0.517104	-5.481075	-2.580622
O	0.508622	-4.479871	2.867144
C	0.075811	-5.356026	3.900814
H	0.173640	-4.790496	4.847002
H	0.707354	-6.268513	3.971794
H	-0.984963	-5.658187	3.763397
C	-0.257016	-4.546999	-3.621225
H	-0.357864	-5.107564	-4.569828
H	0.771211	-4.131473	-3.551910
H	-0.990913	-3.712085	-3.626592
C	0.187034	-2.314326	1.058088
S	-0.281899	-2.295487	-1.523035
C	0.000000	-1.435180	0.000000
H	0.373653	-1.993211	2.090565
C	0.000000	0.000000	0.000000
S	0.780044	0.447780	1.510732
C	2.143774	1.236372	0.727629
C	0.786529	0.454137	-1.064665
C	1.988499	1.149844	-0.678287
C	0.729864	0.419512	-2.486150
C	1.825177	1.052041	-3.106916
S	2.903877	1.678680	-1.965735
C	2.047896	1.175232	-4.559972
O	1.240953	0.705897	-5.350277
O	3.160791	1.814024	-5.004375
F	-0.233039	-0.140940	-3.246290
C	3.476510	1.984585	-6.334976
H	4.433735	2.536545	-6.370268
H	2.693835	2.561503	-6.875609
H	3.588239	1.011113	-6.861878
H	2.940569	1.696327	1.321510
H	0.883319	-9.146471	0.105910
H	-0.883019	-9.150570	0.431555
H	1.062054	-1.444158	-0.195861
$end

$rem
JOBTYPE		SP
EXCHANGE	HF
CORRELATION	pRIMP2
BASIS		cc-pvtz
METHOD		rimp2
AUX_BASIS	rimp2-cc-pvtz
SOLVENT_METHOD	PCM
PURECART	11111
SYMMETRY	false
MEM_TOTAL	110000
SCF_CONVERGENCE = 6
THRESH=10
GUI = 2
$end

$solvent
dielectric 4.90
$end
--------------------------------------------------------------

             Standard Nuclear Orientation (Angstroms)
    I     Atom           X                Y                Z
 ----------------------------------------------------------------
    1      C      -0.0006870000    -8.5197410000     0.2721040000
    2      C      -0.1944760000    -7.6359670000    -0.7795330000
    3      S       0.2875810000    -7.6517400000     1.7995960000
    4      C      -0.1257870000    -6.2618940000    -0.3994270000
    5      H      -0.3838260000    -7.9547380000    -1.8123140000
    6      C       0.1219890000    -6.0799850000     1.0067620000
    7      C       0.2474880000    -4.7983820000     1.5649940000
    8      C      -0.2583030000    -5.1535420000    -1.2840870000
    9      C      -0.1284930000    -3.8696260000    -0.7262600000
   10      C       0.1167250000    -3.6889270000     0.6819180000
   11      O      -0.5171040000    -5.4810750000    -2.5806220000
   12      O       0.5086220000    -4.4798710000     2.8671440000
   13      C       0.0758110000    -5.3560260000     3.9008140000
   14      H       0.1736400000    -4.7904960000     4.8470020000
   15      H       0.7073540000    -6.2685130000     3.9717940000
   16      H      -0.9849630000    -5.6581870000     3.7633970000
   17      C      -0.2570160000    -4.5469990000    -3.6212250000
   18      H      -0.3578640000    -5.1075640000    -4.5698280000
   19      H       0.7712110000    -4.1314730000    -3.5519100000
   20      H      -0.9909130000    -3.7120850000    -3.6265920000
   21      C       0.1870340000    -2.3143260000     1.0580880000
   22      S      -0.2818990000    -2.2954870000    -1.5230350000
   23      C       0.0000000000    -1.4351800000     0.0000000000
   24      H       0.3736530000    -1.9932110000     2.0905650000
   25      C       0.0000000000     0.0000000000     0.0000000000
   26      S       0.7800440000     0.4477800000     1.5107320000
   27      C       2.1437740000     1.2363720000     0.7276290000
   28      C       0.7865290000     0.4541370000    -1.0646650000
   29      C       1.9884990000     1.1498440000    -0.6782870000
   30      C       0.7298640000     0.4195120000    -2.4861500000
   31      C       1.8251770000     1.0520410000    -3.1069160000
   32      S       2.9038770000     1.6786800000    -1.9657350000
   33      C       2.0478960000     1.1752320000    -4.5599720000
   34      O       1.2409530000     0.7058970000    -5.3502770000
   35      O       3.1607910000     1.8140240000    -5.0043750000
   36      F      -0.2330390000    -0.1409400000    -3.2462900000
   37      C       3.4765100000     1.9845850000    -6.3349760000
   38      H       4.4337350000     2.5365450000    -6.3702680000
   39      H       2.6938350000     2.5615030000    -6.8756090000
   40      H       3.5882390000     1.0111130000    -6.8618780000
   41      H       2.9405690000     1.6963270000     1.3215100000
   42      H       0.8833190000    -9.1464710000     0.1059100000
   43      H      -0.8830190000    -9.1505700000     0.4315550000
   44      H       1.0620540000    -1.4441580000    -0.1958610000
 ----------------------------------------------------------------

   11   -2755.2477890171      9.17e-07  Convergence criterion met
 Total energy in the final basis set =    -2755.2477890171
        RIMP2         total energy =     -2760.3678612241 a.u.

                    Orbital Energies (a.u.)
 --------------------------------------------------------------

 Alpha MOs
 -- Occupied --
-92.0151 -92.0026 -91.9707 -91.9579 -26.3347 -20.6138 -20.5869 -20.5860
-20.5527 -11.4128 -11.3779 -11.3160 -11.3081 -11.3071 -11.3033 -11.3028
-11.2924 -11.2896 -11.2859 -11.2828 -11.2824 -11.2802 -11.2794 -11.2719
-11.2674 -11.2576 -11.2551 -11.2497 -11.2377  -9.0147  -9.0062  -8.9737
 -8.9605  -6.6953  -6.6945  -6.6943  -6.6874  -6.6868  -6.6855  -6.6546
 -6.6538  -6.6525  -6.6417  -6.6408  -6.6398  -1.6499  -1.4737  -1.4096
 -1.4084  -1.3693  -1.2525  -1.2075  -1.1772  -1.1470  -1.0979  -1.0560
 -1.0449  -1.0341  -1.0054  -0.9972  -0.9753  -0.9584  -0.9489  -0.9413
 -0.8927  -0.8774  -0.8556  -0.8146  -0.7968  -0.7860  -0.7772  -0.7648
 -0.7586  -0.7325  -0.7227  -0.7164  -0.7007  -0.6943  -0.6870  -0.6802
 -0.6772  -0.6753  -0.6546  -0.6478  -0.6352  -0.6279  -0.6200  -0.6144
 -0.6104  -0.6087  -0.6036  -0.5944  -0.5736  -0.5674  -0.5607  -0.5576
 -0.5474  -0.5337  -0.5293  -0.5215  -0.5121  -0.5074  -0.5042  -0.4996
 -0.4865  -0.4837  -0.4760  -0.4637  -0.4631  -0.4593  -0.4526  -0.4458
 -0.4289  -0.3990  -0.3775  -0.3698  -0.3518  -0.2996  -0.2851  -0.2132

          Ground-State Mulliken Net Atomic Charges

     Atom                 Charge (a.u.)
  ----------------------------------------
      1 C                    -0.070445
      2 C                    -0.256064
      3 S                    -0.137126
      4 C                    -0.045845
      5 H                     0.194127
      6 C                    -0.048974
      7 C                     0.220124
      8 C                     0.226892
      9 C                    -0.070789
     10 C                    -0.038405
     11 O                    -0.334817
     12 O                    -0.344348
     13 C                    -0.082909
     14 H                     0.119444
     15 H                     0.091949
     16 H                     0.093023
     17 C                    -0.087352
     18 H                     0.123203
     19 H                     0.091558
     20 H                     0.092573
     21 C                    -0.288702
     22 S                    -0.104895
     23 C                     0.085809
     24 H                     0.198072
     25 C                    -0.132278
     26 S                     0.109453
     27 C                    -0.188040
     28 C                    -0.037443
     29 C                    -0.030042
     30 C                     0.346010
     31 C                    -0.123183
     32 S                     0.066400
     33 C                     0.457850
     34 O                    -0.446564
     35 O                    -0.298094
     36 F                    -0.209505
     37 C                    -0.054816
     38 H                     0.116970
     39 H                     0.085118
     40 H                     0.084760
     41 H                     0.220095
     42 H                     0.117729
     43 H                     0.115531
     44 H                     0.173948
  ----------------------------------------
  Sum of atomic charges =     0.000000

                    Cartesian Multipole Moments
 -----------------------------------------------------------------
    Charge (ESU x 10^10)
                -0.0000
    Dipole Moment (Debye)
         X       4.6573      Y       2.3157      Z       2.7689
       Tot       5.8924
    Quadrupole Moments (Debye-Ang)
        XX    -187.2177     XY       9.3150     YY    -185.2782
        XZ     -12.6694     YZ      -1.2599     ZZ    -186.3488

 Total job time:  343.04s(wall), 11031.10s(cpu)
        *  Thank you very much for using Q-Chem.  Have a nice day.  *
