 Q-Chem 5.4, Q-Chem, Inc., Pleasanton, CA (2021)
 Q-Chem 5.4.0 for Intel X86 EM64T Linux

User input:
--------------------------------------------------------------
$molecule
0 1
C	-0.174379	-8.519741	-0.208886
C	0.650052	-7.635967	0.472151
S	-1.377058	-7.651740	-1.193717
C	0.353105	-6.261894	0.225125
H	1.458961	-7.954738	1.141594
C	-0.740583	-6.079985	-0.692811
C	-1.195546	-4.798382	-1.039773
C	1.023267	-5.153542	0.817634
C	0.565262	-3.869626	0.473754
C	-0.527745	-3.688927	-0.447350
O	2.054917	-5.481075	1.644483
O	-2.232592	-4.479871	-1.869424
C	-2.565470	-5.356026	-2.939466
H	-3.248608	-4.790496	-3.601405
H	-3.094885	-6.268513	-2.587892
H	-1.664539	-5.658187	-3.516052
C	2.524564	-4.546999	2.608813
H	3.211568	-5.107564	3.270661
H	1.692342	-4.131473	3.216646
H	3.090211	-3.712085	2.141184
C	-0.823402	-2.314326	-0.690319
S	1.194935	-2.295487	0.985511
C	-0.000000	-1.435180	-0.000000
H	-1.630024	-1.993211	-1.361286
C	0.000000	0.000000	0.000000
S	0.382139	0.814215	1.510732
C	1.046923	2.242395	0.727629
C	0.383804	0.823142	-1.064665
C	0.969360	2.082453	-0.678287
C	0.357247	0.762277	-2.486150
C	0.891671	1.908660	-3.106916
S	1.415865	3.040689	-1.965735
C	1.003453	2.137318	-4.559972
O	0.611644	1.290019	-5.350277
O	1.548687	3.298916	-5.004375
F	-0.110054	-0.249117	-3.246290
C	1.709479	3.619721	-6.334976
H	2.177001	4.620902	-6.370268
H	0.737443	3.643380	-6.875609
H	2.359363	2.886384	-6.861878
H	1.435800	3.076190	1.321510
H	-0.744739	-9.146471	0.486655
H	0.399033	-9.150570	-0.898184
H	-0.687683	-1.444158	0.832713
$end

$rem
JOBTYPE		SP
EXCHANGE	HF
CORRELATION	pRIMP2
BASIS		cc-pvtz
METHOD		rimp2
AUX_BASIS	rimp2-cc-pvtz
SOLVENT_METHOD	PCM
PURECART	11111
SYMMETRY	false
MEM_TOTAL	110000
SCF_CONVERGENCE = 6
THRESH=10
GUI = 2
$end

$solvent
dielectric 4.90
$end
--------------------------------------------------------------

             Standard Nuclear Orientation (Angstroms)
    I     Atom           X                Y                Z
 ----------------------------------------------------------------
    1      C      -0.1743790000    -8.5197410000    -0.2088860000
    2      C       0.6500520000    -7.6359670000     0.4721510000
    3      S      -1.3770580000    -7.6517400000    -1.1937170000
    4      C       0.3531050000    -6.2618940000     0.2251250000
    5      H       1.4589610000    -7.9547380000     1.1415940000
    6      C      -0.7405830000    -6.0799850000    -0.6928110000
    7      C      -1.1955460000    -4.7983820000    -1.0397730000
    8      C       1.0232670000    -5.1535420000     0.8176340000
    9      C       0.5652620000    -3.8696260000     0.4737540000
   10      C      -0.5277450000    -3.6889270000    -0.4473500000
   11      O       2.0549170000    -5.4810750000     1.6444830000
   12      O      -2.2325920000    -4.4798710000    -1.8694240000
   13      C      -2.5654700000    -5.3560260000    -2.9394660000
   14      H      -3.2486080000    -4.7904960000    -3.6014050000
   15      H      -3.0948850000    -6.2685130000    -2.5878920000
   16      H      -1.6645390000    -5.6581870000    -3.5160520000
   17      C       2.5245640000    -4.5469990000     2.6088130000
   18      H       3.2115680000    -5.1075640000     3.2706610000
   19      H       1.6923420000    -4.1314730000     3.2166460000
   20      H       3.0902110000    -3.7120850000     2.1411840000
   21      C      -0.8234020000    -2.3143260000    -0.6903190000
   22      S       1.1949350000    -2.2954870000     0.9855110000
   23      C       0.0000000000    -1.4351800000     0.0000000000
   24      H      -1.6300240000    -1.9932110000    -1.3612860000
   25      C       0.0000000000     0.0000000000     0.0000000000
   26      S       0.3821390000     0.8142150000     1.5107320000
   27      C       1.0469230000     2.2423950000     0.7276290000
   28      C       0.3838040000     0.8231420000    -1.0646650000
   29      C       0.9693600000     2.0824530000    -0.6782870000
   30      C       0.3572470000     0.7622770000    -2.4861500000
   31      C       0.8916710000     1.9086600000    -3.1069160000
   32      S       1.4158650000     3.0406890000    -1.9657350000
   33      C       1.0034530000     2.1373180000    -4.5599720000
   34      O       0.6116440000     1.2900190000    -5.3502770000
   35      O       1.5486870000     3.2989160000    -5.0043750000
   36      F      -0.1100540000    -0.2491170000    -3.2462900000
   37      C       1.7094790000     3.6197210000    -6.3349760000
   38      H       2.1770010000     4.6209020000    -6.3702680000
   39      H       0.7374430000     3.6433800000    -6.8756090000
   40      H       2.3593630000     2.8863840000    -6.8618780000
   41      H       1.4358000000     3.0761900000     1.3215100000
   42      H      -0.7447390000    -9.1464710000     0.4866550000
   43      H       0.3990330000    -9.1505700000    -0.8981840000
   44      H      -0.6876830000    -1.4441580000     0.8327130000
 ----------------------------------------------------------------

   11   -2755.3142650282      7.59e-07  Convergence criterion met
 Total energy in the final basis set =    -2755.3142650282
        RIMP2         total energy =     -2760.4090857602 a.u.

                    Orbital Energies (a.u.)
 --------------------------------------------------------------

 Alpha MOs
 -- Occupied --
-92.0177 -91.9963 -91.9790 -91.9573 -26.3362 -20.6130 -20.5866 -20.5864
-20.5515 -11.4116 -11.3780 -11.3092 -11.3085 -11.3064 -11.2999 -11.2991
-11.2976 -11.2890 -11.2847 -11.2828 -11.2818 -11.2818 -11.2801 -11.2725
-11.2718 -11.2576 -11.2566 -11.2487 -11.2351  -9.0163  -9.0003  -8.9813
 -8.9599  -6.6970  -6.6965  -6.6960  -6.6816  -6.6809  -6.6796  -6.6623
 -6.6614  -6.6601  -6.6411  -6.6402  -6.6392  -1.6492  -1.4728  -1.4100
 -1.4082  -1.3683  -1.2391  -1.2090  -1.1748  -1.1444  -1.0986  -1.0507
 -1.0456  -1.0310  -1.0085  -0.9975  -0.9730  -0.9596  -0.9482  -0.9400
 -0.8935  -0.8721  -0.8637  -0.8074  -0.7959  -0.7852  -0.7773  -0.7722
 -0.7643  -0.7324  -0.7219  -0.7174  -0.6969  -0.6928  -0.6818  -0.6793
 -0.6733  -0.6647  -0.6560  -0.6480  -0.6349  -0.6296  -0.6192  -0.6140
 -0.6110  -0.6075  -0.5965  -0.5928  -0.5779  -0.5667  -0.5582  -0.5529
 -0.5469  -0.5367  -0.5305  -0.5228  -0.5134  -0.5074  -0.5050  -0.5001
 -0.4866  -0.4852  -0.4764  -0.4731  -0.4628  -0.4620  -0.4591  -0.4453
 -0.4265  -0.4000  -0.3849  -0.3696  -0.3513  -0.2938  -0.2868  -0.2181

          Ground-State Mulliken Net Atomic Charges

     Atom                 Charge (a.u.)
  ----------------------------------------
      1 C                    -0.069836
      2 C                    -0.265429
      3 S                    -0.136827
      4 C                    -0.042509
      5 H                     0.192689
      6 C                    -0.052404
      7 C                     0.222382
      8 C                     0.221813
      9 C                    -0.077524
     10 C                    -0.049736
     11 O                    -0.334864
     12 O                    -0.343389
     13 C                    -0.082238
     14 H                     0.120371
     15 H                     0.091402
     16 H                     0.093204
     17 C                    -0.087322
     18 H                     0.123513
     19 H                     0.091754
     20 H                     0.089776
     21 C                    -0.258908
     22 S                    -0.069395
     23 C                     0.047265
     24 H                     0.205368
     25 C                    -0.092093
     26 S                     0.093917
     27 C                    -0.218631
     28 C                    -0.041130
     29 C                    -0.011988
     30 C                     0.365357
     31 C                    -0.141812
     32 S                     0.042381
     33 C                     0.457895
     34 O                    -0.448196
     35 O                    -0.297687
     36 F                    -0.211589
     37 C                    -0.054885
     38 H                     0.116819
     39 H                     0.084668
     40 H                     0.084864
     41 H                     0.216828
     42 H                     0.116511
     43 H                     0.114445
     44 H                     0.195171
  ----------------------------------------
  Sum of atomic charges =     0.000000

                    Cartesian Multipole Moments
 -----------------------------------------------------------------
    Charge (ESU x 10^10)
                -0.0000
    Dipole Moment (Debye)
         X       1.3364      Y       3.7761      Z       3.6749
       Tot       5.4360
    Quadrupole Moments (Debye-Ang)
        XX    -193.6306     XY       3.4920     YY    -179.3852
        XZ       3.5151     YZ     -12.1349     ZZ    -192.0767

 Total job time:  352.81s(wall), 10245.78s(cpu)
        *  Thank you very much for using Q-Chem.  Have a nice day.  *
