 Q-Chem 5.4, Q-Chem, Inc., Pleasanton, CA (2021)
 Q-Chem 5.4.0 for Intel X86 EM64T Linux

User input:
--------------------------------------------------------------
$molecule
0 1
C	-0.235993	-8.519741	0.135457
C	0.577858	-7.635967	-0.558188
S	-1.414705	-7.651740	1.148850
C	0.283020	-6.261894	-0.308648
H	1.377597	-7.954738	-1.238560
C	-0.810887	-6.079985	0.609026
C	-1.231581	-4.798382	0.996828
C	0.982901	-5.153542	-0.865740
C	0.564713	-3.869626	-0.474408
C	-0.532196	-3.688927	0.442046
O	1.976332	-5.481075	-1.738137
O	-2.228709	-4.479871	1.874052
C	-3.340298	-5.356026	2.016062
H	-4.110807	-4.790496	2.573877
H	-3.085998	-6.268513	2.598484
H	-3.751679	-5.658187	1.028695
C	3.007565	-4.546999	-2.033195
H	3.778655	-5.107564	-2.594833
H	3.461650	-4.131473	-1.108067
H	2.645264	-3.712085	-2.671451
C	-0.822814	-2.314326	0.691020
S	1.178037	-2.295487	-1.005649
C	-0.000000	-1.435180	-0.000000
H	-1.623656	-1.993211	1.368875
C	0.000000	0.000000	0.000000
S	0.690437	0.576430	1.510732
C	1.896512	1.589852	0.727629
C	0.695720	0.583817	-1.064665
C	1.758621	1.477674	-0.678287
C	0.645928	0.539878	-2.486150
C	1.614763	1.352997	-3.106916
S	2.568261	2.157430	-1.965735
C	1.812707	1.512991	-4.559972
O	1.099523	0.910662	-5.350277
O	2.797769	2.335330	-5.004375
F	-0.205024	-0.179266	-3.246290
C	3.079074	2.558124	-6.334976
H	3.925910	3.267919	-6.370268
H	2.208109	2.990367	-6.875609
H	3.358147	1.618843	-6.861878
H	2.601331	2.181180	1.321510
H	0.349939	-9.146471	0.817932
H	-0.815247	-9.150570	-0.548939
H	0.700647	-1.444158	0.821835
$end

$rem
JOBTYPE		SP
EXCHANGE	HF
CORRELATION	pRIMP2
BASIS		cc-pvtz
METHOD		rimp2
AUX_BASIS	rimp2-cc-pvtz
SOLVENT_METHOD	PCM
PURECART	11111
SYMMETRY	false
MEM_TOTAL	110000
SCF_CONVERGENCE = 6
THRESH=10
GUI = 2
$end

$solvent
dielectric 4.90
$end
--------------------------------------------------------------

             Standard Nuclear Orientation (Angstroms)
    I     Atom           X                Y                Z
 ----------------------------------------------------------------
    1      C      -0.2359930000    -8.5197410000     0.1354570000
    2      C       0.5778580000    -7.6359670000    -0.5581880000
    3      S      -1.4147050000    -7.6517400000     1.1488500000
    4      C       0.2830200000    -6.2618940000    -0.3086480000
    5      H       1.3775970000    -7.9547380000    -1.2385600000
    6      C      -0.8108870000    -6.0799850000     0.6090260000
    7      C      -1.2315810000    -4.7983820000     0.9968280000
    8      C       0.9829010000    -5.1535420000    -0.8657400000
    9      C       0.5647130000    -3.8696260000    -0.4744080000
   10      C      -0.5321960000    -3.6889270000     0.4420460000
   11      O       1.9763320000    -5.4810750000    -1.7381370000
   12      O      -2.2287090000    -4.4798710000     1.8740520000
   13      C      -3.3402980000    -5.3560260000     2.0160620000
   14      H      -4.1108070000    -4.7904960000     2.5738770000
   15      H      -3.0859980000    -6.2685130000     2.5984840000
   16      H      -3.7516790000    -5.6581870000     1.0286950000
   17      C       3.0075650000    -4.5469990000    -2.0331950000
   18      H       3.7786550000    -5.1075640000    -2.5948330000
   19      H       3.4616500000    -4.1314730000    -1.1080670000
   20      H       2.6452640000    -3.7120850000    -2.6714510000
   21      C      -0.8228140000    -2.3143260000     0.6910200000
   22      S       1.1780370000    -2.2954870000    -1.0056490000
   23      C       0.0000000000    -1.4351800000     0.0000000000
   24      H      -1.6236560000    -1.9932110000     1.3688750000
   25      C       0.0000000000     0.0000000000     0.0000000000
   26      S       0.6904370000     0.5764300000     1.5107320000
   27      C       1.8965120000     1.5898520000     0.7276290000
   28      C       0.6957200000     0.5838170000    -1.0646650000
   29      C       1.7586210000     1.4776740000    -0.6782870000
   30      C       0.6459280000     0.5398780000    -2.4861500000
   31      C       1.6147630000     1.3529970000    -3.1069160000
   32      S       2.5682610000     2.1574300000    -1.9657350000
   33      C       1.8127070000     1.5129910000    -4.5599720000
   34      O       1.0995230000     0.9106620000    -5.3502770000
   35      O       2.7977690000     2.3353300000    -5.0043750000
   36      F      -0.2050240000    -0.1792660000    -3.2462900000
   37      C       3.0790740000     2.5581240000    -6.3349760000
   38      H       3.9259100000     3.2679190000    -6.3702680000
   39      H       2.2081090000     2.9903670000    -6.8756090000
   40      H       3.3581470000     1.6188430000    -6.8618780000
   41      H       2.6013310000     2.1811800000     1.3215100000
   42      H       0.3499390000    -9.1464710000     0.8179320000
   43      H      -0.8152470000    -9.1505700000    -0.5489390000
   44      H       0.7006470000    -1.4441580000     0.8218350000
 ----------------------------------------------------------------

   11   -2755.2703030924      8.73e-07  Convergence criterion met
 Total energy in the final basis set =    -2755.2703030924
        RIMP2         total energy =     -2760.3776188405 a.u.

                    Orbital Energies (a.u.)
 --------------------------------------------------------------

 Alpha MOs
 -- Occupied --
-92.0104 -92.0014 -91.9760 -91.9561 -26.3351 -20.6155 -20.5863 -20.5848
-20.5558 -11.4152 -11.3787 -11.3140 -11.3088 -11.3077 -11.3038 -11.2998
-11.2953 -11.2914 -11.2902 -11.2833 -11.2821 -11.2810 -11.2737 -11.2698
-11.2691 -11.2562 -11.2535 -11.2474 -11.2320  -9.0106  -9.0052  -8.9783
 -8.9587  -6.6913  -6.6904  -6.6901  -6.6864  -6.6858  -6.6845  -6.6593
 -6.6585  -6.6572  -6.6399  -6.6390  -6.6380  -1.6483  -1.4755  -1.4087
 -1.4076  -1.3714  -1.2480  -1.2079  -1.1749  -1.1467  -1.0970  -1.0549
 -1.0436  -1.0355  -1.0066  -0.9955  -0.9757  -0.9592  -0.9476  -0.9405
 -0.8918  -0.8755  -0.8587  -0.8116  -0.7953  -0.7847  -0.7770  -0.7716
 -0.7627  -0.7338  -0.7209  -0.7167  -0.6968  -0.6945  -0.6814  -0.6807
 -0.6760  -0.6679  -0.6549  -0.6474  -0.6364  -0.6273  -0.6179  -0.6142
 -0.6110  -0.6104  -0.6018  -0.5922  -0.5786  -0.5666  -0.5610  -0.5556
 -0.5449  -0.5335  -0.5306  -0.5215  -0.5117  -0.5064  -0.5053  -0.4997
 -0.4899  -0.4824  -0.4743  -0.4670  -0.4643  -0.4633  -0.4587  -0.4448
 -0.4235  -0.4002  -0.3831  -0.3701  -0.3506  -0.2974  -0.2859  -0.2137

          Ground-State Mulliken Net Atomic Charges

     Atom                 Charge (a.u.)
  ----------------------------------------
      1 C                    -0.069386
      2 C                    -0.273705
      3 S                    -0.140326
      4 C                    -0.044144
      5 H                     0.191717
      6 C                    -0.050031
      7 C                     0.218138
      8 C                     0.219571
      9 C                    -0.069332
     10 C                    -0.031857
     11 O                    -0.335259
     12 O                    -0.343632
     13 C                    -0.082603
     14 H                     0.119366
     15 H                     0.091969
     16 H                     0.093010
     17 C                    -0.088561
     18 H                     0.123412
     19 H                     0.090893
     20 H                     0.090588
     21 C                    -0.315588
     22 S                    -0.106114
     23 C                     0.109490
     24 H                     0.203281
     25 C                    -0.099857
     26 S                     0.091263
     27 C                    -0.175452
     28 C                    -0.096693
     29 C                    -0.019232
     30 C                     0.382886
     31 C                    -0.129175
     32 S                     0.057711
     33 C                     0.459304
     34 O                    -0.440430
     35 O                    -0.296835
     36 F                    -0.209714
     37 C                    -0.054643
     38 H                     0.117355
     39 H                     0.085604
     40 H                     0.085525
     41 H                     0.218725
     42 H                     0.115394
     43 H                     0.113240
     44 H                     0.194126
  ----------------------------------------
  Sum of atomic charges =     0.000000

                    Cartesian Multipole Moments
 -----------------------------------------------------------------
    Charge (ESU x 10^10)
                 0.0000
    Dipole Moment (Debye)
         X       4.1503      Y       4.0594      Z       2.9918
       Tot       6.5310
    Quadrupole Moments (Debye-Ang)
        XX    -174.6074     XY       6.6953     YY    -190.2787
        XZ     -15.5014     YZ      -5.4602     ZZ    -200.8178

 Total job time:  331.92s(wall), 10654.55s(cpu)
        *  Thank you very much for using Q-Chem.  Have a nice day.  *
