 Q-Chem 5.4, Q-Chem, Inc., Pleasanton, CA (2021)
 Q-Chem 5.4.0 for Intel X86 EM64T Linux

User input:
--------------------------------------------------------------
$molecule
0 1
C	-0.092419	-8.519741	-0.255929
C	0.449364	-7.635967	0.666007
S	-0.885736	-7.651740	-1.592708
C	0.254813	-6.261894	0.332317
H	0.980526	-7.954738	1.571741
C	-0.458965	-6.079985	-0.904324
C	-0.767823	-4.798382	-1.385968
C	0.681909	-5.153542	1.118303
C	0.369139	-3.869626	0.638514
C	-0.342916	-3.688927	-0.600871
O	1.368544	-5.481075	2.248132
O	-1.458570	-4.479871	-2.520275
C	-1.405396	-5.356026	-3.639637
H	-1.820940	-4.790496	-4.495304
H	-2.023129	-6.268513	-3.490336
H	-0.361595	-5.658187	-3.873314
C	1.480048	-4.546999	3.314934
H	1.899255	-5.107564	4.171837
H	0.490123	-4.131473	3.601473
H	2.171521	-3.712085	3.068969
C	-0.537642	-2.314326	-0.930308
S	0.785807	-2.295487	1.334769
C	0.000000	-1.435180	0.000000
H	-1.066134	-1.993211	-1.836691
C	0.000000	0.000000	0.000000
S	0.309721	0.844422	1.510732
C	0.847502	2.325108	0.727629
C	0.310602	0.853460	-1.064665
C	0.784173	2.159014	-0.678287
C	0.289451	0.790512	-2.486150
C	0.721927	1.979112	-3.106916
S	1.145464	3.152519	-1.965735
C	0.813355	2.216642	-4.559972
O	0.496884	1.338418	-5.350277
O	1.255274	3.421340	-5.004375
F	-0.087923	-0.257761	-3.246290
C	1.387494	3.754937	-6.334976
H	1.765978	4.793056	-6.370268
H	0.417095	3.693789	-6.875609
H	2.098820	3.081033	-6.861878
H	1.162229	3.189623	1.321510
H	-0.866272	-9.146471	0.202590
H	0.682165	-9.150570	-0.707539
H	-0.931016	-1.444158	0.547293
$end

$rem
JOBTYPE		SP
EXCHANGE	HF
CORRELATION	pRIMP2
BASIS		cc-pvtz
METHOD		rimp2
AUX_BASIS	rimp2-cc-pvtz
SOLVENT_METHOD	PCM
PURECART	11111
SYMMETRY	false
MEM_TOTAL	110000
SCF_CONVERGENCE = 6
THRESH=10
GUI = 2
$end

$solvent
dielectric 4.90
$end
--------------------------------------------------------------

             Standard Nuclear Orientation (Angstroms)
    I     Atom           X                Y                Z
 ----------------------------------------------------------------
    1      C      -0.0924190000    -8.5197410000    -0.2559290000
    2      C       0.4493640000    -7.6359670000     0.6660070000
    3      S      -0.8857360000    -7.6517400000    -1.5927080000
    4      C       0.2548130000    -6.2618940000     0.3323170000
    5      H       0.9805260000    -7.9547380000     1.5717410000
    6      C      -0.4589650000    -6.0799850000    -0.9043240000
    7      C      -0.7678230000    -4.7983820000    -1.3859680000
    8      C       0.6819090000    -5.1535420000     1.1183030000
    9      C       0.3691390000    -3.8696260000     0.6385140000
   10      C      -0.3429160000    -3.6889270000    -0.6008710000
   11      O       1.3685440000    -5.4810750000     2.2481320000
   12      O      -1.4585700000    -4.4798710000    -2.5202750000
   13      C      -1.4053960000    -5.3560260000    -3.6396370000
   14      H      -1.8209400000    -4.7904960000    -4.4953040000
   15      H      -2.0231290000    -6.2685130000    -3.4903360000
   16      H      -0.3615950000    -5.6581870000    -3.8733140000
   17      C       1.4800480000    -4.5469990000     3.3149340000
   18      H       1.8992550000    -5.1075640000     4.1718370000
   19      H       0.4901230000    -4.1314730000     3.6014730000
   20      H       2.1715210000    -3.7120850000     3.0689690000
   21      C      -0.5376420000    -2.3143260000    -0.9303080000
   22      S       0.7858070000    -2.2954870000     1.3347690000
   23      C       0.0000000000    -1.4351800000     0.0000000000
   24      H      -1.0661340000    -1.9932110000    -1.8366910000
   25      C       0.0000000000     0.0000000000     0.0000000000
   26      S       0.3097210000     0.8444220000     1.5107320000
   27      C       0.8475020000     2.3251080000     0.7276290000
   28      C       0.3106020000     0.8534600000    -1.0646650000
   29      C       0.7841730000     2.1590140000    -0.6782870000
   30      C       0.2894510000     0.7905120000    -2.4861500000
   31      C       0.7219270000     1.9791120000    -3.1069160000
   32      S       1.1454640000     3.1525190000    -1.9657350000
   33      C       0.8133550000     2.2166420000    -4.5599720000
   34      O       0.4968840000     1.3384180000    -5.3502770000
   35      O       1.2552740000     3.4213400000    -5.0043750000
   36      F      -0.0879230000    -0.2577610000    -3.2462900000
   37      C       1.3874940000     3.7549370000    -6.3349760000
   38      H       1.7659780000     4.7930560000    -6.3702680000
   39      H       0.4170950000     3.6937890000    -6.8756090000
   40      H       2.0988200000     3.0810330000    -6.8618780000
   41      H       1.1622290000     3.1896230000     1.3215100000
   42      H      -0.8662720000    -9.1464710000     0.2025900000
   43      H       0.6821650000    -9.1505700000    -0.7075390000
   44      H      -0.9310160000    -1.4441580000     0.5472930000
 ----------------------------------------------------------------

   11   -2755.3170723278      7.56e-07  Convergence criterion met
 Total energy in the final basis set =    -2755.3170723278
        RIMP2         total energy =     -2760.4107083360 a.u.

                    Orbital Energies (a.u.)
 --------------------------------------------------------------

 Alpha MOs
 -- Occupied --
-92.0160 -91.9940 -91.9823 -91.9584 -26.3376 -20.6120 -20.5883 -20.5867
-20.5495 -11.4099 -11.3789 -11.3178 -11.3093 -11.3093 -11.2973 -11.2960
-11.2910 -11.2885 -11.2857 -11.2842 -11.2832 -11.2819 -11.2792 -11.2733
-11.2723 -11.2589 -11.2589 -11.2500 -11.2381  -9.0146  -8.9982  -8.9844
 -8.9610  -6.6954  -6.6948  -6.6943  -6.6794  -6.6788  -6.6774  -6.6655
 -6.6646  -6.6633  -6.6423  -6.6413  -6.6403  -1.6511  -1.4716  -1.4116
 -1.4086  -1.3669  -1.2385  -1.2102  -1.1762  -1.1440  -1.0998  -1.0503
 -1.0472  -1.0299  -1.0096  -0.9991  -0.9722  -0.9598  -0.9493  -0.9404
 -0.8950  -0.8720  -0.8641  -0.8086  -0.7970  -0.7867  -0.7766  -0.7705
 -0.7645  -0.7324  -0.7228  -0.7187  -0.6979  -0.6932  -0.6837  -0.6785
 -0.6725  -0.6670  -0.6572  -0.6488  -0.6383  -0.6301  -0.6204  -0.6148
 -0.6098  -0.6062  -0.5953  -0.5929  -0.5772  -0.5695  -0.5592  -0.5523
 -0.5480  -0.5366  -0.5324  -0.5227  -0.5146  -0.5086  -0.5061  -0.5005
 -0.4850  -0.4846  -0.4786  -0.4721  -0.4620  -0.4611  -0.4587  -0.4464
 -0.4307  -0.3987  -0.3868  -0.3708  -0.3514  -0.2940  -0.2853  -0.2179

          Ground-State Mulliken Net Atomic Charges

     Atom                 Charge (a.u.)
  ----------------------------------------
      1 C                    -0.070357
      2 C                    -0.257394
      3 S                    -0.134186
      4 C                    -0.045331
      5 H                     0.193706
      6 C                    -0.052589
      7 C                     0.224436
      8 C                     0.225344
      9 C                    -0.077366
     10 C                    -0.047079
     11 O                    -0.333922
     12 O                    -0.343074
     13 C                    -0.082466
     14 H                     0.121215
     15 H                     0.091547
     16 H                     0.092959
     17 C                    -0.088236
     18 H                     0.124345
     19 H                     0.092691
     20 H                     0.089857
     21 C                    -0.275878
     22 S                    -0.078588
     23 C                     0.087493
     24 H                     0.205309
     25 C                    -0.094298
     26 S                     0.079666
     27 C                    -0.233287
     28 C                    -0.039761
     29 C                    -0.021508
     30 C                     0.377848
     31 C                    -0.144679
     32 S                     0.035616
     33 C                     0.458093
     34 O                    -0.451968
     35 O                    -0.298140
     36 F                    -0.213464
     37 C                    -0.054928
     38 H                     0.116590
     39 H                     0.084359
     40 H                     0.084422
     41 H                     0.215893
     42 H                     0.117718
     43 H                     0.115553
     44 H                     0.203837
  ----------------------------------------
  Sum of atomic charges =     0.000000

                    Cartesian Multipole Moments
 -----------------------------------------------------------------
    Charge (ESU x 10^10)
                -0.0000
    Dipole Moment (Debye)
         X       0.6623      Y       2.6712      Z       3.8012
       Tot       4.6929
    Quadrupole Moments (Debye-Ang)
        XX    -199.0086     XY       2.8507     YY    -174.6047
        XZ      -0.0169     YZ     -13.2791     ZZ    -188.7602

 Total job time:  326.94s(wall), 10588.04s(cpu)
        *  Thank you very much for using Q-Chem.  Have a nice day.  *
