 Q-Chem 5.4, Q-Chem, Inc., Pleasanton, CA (2021)
 Q-Chem 5.4.0 for Intel X86 EM64T Linux

User input:
--------------------------------------------------------------
$molecule
0 1
C	0.046574	-8.519741	0.268090
C	-0.326886	-7.635967	-0.733920
S	0.595708	-7.651740	1.722318
C	-0.193236	-6.261894	-0.371516
H	-0.692700	-7.954738	-1.718130
C	0.294958	-6.079985	0.970283
C	0.515487	-4.798382	1.498243
C	-0.477358	-5.153542	-1.219725
C	-0.252655	-3.869626	-0.692914
C	0.233366	-3.688927	0.651289
O	-0.957369	-5.481075	-2.451623
O	0.998769	-4.479871	2.735264
C	0.752029	-5.356026	3.828387
H	1.012675	-4.790496	4.743213
H	1.386303	-6.268513	3.788623
H	-0.316492	-5.658187	3.877260
C	-0.881930	-4.546999	-3.521580
H	-1.145969	-5.107564	-4.438260
H	0.142712	-4.131473	-3.631868
H	-1.605610	-3.712085	-3.399425
C	0.367928	-2.314326	1.009535
S	-0.542088	-2.295487	-1.450945
C	-0.000000	-1.435180	-0.000000
H	0.730999	-1.993211	1.993920
C	0.000000	0.000000	0.000000
S	0.382139	0.814215	1.510732
C	1.046923	2.242395	0.727629
C	0.383804	0.823142	-1.064665
C	0.969360	2.082453	-0.678287
C	0.357247	0.762277	-2.486150
C	0.891671	1.908660	-3.106916
S	1.415865	3.040689	-1.965735
C	1.003453	2.137318	-4.559972
O	0.611644	1.290019	-5.350277
O	1.548687	3.298916	-5.004375
F	-0.110054	-0.249117	-3.246290
C	1.709479	3.619721	-6.334976
H	2.177001	4.620902	-6.370268
H	0.737443	3.643380	-6.875609
H	2.359363	2.886384	-6.861878
H	1.435800	3.076190	1.321510
H	0.888291	-9.146471	-0.049086
H	-0.794665	-9.150570	0.578334
H	1.011908	-1.444158	-0.377309
$end

$rem
JOBTYPE		SP
EXCHANGE	HF
CORRELATION	pRIMP2
BASIS		cc-pvtz
METHOD		rimp2
AUX_BASIS	rimp2-cc-pvtz
SOLVENT_METHOD	PCM
PURECART	11111
SYMMETRY	false
MEM_TOTAL	110000
SCF_CONVERGENCE = 6
THRESH=10
GUI = 2
$end

$solvent
dielectric 4.90
$end
--------------------------------------------------------------

             Standard Nuclear Orientation (Angstroms)
    I     Atom           X                Y                Z
 ----------------------------------------------------------------
    1      C       0.0465740000    -8.5197410000     0.2680900000
    2      C      -0.3268860000    -7.6359670000    -0.7339200000
    3      S       0.5957080000    -7.6517400000     1.7223180000
    4      C      -0.1932360000    -6.2618940000    -0.3715160000
    5      H      -0.6927000000    -7.9547380000    -1.7181300000
    6      C       0.2949580000    -6.0799850000     0.9702830000
    7      C       0.5154870000    -4.7983820000     1.4982430000
    8      C      -0.4773580000    -5.1535420000    -1.2197250000
    9      C      -0.2526550000    -3.8696260000    -0.6929140000
   10      C       0.2333660000    -3.6889270000     0.6512890000
   11      O      -0.9573690000    -5.4810750000    -2.4516230000
   12      O       0.9987690000    -4.4798710000     2.7352640000
   13      C       0.7520290000    -5.3560260000     3.8283870000
   14      H       1.0126750000    -4.7904960000     4.7432130000
   15      H       1.3863030000    -6.2685130000     3.7886230000
   16      H      -0.3164920000    -5.6581870000     3.8772600000
   17      C      -0.8819300000    -4.5469990000    -3.5215800000
   18      H      -1.1459690000    -5.1075640000    -4.4382600000
   19      H       0.1427120000    -4.1314730000    -3.6318680000
   20      H      -1.6056100000    -3.7120850000    -3.3994250000
   21      C       0.3679280000    -2.3143260000     1.0095350000
   22      S      -0.5420880000    -2.2954870000    -1.4509450000
   23      C       0.0000000000    -1.4351800000     0.0000000000
   24      H       0.7309990000    -1.9932110000     1.9939200000
   25      C       0.0000000000     0.0000000000     0.0000000000
   26      S       0.3821390000     0.8142150000     1.5107320000
   27      C       1.0469230000     2.2423950000     0.7276290000
   28      C       0.3838040000     0.8231420000    -1.0646650000
   29      C       0.9693600000     2.0824530000    -0.6782870000
   30      C       0.3572470000     0.7622770000    -2.4861500000
   31      C       0.8916710000     1.9086600000    -3.1069160000
   32      S       1.4158650000     3.0406890000    -1.9657350000
   33      C       1.0034530000     2.1373180000    -4.5599720000
   34      O       0.6116440000     1.2900190000    -5.3502770000
   35      O       1.5486870000     3.2989160000    -5.0043750000
   36      F      -0.1100540000    -0.2491170000    -3.2462900000
   37      C       1.7094790000     3.6197210000    -6.3349760000
   38      H       2.1770010000     4.6209020000    -6.3702680000
   39      H       0.7374430000     3.6433800000    -6.8756090000
   40      H       2.3593630000     2.8863840000    -6.8618780000
   41      H       1.4358000000     3.0761900000     1.3215100000
   42      H       0.8882910000    -9.1464710000    -0.0490860000
   43      H      -0.7946650000    -9.1505700000     0.5783340000
   44      H       1.0119080000    -1.4441580000    -0.3773090000
 ----------------------------------------------------------------

   11   -2755.3121429945      6.55e-07  Convergence criterion met
 Total energy in the final basis set =    -2755.3121429945
        RIMP2         total energy =     -2760.4083527158 a.u.

                    Orbital Energies (a.u.)
 --------------------------------------------------------------

 Alpha MOs
 -- Occupied --
-92.0151 -91.9935 -91.9751 -91.9602 -26.3348 -20.6111 -20.5879 -20.5876
-20.5479 -11.4086 -11.3787 -11.3225 -11.3096 -11.3094 -11.2976 -11.2931
-11.2881 -11.2859 -11.2857 -11.2837 -11.2836 -11.2822 -11.2764 -11.2758
-11.2712 -11.2616 -11.2595 -11.2516 -11.2414  -9.0136  -8.9976  -8.9778
 -8.9628  -6.6944  -6.6938  -6.6933  -6.6789  -6.6782  -6.6768  -6.6588
 -6.6579  -6.6565  -6.6440  -6.6431  -6.6420  -1.6501  -1.4707  -1.4110
 -1.4097  -1.3657  -1.2398  -1.2093  -1.1776  -1.1437  -1.1000  -1.0511
 -1.0468  -1.0294  -1.0079  -0.9996  -0.9718  -0.9597  -0.9492  -0.9404
 -0.8944  -0.8728  -0.8620  -0.8128  -0.7944  -0.7861  -0.7767  -0.7658
 -0.7614  -0.7336  -0.7199  -0.7175  -0.6985  -0.6947  -0.6853  -0.6778
 -0.6752  -0.6722  -0.6561  -0.6490  -0.6358  -0.6298  -0.6218  -0.6154
 -0.6108  -0.6051  -0.5972  -0.5923  -0.5767  -0.5671  -0.5625  -0.5588
 -0.5500  -0.5321  -0.5291  -0.5208  -0.5134  -0.5086  -0.5045  -0.4997
 -0.4853  -0.4833  -0.4792  -0.4660  -0.4607  -0.4598  -0.4593  -0.4475
 -0.4319  -0.3987  -0.3844  -0.3716  -0.3511  -0.2930  -0.2845  -0.2180

          Ground-State Mulliken Net Atomic Charges

     Atom                 Charge (a.u.)
  ----------------------------------------
      1 C                    -0.070898
      2 C                    -0.246404
      3 S                    -0.131391
      4 C                    -0.048317
      5 H                     0.195401
      6 C                    -0.047474
      7 C                     0.218276
      8 C                     0.232697
      9 C                    -0.079966
     10 C                    -0.033658
     11 O                    -0.334930
     12 O                    -0.344089
     13 C                    -0.082643
     14 H                     0.120033
     15 H                     0.092077
     16 H                     0.092947
     17 C                    -0.087479
     18 H                     0.123822
     19 H                     0.093518
     20 H                     0.090919
     21 C                    -0.308469
     22 S                    -0.076839
     23 C                     0.072920
     24 H                     0.200660
     25 C                     0.007770
     26 S                     0.087026
     27 C                    -0.257604
     28 C                    -0.126561
     29 C                    -0.011951
     30 C                     0.379237
     31 C                    -0.146313
     32 S                     0.038102
     33 C                     0.457941
     34 O                    -0.454713
     35 O                    -0.298754
     36 F                    -0.208257
     37 C                    -0.054961
     38 H                     0.116404
     39 H                     0.084157
     40 H                     0.083955
     41 H                     0.214511
     42 H                     0.119291
     43 H                     0.116965
     44 H                     0.213043
  ----------------------------------------
  Sum of atomic charges =     0.000000

                    Cartesian Multipole Moments
 -----------------------------------------------------------------
    Charge (ESU x 10^10)
                -0.0000
    Dipole Moment (Debye)
         X       1.7515      Y       1.6021      Z       2.8062
       Tot       3.6755
    Quadrupole Moments (Debye-Ang)
        XX    -198.9703     XY       7.0068     YY    -171.3573
        XZ      -3.9509     YZ      -4.9015     ZZ    -188.5678

 Total job time:  349.76s(wall), 10767.74s(cpu)
        *  Thank you very much for using Q-Chem.  Have a nice day.  *
