 Q-Chem 5.4, Q-Chem, Inc., Pleasanton, CA (2021)
 Q-Chem 5.4.0 for Intel X86 EM64T Linux

User input:
--------------------------------------------------------------
$molecule
0 1
C	0.235993	-8.519741	-0.135457
C	-0.577858	-7.635967	0.558188
S	1.414705	-7.651740	-1.148850
C	-0.283020	-6.261894	0.308648
H	-1.377597	-7.954738	1.238560
C	0.810887	-6.079985	-0.609026
C	1.231581	-4.798382	-0.996828
C	-0.982901	-5.153542	0.865740
C	-0.564713	-3.869626	0.474408
C	0.532196	-3.688927	-0.442046
O	-1.976332	-5.481075	1.738137
O	2.228709	-4.479871	-1.874052
C	3.340298	-5.356026	-2.016062
H	4.110807	-4.790496	-2.573877
H	3.085998	-6.268513	-2.598484
H	3.751679	-5.658187	-1.028695
C	-3.007565	-4.546999	2.033195
H	-3.778655	-5.107564	2.594833
H	-3.461650	-4.131473	1.108067
H	-2.645264	-3.712085	2.671451
C	0.822814	-2.314326	-0.691020
S	-1.178037	-2.295487	1.005649
C	0.000000	-1.435180	0.000000
H	1.623656	-1.993211	-1.368875
C	0.000000	0.000000	0.000000
S	0.234946	0.868203	1.510732
C	0.641630	2.390125	0.727629
C	0.235036	0.877284	-1.064665
C	0.593019	2.219143	-0.678287
C	0.219452	0.812732	-2.486150
C	0.546689	2.034501	-3.106916
S	0.866345	3.240357	-1.965735
C	0.617067	2.279095	-4.559972
O	0.378342	1.376631	-5.350277
O	0.952308	3.517725	-5.004375
F	-0.065123	-0.264443	-3.246290
C	1.054950	3.861577	-6.334976
H	1.341516	4.928732	-6.370268
H	0.093573	3.716085	-6.875609
H	1.822303	3.252232	-6.861878
H	0.879812	3.278780	1.321510
H	-0.349939	-9.146471	-0.817932
H	0.815247	-9.150570	0.548939
H	-0.700647	-1.444158	-0.821835
$end

$rem
JOBTYPE		SP
EXCHANGE	HF
CORRELATION	pRIMP2
BASIS		cc-pvtz
METHOD		rimp2
AUX_BASIS	rimp2-cc-pvtz
SOLVENT_METHOD	PCM
PURECART	11111
SYMMETRY	false
MEM_TOTAL	110000
SCF_CONVERGENCE = 6
THRESH=10
GUI = 2
$end

$solvent
dielectric 4.90
$end
--------------------------------------------------------------

             Standard Nuclear Orientation (Angstroms)
    I     Atom           X                Y                Z
 ----------------------------------------------------------------
    1      C       0.2359930000    -8.5197410000    -0.1354570000
    2      C      -0.5778580000    -7.6359670000     0.5581880000
    3      S       1.4147050000    -7.6517400000    -1.1488500000
    4      C      -0.2830200000    -6.2618940000     0.3086480000
    5      H      -1.3775970000    -7.9547380000     1.2385600000
    6      C       0.8108870000    -6.0799850000    -0.6090260000
    7      C       1.2315810000    -4.7983820000    -0.9968280000
    8      C      -0.9829010000    -5.1535420000     0.8657400000
    9      C      -0.5647130000    -3.8696260000     0.4744080000
   10      C       0.5321960000    -3.6889270000    -0.4420460000
   11      O      -1.9763320000    -5.4810750000     1.7381370000
   12      O       2.2287090000    -4.4798710000    -1.8740520000
   13      C       3.3402980000    -5.3560260000    -2.0160620000
   14      H       4.1108070000    -4.7904960000    -2.5738770000
   15      H       3.0859980000    -6.2685130000    -2.5984840000
   16      H       3.7516790000    -5.6581870000    -1.0286950000
   17      C      -3.0075650000    -4.5469990000     2.0331950000
   18      H      -3.7786550000    -5.1075640000     2.5948330000
   19      H      -3.4616500000    -4.1314730000     1.1080670000
   20      H      -2.6452640000    -3.7120850000     2.6714510000
   21      C       0.8228140000    -2.3143260000    -0.6910200000
   22      S      -1.1780370000    -2.2954870000     1.0056490000
   23      C       0.0000000000    -1.4351800000     0.0000000000
   24      H       1.6236560000    -1.9932110000    -1.3688750000
   25      C       0.0000000000     0.0000000000     0.0000000000
   26      S       0.2349460000     0.8682030000     1.5107320000
   27      C       0.6416300000     2.3901250000     0.7276290000
   28      C       0.2350360000     0.8772840000    -1.0646650000
   29      C       0.5930190000     2.2191430000    -0.6782870000
   30      C       0.2194520000     0.8127320000    -2.4861500000
   31      C       0.5466890000     2.0345010000    -3.1069160000
   32      S       0.8663450000     3.2403570000    -1.9657350000
   33      C       0.6170670000     2.2790950000    -4.5599720000
   34      O       0.3783420000     1.3766310000    -5.3502770000
   35      O       0.9523080000     3.5177250000    -5.0043750000
   36      F      -0.0651230000    -0.2644430000    -3.2462900000
   37      C       1.0549500000     3.8615770000    -6.3349760000
   38      H       1.3415160000     4.9287320000    -6.3702680000
   39      H       0.0935730000     3.7160850000    -6.8756090000
   40      H       1.8223030000     3.2522320000    -6.8618780000
   41      H       0.8798120000     3.2787800000     1.3215100000
   42      H      -0.3499390000    -9.1464710000    -0.8179320000
   43      H       0.8152470000    -9.1505700000     0.5489390000
   44      H      -0.7006470000    -1.4441580000    -0.8218350000
 ----------------------------------------------------------------

   11   -2755.3247341089      7.36e-07  Convergence criterion met
 Total energy in the final basis set =    -2755.3247341089
        RIMP2         total energy =     -2760.4174013564 a.u.

                    Orbital Energies (a.u.)
 --------------------------------------------------------------

 Alpha MOs
 -- Occupied --
-92.0139 -91.9959 -91.9802 -91.9585 -26.3385 -20.6127 -20.5879 -20.5871
-20.5507 -11.4111 -11.3796 -11.3167 -11.3094 -11.3088 -11.2982 -11.2981
-11.2925 -11.2889 -11.2851 -11.2840 -11.2836 -11.2832 -11.2825 -11.2735
-11.2735 -11.2592 -11.2587 -11.2500 -11.2381  -9.0125  -8.9999  -8.9823
 -8.9611  -6.6932  -6.6926  -6.6921  -6.6812  -6.6805  -6.6792  -6.6635
 -6.6626  -6.6613  -6.6423  -6.6414  -6.6404  -1.6515  -1.4724  -1.4112
 -1.4089  -1.3678  -1.2392  -1.2097  -1.1759  -1.1437  -1.1005  -1.0517
 -1.0468  -1.0292  -1.0095  -0.9988  -0.9724  -0.9600  -0.9492  -0.9412
 -0.8944  -0.8742  -0.8626  -0.8083  -0.7948  -0.7862  -0.7785  -0.7725
 -0.7623  -0.7340  -0.7202  -0.7189  -0.6984  -0.6934  -0.6866  -0.6792
 -0.6757  -0.6729  -0.6562  -0.6488  -0.6360  -0.6279  -0.6204  -0.6150
 -0.6112  -0.6069  -0.5956  -0.5938  -0.5820  -0.5681  -0.5589  -0.5535
 -0.5465  -0.5354  -0.5300  -0.5230  -0.5131  -0.5079  -0.5045  -0.5023
 -0.4865  -0.4848  -0.4766  -0.4706  -0.4622  -0.4617  -0.4614  -0.4468
 -0.4269  -0.4013  -0.3863  -0.3707  -0.3508  -0.2935  -0.2877  -0.2196

          Ground-State Mulliken Net Atomic Charges

     Atom                 Charge (a.u.)
  ----------------------------------------
      1 C                    -0.070469
      2 C                    -0.256396
      3 S                    -0.133864
      4 C                    -0.047506
      5 H                     0.193806
      6 C                    -0.052250
      7 C                     0.221193
      8 C                     0.233445
      9 C                    -0.080990
     10 C                    -0.037724
     11 O                    -0.334601
     12 O                    -0.342733
     13 C                    -0.082777
     14 H                     0.120370
     15 H                     0.092282
     16 H                     0.092453
     17 C                    -0.086890
     18 H                     0.123842
     19 H                     0.093059
     20 H                     0.090006
     21 C                    -0.288290
     22 S                    -0.076188
     23 C                     0.093896
     24 H                     0.207649
     25 C                    -0.081413
     26 S                     0.103037
     27 C                    -0.242532
     28 C                    -0.104624
     29 C                    -0.006272
     30 C                     0.393772
     31 C                    -0.145146
     32 S                     0.039270
     33 C                     0.461574
     34 O                    -0.450527
     35 O                    -0.297899
     36 F                    -0.215507
     37 C                    -0.055035
     38 H                     0.116750
     39 H                     0.084728
     40 H                     0.084576
     41 H                     0.214253
     42 H                     0.117961
     43 H                     0.115400
     44 H                     0.196312
  ----------------------------------------
  Sum of atomic charges =     0.000000

                    Cartesian Multipole Moments
 -----------------------------------------------------------------
    Charge (ESU x 10^10)
                 0.0000
    Dipole Moment (Debye)
         X       0.3792      Y       2.9825      Z       2.8267
       Tot       4.1267
    Quadrupole Moments (Debye-Ang)
        XX    -184.1594     XY       7.0599     YY    -173.2674
        XZ      -9.3087     YZ     -13.0906     ZZ    -204.0814

 Total job time:  322.81s(wall), 10400.27s(cpu)
        *  Thank you very much for using Q-Chem.  Have a nice day.  *
