 Q-Chem 5.4, Q-Chem, Inc., Pleasanton, CA (2021)
 Q-Chem 5.4.0 for Intel X86 EM64T Linux

User input:
--------------------------------------------------------------
$molecule
0 1
C	0.267851	-8.519741	0.047927
C	-0.801461	-7.635967	0.056157
S	1.822194	-7.651740	0.029285
C	-0.415201	-6.261894	0.054516
H	-1.851431	-7.954738	0.063290
C	1.012650	-6.079985	0.054687
C	1.584194	-4.798382	0.028030
C	-1.309433	-5.153542	0.031399
C	-0.737539	-3.869626	0.000427
C	0.691828	-3.688927	0.003462
O	-2.631211	-5.481075	0.061128
O	2.911907	-4.479871	-0.003021
C	3.854716	-5.356026	0.602710
H	4.803517	-4.790496	0.670671
H	4.034285	-6.268513	-0.006913
H	3.535185	-5.658187	1.623507
C	-3.610841	-4.546999	-0.375708
H	-4.562544	-5.107564	-0.441115
H	-3.364029	-4.131473	-1.376277
H	-3.743566	-3.712085	0.346107
C	1.074491	-2.314326	-0.000458
S	-1.548848	-2.295487	0.013144
C	0.000000	-1.435180	0.000000
H	2.123688	-1.993211	-0.004953
C	0.000000	0.000000	0.000000
S	0.002233	0.899428	1.510732
C	0.001157	2.474749	0.727629
C	-0.000030	0.908223	-1.064665
C	-0.001545	2.297013	-0.678287
C	0.001624	0.841837	-2.486150
C	0.001494	2.106670	-3.106916
S	-0.001841	3.354171	-1.965735
C	0.006168	2.361146	-4.559972
O	0.009152	1.427646	-5.350277
O	0.009405	3.644337	-5.004375
F	0.005539	-0.272288	-3.246290
C	0.019554	4.003038	-6.334976
H	0.020155	5.108000	-6.370268
H	-0.871409	3.613681	-6.875609
H	0.918470	3.613062	-6.861878
H	0.001222	3.394771	1.321510
H	0.257688	-9.146471	-0.851509
H	0.271664	-9.150570	0.944542
H	-0.008462	-1.444158	-1.079930
$end

$rem
JOBTYPE		SP
EXCHANGE	HF
CORRELATION	pRIMP2
BASIS		cc-pvtz
METHOD		rimp2
AUX_BASIS	rimp2-cc-pvtz
SOLVENT_METHOD	PCM
PURECART	11111
SYMMETRY	false
MEM_TOTAL	110000
SCF_CONVERGENCE = 6
THRESH=10
GUI = 2
$end

$solvent
dielectric 4.90
$end
--------------------------------------------------------------

             Standard Nuclear Orientation (Angstroms)
    I     Atom           X                Y                Z
 ----------------------------------------------------------------
    1      C       0.2678510000    -8.5197410000     0.0479270000
    2      C      -0.8014610000    -7.6359670000     0.0561570000
    3      S       1.8221940000    -7.6517400000     0.0292850000
    4      C      -0.4152010000    -6.2618940000     0.0545160000
    5      H      -1.8514310000    -7.9547380000     0.0632900000
    6      C       1.0126500000    -6.0799850000     0.0546870000
    7      C       1.5841940000    -4.7983820000     0.0280300000
    8      C      -1.3094330000    -5.1535420000     0.0313990000
    9      C      -0.7375390000    -3.8696260000     0.0004270000
   10      C       0.6918280000    -3.6889270000     0.0034620000
   11      O      -2.6312110000    -5.4810750000     0.0611280000
   12      O       2.9119070000    -4.4798710000    -0.0030210000
   13      C       3.8547160000    -5.3560260000     0.6027100000
   14      H       4.8035170000    -4.7904960000     0.6706710000
   15      H       4.0342850000    -6.2685130000    -0.0069130000
   16      H       3.5351850000    -5.6581870000     1.6235070000
   17      C      -3.6108410000    -4.5469990000    -0.3757080000
   18      H      -4.5625440000    -5.1075640000    -0.4411150000
   19      H      -3.3640290000    -4.1314730000    -1.3762770000
   20      H      -3.7435660000    -3.7120850000     0.3461070000
   21      C       1.0744910000    -2.3143260000    -0.0004580000
   22      S      -1.5488480000    -2.2954870000     0.0131440000
   23      C       0.0000000000    -1.4351800000     0.0000000000
   24      H       2.1236880000    -1.9932110000    -0.0049530000
   25      C       0.0000000000     0.0000000000     0.0000000000
   26      S       0.0022330000     0.8994280000     1.5107320000
   27      C       0.0011570000     2.4747490000     0.7276290000
   28      C      -0.0000300000     0.9082230000    -1.0646650000
   29      C      -0.0015450000     2.2970130000    -0.6782870000
   30      C       0.0016240000     0.8418370000    -2.4861500000
   31      C       0.0014940000     2.1066700000    -3.1069160000
   32      S      -0.0018410000     3.3541710000    -1.9657350000
   33      C       0.0061680000     2.3611460000    -4.5599720000
   34      O       0.0091520000     1.4276460000    -5.3502770000
   35      O       0.0094050000     3.6443370000    -5.0043750000
   36      F       0.0055390000    -0.2722880000    -3.2462900000
   37      C       0.0195540000     4.0030380000    -6.3349760000
   38      H       0.0201550000     5.1080000000    -6.3702680000
   39      H      -0.8714090000     3.6136810000    -6.8756090000
   40      H       0.9184700000     3.6130620000    -6.8618780000
   41      H       0.0012220000     3.3947710000     1.3215100000
   42      H       0.2576880000    -9.1464710000    -0.8515090000
   43      H       0.2716640000    -9.1505700000     0.9445420000
   44      H      -0.0084620000    -1.4441580000    -1.0799300000
 ----------------------------------------------------------------

   11   -2755.3295321495      6.91e-07  Convergence criterion met
 Total energy in the final basis set =    -2755.3295321495
        RIMP2         total energy =     -2760.4203868779 a.u.

                    Orbital Energies (a.u.)
 --------------------------------------------------------------

 Alpha MOs
 -- Occupied --
-92.0128 -91.9968 -91.9775 -91.9580 -26.3391 -20.6136 -20.5870 -20.5866
-20.5523 -11.4124 -11.3797 -11.3129 -11.3089 -11.3070 -11.3011 -11.2978
-11.2964 -11.2894 -11.2867 -11.2841 -11.2827 -11.2827 -11.2803 -11.2728
-11.2724 -11.2580 -11.2577 -11.2495 -11.2367  -9.0114  -9.0008  -8.9796
 -8.9606  -6.6922  -6.6916  -6.6912  -6.6821  -6.6814  -6.6801  -6.6607
 -6.6598  -6.6585  -6.6418  -6.6409  -6.6399  -1.6523  -1.4734  -1.4101
 -1.4087  -1.3690  -1.2391  -1.2083  -1.1749  -1.1434  -1.1000  -1.0521
 -1.0456  -1.0297  -1.0089  -0.9974  -0.9729  -0.9596  -0.9485  -0.9409
 -0.8931  -0.8745  -0.8629  -0.8096  -0.7940  -0.7849  -0.7812  -0.7704
 -0.7627  -0.7338  -0.7202  -0.7196  -0.6977  -0.6923  -0.6876  -0.6799
 -0.6762  -0.6739  -0.6552  -0.6483  -0.6316  -0.6285  -0.6199  -0.6147
 -0.6110  -0.6078  -0.5965  -0.5929  -0.5839  -0.5653  -0.5578  -0.5544
 -0.5487  -0.5336  -0.5288  -0.5222  -0.5128  -0.5074  -0.5030  -0.5012
 -0.4875  -0.4855  -0.4773  -0.4696  -0.4631  -0.4625  -0.4604  -0.4459
 -0.4219  -0.4049  -0.3854  -0.3699  -0.3500  -0.2926  -0.2893  -0.2209

          Ground-State Mulliken Net Atomic Charges

     Atom                 Charge (a.u.)
  ----------------------------------------
      1 C                    -0.070144
      2 C                    -0.259192
      3 S                    -0.135569
      4 C                    -0.043931
      5 H                     0.193520
      6 C                    -0.052701
      7 C                     0.228612
      8 C                     0.227144
      9 C                    -0.080345
     10 C                    -0.062866
     11 O                    -0.335010
     12 O                    -0.343219
     13 C                    -0.082453
     14 H                     0.119944
     15 H                     0.092013
     16 H                     0.092508
     17 C                    -0.086715
     18 H                     0.122854
     19 H                     0.093177
     20 H                     0.089995
     21 C                    -0.235818
     22 S                    -0.069657
     23 C                     0.056351
     24 H                     0.204601
     25 C                    -0.096632
     26 S                     0.098894
     27 C                    -0.230368
     28 C                    -0.078870
     29 C                    -0.007762
     30 C                     0.376478
     31 C                    -0.129284
     32 S                     0.040918
     33 C                     0.459437
     34 O                    -0.448162
     35 O                    -0.297303
     36 F                    -0.214866
     37 C                    -0.055119
     38 H                     0.117033
     39 H                     0.084946
     40 H                     0.084842
     41 H                     0.215236
     42 H                     0.117410
     43 H                     0.114866
     44 H                     0.185208
  ----------------------------------------
  Sum of atomic charges =     0.000000

                    Cartesian Multipole Moments
 -----------------------------------------------------------------
    Charge (ESU x 10^10)
                -0.0000
    Dipole Moment (Debye)
         X      -0.1203      Y       3.7632      Z       2.4765
       Tot       4.5066
    Quadrupole Moments (Debye-Ang)
        XX    -184.9578     XY       3.8592     YY    -173.9767
        XZ       5.6717     YZ     -11.3631     ZZ    -203.8493

 Total job time:  333.00s(wall), 10723.89s(cpu)
        *  Thank you very much for using Q-Chem.  Have a nice day.  *
