 Q-Chem 5.4, Q-Chem, Inc., Pleasanton, CA (2021)
 Q-Chem 5.4.0 for Intel X86 EM64T Linux

User input:
--------------------------------------------------------------
$molecule
0 1
C	0.000687	-8.519741	-0.272104
C	0.194476	-7.635967	0.779533
S	-0.287581	-7.651740	-1.799596
C	0.125787	-6.261894	0.399427
H	0.383826	-7.954738	1.812314
C	-0.121989	-6.079985	-1.006762
C	-0.247488	-4.798382	-1.564994
C	0.258303	-5.153542	1.284087
C	0.128493	-3.869626	0.726260
C	-0.116725	-3.688927	-0.681918
O	0.517104	-5.481075	2.580622
O	-0.508622	-4.479871	-2.867144
C	-0.075811	-5.356026	-3.900814
H	-0.173640	-4.790496	-4.847002
H	-0.707354	-6.268513	-3.971794
H	0.984963	-5.658187	-3.763397
C	0.257016	-4.546999	3.621225
H	0.357864	-5.107564	4.569828
H	-0.771211	-4.131473	3.551910
H	0.990913	-3.712085	3.626592
C	-0.187034	-2.314326	-1.058088
S	0.281899	-2.295487	1.523035
C	-0.000000	-1.435180	-0.000000
H	-0.373653	-1.993211	-2.090565
C	0.000000	0.000000	0.000000
S	0.690437	0.576430	1.510732
C	1.896512	1.589852	0.727629
C	0.695720	0.583817	-1.064665
C	1.758621	1.477674	-0.678287
C	0.645928	0.539878	-2.486150
C	1.614763	1.352997	-3.106916
S	2.568261	2.157430	-1.965735
C	1.812707	1.512991	-4.559972
O	1.099523	0.910662	-5.350277
O	2.797769	2.335330	-5.004375
F	-0.205024	-0.179266	-3.246290
C	3.079074	2.558124	-6.334976
H	3.925910	3.267919	-6.370268
H	2.208109	2.990367	-6.875609
H	3.358147	1.618843	-6.861878
H	2.601331	2.181180	1.321510
H	-0.883319	-9.146471	-0.105910
H	0.883019	-9.150570	-0.431555
H	-1.062054	-1.444158	0.195861
$end

$rem
JOBTYPE		SP
EXCHANGE	HF
CORRELATION	pRIMP2
BASIS		cc-pvtz
METHOD		rimp2
AUX_BASIS	rimp2-cc-pvtz
SOLVENT_METHOD	PCM
PURECART	11111
SYMMETRY	false
MEM_TOTAL	110000
SCF_CONVERGENCE = 6
THRESH=10
GUI = 2
$end

$solvent
dielectric 4.90
$end
--------------------------------------------------------------

             Standard Nuclear Orientation (Angstroms)
    I     Atom           X                Y                Z
 ----------------------------------------------------------------
    1      C       0.0006870000    -8.5197410000    -0.2721040000
    2      C       0.1944760000    -7.6359670000     0.7795330000
    3      S      -0.2875810000    -7.6517400000    -1.7995960000
    4      C       0.1257870000    -6.2618940000     0.3994270000
    5      H       0.3838260000    -7.9547380000     1.8123140000
    6      C      -0.1219890000    -6.0799850000    -1.0067620000
    7      C      -0.2474880000    -4.7983820000    -1.5649940000
    8      C       0.2583030000    -5.1535420000     1.2840870000
    9      C       0.1284930000    -3.8696260000     0.7262600000
   10      C      -0.1167250000    -3.6889270000    -0.6819180000
   11      O       0.5171040000    -5.4810750000     2.5806220000
   12      O      -0.5086220000    -4.4798710000    -2.8671440000
   13      C      -0.0758110000    -5.3560260000    -3.9008140000
   14      H      -0.1736400000    -4.7904960000    -4.8470020000
   15      H      -0.7073540000    -6.2685130000    -3.9717940000
   16      H       0.9849630000    -5.6581870000    -3.7633970000
   17      C       0.2570160000    -4.5469990000     3.6212250000
   18      H       0.3578640000    -5.1075640000     4.5698280000
   19      H      -0.7712110000    -4.1314730000     3.5519100000
   20      H       0.9909130000    -3.7120850000     3.6265920000
   21      C      -0.1870340000    -2.3143260000    -1.0580880000
   22      S       0.2818990000    -2.2954870000     1.5230350000
   23      C       0.0000000000    -1.4351800000     0.0000000000
   24      H      -0.3736530000    -1.9932110000    -2.0905650000
   25      C       0.0000000000     0.0000000000     0.0000000000
   26      S       0.6904370000     0.5764300000     1.5107320000
   27      C       1.8965120000     1.5898520000     0.7276290000
   28      C       0.6957200000     0.5838170000    -1.0646650000
   29      C       1.7586210000     1.4776740000    -0.6782870000
   30      C       0.6459280000     0.5398780000    -2.4861500000
   31      C       1.6147630000     1.3529970000    -3.1069160000
   32      S       2.5682610000     2.1574300000    -1.9657350000
   33      C       1.8127070000     1.5129910000    -4.5599720000
   34      O       1.0995230000     0.9106620000    -5.3502770000
   35      O       2.7977690000     2.3353300000    -5.0043750000
   36      F      -0.2050240000    -0.1792660000    -3.2462900000
   37      C       3.0790740000     2.5581240000    -6.3349760000
   38      H       3.9259100000     3.2679190000    -6.3702680000
   39      H       2.2081090000     2.9903670000    -6.8756090000
   40      H       3.3581470000     1.6188430000    -6.8618780000
   41      H       2.6013310000     2.1811800000     1.3215100000
   42      H      -0.8833190000    -9.1464710000    -0.1059100000
   43      H       0.8830190000    -9.1505700000    -0.4315550000
   44      H      -1.0620540000    -1.4441580000     0.1958610000
 ----------------------------------------------------------------

   11   -2755.2641795663      7.03e-07  Convergence criterion met
 Total energy in the final basis set =    -2755.2641795663
        RIMP2         total energy =     -2760.3772187614 a.u.

                    Orbital Energies (a.u.)
 --------------------------------------------------------------

 Alpha MOs
 -- Occupied --
-92.0146 -92.0013 -91.9789 -91.9560 -26.3396 -20.6143 -20.5862 -20.5856
-20.5538 -11.4136 -11.3783 -11.3087 -11.3079 -11.3057 -11.3048 -11.2999
-11.2936 -11.2898 -11.2866 -11.2845 -11.2811 -11.2809 -11.2743 -11.2710
-11.2695 -11.2566 -11.2535 -11.2477 -11.2330  -9.0140  -9.0050  -8.9812
 -8.9586  -6.6947  -6.6938  -6.6936  -6.6862  -6.6856  -6.6843  -6.6622
 -6.6613  -6.6600  -6.6399  -6.6390  -6.6379  -1.6540  -1.4743  -1.4096
 -1.4074  -1.3701  -1.2440  -1.2080  -1.1744  -1.1455  -1.0974  -1.0538
 -1.0453  -1.0322  -1.0076  -0.9972  -0.9744  -0.9595  -0.9477  -0.9399
 -0.8940  -0.8747  -0.8605  -0.8086  -0.8002  -0.7864  -0.7753  -0.7716
 -0.7612  -0.7332  -0.7257  -0.7194  -0.6967  -0.6940  -0.6840  -0.6805
 -0.6757  -0.6663  -0.6559  -0.6475  -0.6396  -0.6275  -0.6182  -0.6131
 -0.6094  -0.6091  -0.6005  -0.5926  -0.5747  -0.5692  -0.5571  -0.5556
 -0.5402  -0.5368  -0.5305  -0.5227  -0.5153  -0.5098  -0.5061  -0.4993
 -0.4883  -0.4813  -0.4726  -0.4687  -0.4635  -0.4611  -0.4529  -0.4442
 -0.4318  -0.3924  -0.3858  -0.3678  -0.3486  -0.2967  -0.2851  -0.2118

          Ground-State Mulliken Net Atomic Charges

     Atom                 Charge (a.u.)
  ----------------------------------------
      1 C                    -0.069558
      2 C                    -0.271435
      3 S                    -0.139929
      4 C                    -0.044454
      5 H                     0.191822
      6 C                    -0.055849
      7 C                     0.231640
      8 C                     0.224732
      9 C                    -0.077618
     10 C                    -0.050960
     11 O                    -0.334765
     12 O                    -0.344044
     13 C                    -0.083108
     14 H                     0.121264
     15 H                     0.092123
     16 H                     0.092219
     17 C                    -0.088412
     18 H                     0.124151
     19 H                     0.092230
     20 H                     0.088925
     21 C                    -0.274105
     22 S                    -0.096250
     23 C                     0.051089
     24 H                     0.220903
     25 C                    -0.121711
     26 S                     0.101459
     27 C                    -0.192760
     28 C                    -0.037351
     29 C                    -0.027293
     30 C                     0.352611
     31 C                    -0.124396
     32 S                     0.060232
     33 C                     0.457430
     34 O                    -0.445746
     35 O                    -0.297388
     36 F                    -0.214277
     37 C                    -0.054672
     38 H                     0.117198
     39 H                     0.085044
     40 H                     0.085071
     41 H                     0.218740
     42 H                     0.115819
     43 H                     0.113424
     44 H                     0.207953
  ----------------------------------------
  Sum of atomic charges =     0.000000

                    Cartesian Multipole Moments
 -----------------------------------------------------------------
    Charge (ESU x 10^10)
                 0.0000
    Dipole Moment (Debye)
         X       2.9968      Y       3.6823      Z       3.2620
       Tot       5.7603
    Quadrupole Moments (Debye-Ang)
        XX    -190.2756     XY       8.3352     YY    -189.2788
        XZ     -11.6911     YZ     -11.0906     ZZ    -186.3969

 Total job time:  331.43s(wall), 10783.94s(cpu)
        *  Thank you very much for using Q-Chem.  Have a nice day.  *
