 Q-Chem 5.4, Q-Chem, Inc., Pleasanton, CA (2021)
 Q-Chem 5.4.0 for Intel X86 EM64T Linux

User input:
--------------------------------------------------------------
$molecule
0 1
C	-0.046574	-8.519741	-0.268090
C	0.326886	-7.635967	0.733920
S	-0.595708	-7.651740	-1.722318
C	0.193236	-6.261894	0.371516
H	0.692700	-7.954738	1.718130
C	-0.294958	-6.079985	-0.970283
C	-0.515487	-4.798382	-1.498243
C	0.477358	-5.153542	1.219725
C	0.252655	-3.869626	0.692914
C	-0.233366	-3.688927	-0.651289
O	0.957369	-5.481075	2.451623
O	-0.998769	-4.479871	-2.735264
C	-0.752029	-5.356026	-3.828387
H	-1.012675	-4.790496	-4.743213
H	-1.386303	-6.268513	-3.788623
H	0.316492	-5.658187	-3.877260
C	0.881930	-4.546999	3.521580
H	1.145969	-5.107564	4.438260
H	-0.142712	-4.131473	3.631868
H	1.605610	-3.712085	3.399425
C	-0.367928	-2.314326	-1.009535
S	0.542088	-2.295487	1.450945
C	-0.000000	-1.435180	-0.000000
H	-0.730999	-1.993211	-1.993920
C	0.000000	0.000000	0.000000
S	0.579852	0.687566	1.510732
C	1.591625	1.895024	0.727629
C	0.583771	0.695758	-1.064665
C	1.475308	1.760606	-0.678287
C	0.542366	0.643841	-2.486150
C	1.355286	1.612843	-3.106916
S	2.154609	2.570627	-1.965735
C	1.522440	1.804778	-4.559972
O	0.924684	1.087757	-5.350277
O	2.349739	2.785679	-5.004375
F	-0.170780	-0.212144	-3.246290
C	2.588082	3.053936	-6.334976
H	3.298799	3.899999	-6.370268
H	1.655291	3.328371	-6.875609
H	3.026021	2.177385	-6.861878
H	2.183053	2.599759	1.321510
H	-0.888291	-9.146471	0.049086
H	0.794665	-9.150570	-0.578334
H	-1.011908	-1.444158	0.377309
$end

$rem
JOBTYPE		SP
EXCHANGE	HF
CORRELATION	pRIMP2
BASIS		cc-pvtz
METHOD		rimp2
AUX_BASIS	rimp2-cc-pvtz
SOLVENT_METHOD	PCM
PURECART	11111
SYMMETRY	false
MEM_TOTAL	110000
SCF_CONVERGENCE = 6
THRESH=10
GUI = 2
$end

$solvent
dielectric 4.90
$end
--------------------------------------------------------------

             Standard Nuclear Orientation (Angstroms)
    I     Atom           X                Y                Z
 ----------------------------------------------------------------
    1      C      -0.0465740000    -8.5197410000    -0.2680900000
    2      C       0.3268860000    -7.6359670000     0.7339200000
    3      S      -0.5957080000    -7.6517400000    -1.7223180000
    4      C       0.1932360000    -6.2618940000     0.3715160000
    5      H       0.6927000000    -7.9547380000     1.7181300000
    6      C      -0.2949580000    -6.0799850000    -0.9702830000
    7      C      -0.5154870000    -4.7983820000    -1.4982430000
    8      C       0.4773580000    -5.1535420000     1.2197250000
    9      C       0.2526550000    -3.8696260000     0.6929140000
   10      C      -0.2333660000    -3.6889270000    -0.6512890000
   11      O       0.9573690000    -5.4810750000     2.4516230000
   12      O      -0.9987690000    -4.4798710000    -2.7352640000
   13      C      -0.7520290000    -5.3560260000    -3.8283870000
   14      H      -1.0126750000    -4.7904960000    -4.7432130000
   15      H      -1.3863030000    -6.2685130000    -3.7886230000
   16      H       0.3164920000    -5.6581870000    -3.8772600000
   17      C       0.8819300000    -4.5469990000     3.5215800000
   18      H       1.1459690000    -5.1075640000     4.4382600000
   19      H      -0.1427120000    -4.1314730000     3.6318680000
   20      H       1.6056100000    -3.7120850000     3.3994250000
   21      C      -0.3679280000    -2.3143260000    -1.0095350000
   22      S       0.5420880000    -2.2954870000     1.4509450000
   23      C       0.0000000000    -1.4351800000     0.0000000000
   24      H      -0.7309990000    -1.9932110000    -1.9939200000
   25      C       0.0000000000     0.0000000000     0.0000000000
   26      S       0.5798520000     0.6875660000     1.5107320000
   27      C       1.5916250000     1.8950240000     0.7276290000
   28      C       0.5837710000     0.6957580000    -1.0646650000
   29      C       1.4753080000     1.7606060000    -0.6782870000
   30      C       0.5423660000     0.6438410000    -2.4861500000
   31      C       1.3552860000     1.6128430000    -3.1069160000
   32      S       2.1546090000     2.5706270000    -1.9657350000
   33      C       1.5224400000     1.8047780000    -4.5599720000
   34      O       0.9246840000     1.0877570000    -5.3502770000
   35      O       2.3497390000     2.7856790000    -5.0043750000
   36      F      -0.1707800000    -0.2121440000    -3.2462900000
   37      C       2.5880820000     3.0539360000    -6.3349760000
   38      H       3.2987990000     3.8999990000    -6.3702680000
   39      H       1.6552910000     3.3283710000    -6.8756090000
   40      H       3.0260210000     2.1773850000    -6.8618780000
   41      H       2.1830530000     2.5997590000     1.3215100000
   42      H      -0.8882910000    -9.1464710000     0.0490860000
   43      H       0.7946650000    -9.1505700000    -0.5783340000
   44      H      -1.0119080000    -1.4441580000     0.3773090000
 ----------------------------------------------------------------

   11   -2755.2871352023      7.04e-07  Convergence criterion met
 Total energy in the final basis set =    -2755.2871352023
        RIMP2         total energy =     -2760.3921787727 a.u.

                    Orbital Energies (a.u.)
 --------------------------------------------------------------

 Alpha MOs
 -- Occupied --
-92.0155 -91.9979 -91.9804 -91.9570 -26.3387 -20.6133 -20.5870 -20.5860
-20.5519 -11.4120 -11.3786 -11.3084 -11.3070 -11.3045 -11.3010 -11.3009
-11.2986 -11.2892 -11.2850 -11.2832 -11.2820 -11.2814 -11.2779 -11.2714
-11.2711 -11.2575 -11.2557 -11.2486 -11.2349  -9.0146  -9.0018  -8.9826
 -8.9596  -6.6953  -6.6946  -6.6942  -6.6831  -6.6824  -6.6811  -6.6636
 -6.6627  -6.6614  -6.6408  -6.6399  -6.6389  -1.6527  -1.4731  -1.4103
 -1.4079  -1.3687  -1.2414  -1.2088  -1.1750  -1.1449  -1.0982  -1.0522
 -1.0459  -1.0312  -1.0085  -0.9978  -0.9735  -0.9595  -0.9483  -0.9400
 -0.8943  -0.8734  -0.8623  -0.8087  -0.7988  -0.7863  -0.7757  -0.7709
 -0.7626  -0.7318  -0.7242  -0.7200  -0.6970  -0.6938  -0.6840  -0.6797
 -0.6743  -0.6662  -0.6563  -0.6480  -0.6387  -0.6285  -0.6190  -0.6137
 -0.6093  -0.6080  -0.5980  -0.5931  -0.5746  -0.5694  -0.5580  -0.5544
 -0.5429  -0.5370  -0.5316  -0.5229  -0.5148  -0.5093  -0.5063  -0.4996
 -0.4872  -0.4825  -0.4747  -0.4701  -0.4629  -0.4618  -0.4553  -0.4450
 -0.4312  -0.3953  -0.3858  -0.3690  -0.3503  -0.2951  -0.2854  -0.2143

          Ground-State Mulliken Net Atomic Charges

     Atom                 Charge (a.u.)
  ----------------------------------------
      1 C                    -0.069861
      2 C                    -0.266274
      3 S                    -0.137477
      4 C                    -0.044427
      5 H                     0.192497
      6 C                    -0.054657
      7 C                     0.226867
      8 C                     0.223631
      9 C                    -0.078050
     10 C                    -0.048702
     11 O                    -0.334524
     12 O                    -0.343404
     13 C                    -0.082718
     14 H                     0.121219
     15 H                     0.091792
     16 H                     0.092503
     17 C                    -0.088418
     18 H                     0.124282
     19 H                     0.092287
     20 H                     0.089244
     21 C                    -0.278914
     22 S                    -0.087185
     23 C                     0.061558
     24 H                     0.214083
     25 C                    -0.098885
     26 S                     0.091238
     27 C                    -0.209026
     28 C                    -0.044341
     29 C                    -0.023728
     30 C                     0.368301
     31 C                    -0.133616
     32 S                     0.049297
     33 C                     0.457085
     34 O                    -0.448449
     35 O                    -0.297758
     36 F                    -0.213476
     37 C                    -0.054743
     38 H                     0.116946
     39 H                     0.084758
     40 H                     0.084773
     41 H                     0.217781
     42 H                     0.116465
     43 H                     0.114209
     44 H                     0.207818
  ----------------------------------------
  Sum of atomic charges =     0.000000

                    Cartesian Multipole Moments
 -----------------------------------------------------------------
    Charge (ESU x 10^10)
                -0.0000
    Dipole Moment (Debye)
         X       2.0718      Y       3.3796      Z       3.5040
       Tot       5.2907
    Quadrupole Moments (Debye-Ang)
        XX    -194.4741     XY       6.9892     YY    -183.5992
        XZ      -6.7821     YZ     -11.9778     ZZ    -186.8721

 Total job time:  362.07s(wall), 12795.82s(cpu)
        *  Thank you very much for using Q-Chem.  Have a nice day.  *
