 Q-Chem 5.4, Q-Chem, Inc., Pleasanton, CA (2021)
 Q-Chem 5.4.0 for Intel X86 EM64T Linux

User input:
--------------------------------------------------------------
$molecule
0 1
C	-0.093711	-8.519741	0.255459
C	0.083869	-7.635967	-0.799036
S	-0.345260	-7.651740	1.789425
C	0.018411	-6.261894	-0.418360
H	0.259169	-7.954738	-1.834294
C	-0.229701	-6.079985	0.987769
C	-0.302697	-4.798382	1.555260
C	0.196459	-5.153542	-1.294992
C	0.127651	-3.869626	-0.726408
C	-0.123544	-3.688927	0.680716
O	0.396706	-5.481075	-2.601852
O	-0.502673	-4.479871	2.868193
C	-1.262918	-5.356026	3.691495
H	-1.494604	-4.790496	4.614080
H	-0.693738	-6.268513	3.974195
H	-2.212720	-5.658187	3.199559
C	0.997016	-4.546999	-3.490743
H	1.226691	-5.107564	-4.416630
H	1.939526	-4.131473	-3.073934
H	0.309214	-3.712085	-3.746794
C	-0.186133	-2.314326	1.058247
S	0.256010	-2.295487	-1.527599
C	0.000000	-1.435180	-0.000000
H	-0.363896	-1.993211	2.092285
C	0.000000	0.000000	0.000000
S	0.080615	0.895811	1.510732
C	0.216842	2.465231	0.727629
C	0.079127	0.904769	-1.064665
C	0.198659	2.288406	-0.678287
C	0.074988	0.838492	-2.486150
C	0.185097	2.098524	-3.106916
S	0.290501	3.341568	-1.965735
C	0.211932	2.351623	-4.559972
O	0.133545	1.421416	-5.350277
O	0.326994	3.629649	-5.004375
F	-0.018214	-0.271734	-3.246290
C	0.368367	3.986101	-6.334976
H	0.465270	5.086806	-6.370268
H	-0.553140	3.675878	-6.875609
H	1.229874	3.519263	-6.861878
H	0.297091	3.381746	1.321510
H	0.793825	-9.146471	0.401636
H	-0.977367	-9.150570	0.103519
H	1.064992	-1.444158	0.179195
$end

$rem
JOBTYPE		SP
EXCHANGE	HF
CORRELATION	pRIMP2
BASIS		cc-pvtz
METHOD		rimp2
AUX_BASIS	rimp2-cc-pvtz
SOLVENT_METHOD	PCM
PURECART	11111
SYMMETRY	false
MEM_TOTAL	110000
SCF_CONVERGENCE = 6
THRESH=10
GUI = 2
$end

$solvent
dielectric 4.90
$end
--------------------------------------------------------------

             Standard Nuclear Orientation (Angstroms)
    I     Atom           X                Y                Z
 ----------------------------------------------------------------
    1      C      -0.0937110000    -8.5197410000     0.2554590000
    2      C       0.0838690000    -7.6359670000    -0.7990360000
    3      S      -0.3452600000    -7.6517400000     1.7894250000
    4      C       0.0184110000    -6.2618940000    -0.4183600000
    5      H       0.2591690000    -7.9547380000    -1.8342940000
    6      C      -0.2297010000    -6.0799850000     0.9877690000
    7      C      -0.3026970000    -4.7983820000     1.5552600000
    8      C       0.1964590000    -5.1535420000    -1.2949920000
    9      C       0.1276510000    -3.8696260000    -0.7264080000
   10      C      -0.1235440000    -3.6889270000     0.6807160000
   11      O       0.3967060000    -5.4810750000    -2.6018520000
   12      O      -0.5026730000    -4.4798710000     2.8681930000
   13      C      -1.2629180000    -5.3560260000     3.6914950000
   14      H      -1.4946040000    -4.7904960000     4.6140800000
   15      H      -0.6937380000    -6.2685130000     3.9741950000
   16      H      -2.2127200000    -5.6581870000     3.1995590000
   17      C       0.9970160000    -4.5469990000    -3.4907430000
   18      H       1.2266910000    -5.1075640000    -4.4166300000
   19      H       1.9395260000    -4.1314730000    -3.0739340000
   20      H       0.3092140000    -3.7120850000    -3.7467940000
   21      C      -0.1861330000    -2.3143260000     1.0582470000
   22      S       0.2560100000    -2.2954870000    -1.5275990000
   23      C       0.0000000000    -1.4351800000     0.0000000000
   24      H      -0.3638960000    -1.9932110000     2.0922850000
   25      C       0.0000000000     0.0000000000     0.0000000000
   26      S       0.0806150000     0.8958110000     1.5107320000
   27      C       0.2168420000     2.4652310000     0.7276290000
   28      C       0.0791270000     0.9047690000    -1.0646650000
   29      C       0.1986590000     2.2884060000    -0.6782870000
   30      C       0.0749880000     0.8384920000    -2.4861500000
   31      C       0.1850970000     2.0985240000    -3.1069160000
   32      S       0.2905010000     3.3415680000    -1.9657350000
   33      C       0.2119320000     2.3516230000    -4.5599720000
   34      O       0.1335450000     1.4214160000    -5.3502770000
   35      O       0.3269940000     3.6296490000    -5.0043750000
   36      F      -0.0182140000    -0.2717340000    -3.2462900000
   37      C       0.3683670000     3.9861010000    -6.3349760000
   38      H       0.4652700000     5.0868060000    -6.3702680000
   39      H      -0.5531400000     3.6758780000    -6.8756090000
   40      H       1.2298740000     3.5192630000    -6.8618780000
   41      H       0.2970910000     3.3817460000     1.3215100000
   42      H       0.7938250000    -9.1464710000     0.4016360000
   43      H      -0.9773670000    -9.1505700000     0.1035190000
   44      H       1.0649920000    -1.4441580000     0.1791950000
 ----------------------------------------------------------------

   11   -2755.3220362735      7.09e-07  Convergence criterion met
 Total energy in the final basis set =    -2755.3220362735
        RIMP2         total energy =     -2760.4128633259 a.u.

                    Orbital Energies (a.u.)
 --------------------------------------------------------------

 Alpha MOs
 -- Occupied --
-92.0128 -91.9909 -91.9764 -91.9612 -26.3352 -20.6104 -20.5886 -20.5883
-20.5466 -11.4075 -11.3793 -11.3275 -11.3113 -11.3100 -11.2960 -11.2906
-11.2877 -11.2876 -11.2843 -11.2838 -11.2823 -11.2815 -11.2773 -11.2756
-11.2715 -11.2638 -11.2605 -11.2527 -11.2439  -9.0115  -8.9951  -8.9791
 -8.9638  -6.6924  -6.6918  -6.6912  -6.6764  -6.6757  -6.6743  -6.6599
 -6.6592  -6.6577  -6.6450  -6.6441  -6.6431  -1.6510  -1.4698  -1.4120
 -1.4102  -1.3647  -1.2376  -1.2103  -1.1785  -1.1430  -1.1010  -1.0505
 -1.0473  -1.0293  -1.0086  -1.0007  -0.9710  -0.9603  -0.9499  -0.9402
 -0.8955  -0.8719  -0.8640  -0.8131  -0.7957  -0.7863  -0.7764  -0.7665
 -0.7634  -0.7339  -0.7212  -0.7178  -0.6981  -0.6952  -0.6843  -0.6772
 -0.6720  -0.6715  -0.6570  -0.6496  -0.6388  -0.6300  -0.6229  -0.6160
 -0.6109  -0.6041  -0.5970  -0.5910  -0.5773  -0.5686  -0.5649  -0.5595
 -0.5493  -0.5335  -0.5288  -0.5211  -0.5137  -0.5091  -0.5046  -0.4997
 -0.4842  -0.4813  -0.4804  -0.4672  -0.4609  -0.4600  -0.4582  -0.4487
 -0.4314  -0.4002  -0.3857  -0.3730  -0.3509  -0.2933  -0.2832  -0.2195

          Ground-State Mulliken Net Atomic Charges

     Atom                 Charge (a.u.)
  ----------------------------------------
      1 C                    -0.071162
      2 C                    -0.238775
      3 S                    -0.129023
      4 C                    -0.054338
      5 H                     0.196393
      6 C                    -0.046374
      7 C                     0.219337
      8 C                     0.238007
      9 C                    -0.077813
     10 C                    -0.008464
     11 O                    -0.334017
     12 O                    -0.343952
     13 C                    -0.082790
     14 H                     0.120241
     15 H                     0.092102
     16 H                     0.093160
     17 C                    -0.090144
     18 H                     0.125000
     19 H                     0.092765
     20 H                     0.093512
     21 C                    -0.359695
     22 S                    -0.093968
     23 C                     0.176905
     24 H                     0.194608
     25 C                    -0.038713
     26 S                     0.076061
     27 C                    -0.272564
     28 C                    -0.126215
     29 C                    -0.017891
     30 C                     0.397344
     31 C                    -0.148707
     32 S                     0.025415
     33 C                     0.462434
     34 O                    -0.456974
     35 O                    -0.298719
     36 F                    -0.209460
     37 C                    -0.055321
     38 H                     0.116307
     39 H                     0.084105
     40 H                     0.083765
     41 H                     0.213883
     42 H                     0.120271
     43 H                     0.118102
     44 H                     0.215363
  ----------------------------------------
  Sum of atomic charges =     0.000000

                    Cartesian Multipole Moments
 -----------------------------------------------------------------
    Charge (ESU x 10^10)
                -0.0000
    Dipole Moment (Debye)
         X       0.9393      Y       0.9583      Z       3.0720
       Tot       3.3522
    Quadrupole Moments (Debye-Ang)
        XX    -197.2106     XY       0.5139     YY    -165.4387
        XZ      -8.7872     YZ      -5.0720     ZZ    -193.3303

 Total job time:  327.62s(wall), 10677.71s(cpu)
        *  Thank you very much for using Q-Chem.  Have a nice day.  *
