 Q-Chem 5.4, Q-Chem, Inc., Pleasanton, CA (2021)
 Q-Chem 5.4.0 for Intel X86 EM64T Linux

User input:
--------------------------------------------------------------
$molecule
0 1
C	0.208886	-8.519741	-0.174379
C	-0.472151	-7.635967	0.650052
S	1.193717	-7.651740	-1.377058
C	-0.225125	-6.261894	0.353105
H	-1.141594	-7.954738	1.458961
C	0.692811	-6.079985	-0.740583
C	1.039773	-4.798382	-1.195546
C	-0.817634	-5.153542	1.023267
C	-0.473754	-3.869626	0.565262
C	0.447350	-3.688927	-0.527745
O	-1.644483	-5.481075	2.054917
O	1.869424	-4.479871	-2.232592
C	2.939466	-5.356026	-2.565470
H	3.601405	-4.790496	-3.248608
H	2.587892	-6.268513	-3.094885
H	3.516052	-5.658187	-1.664539
C	-2.608813	-4.546999	2.524564
H	-3.270661	-5.107564	3.211568
H	-3.216646	-4.131473	1.692342
H	-2.141184	-3.712085	3.090211
C	0.690319	-2.314326	-0.823402
S	-0.985511	-2.295487	1.194935
C	-0.000000	-1.435180	-0.000000
H	1.361286	-1.993211	-1.630024
C	0.000000	0.000000	0.000000
S	0.579852	0.687566	1.510732
C	1.591625	1.895024	0.727629
C	0.583771	0.695758	-1.064665
C	1.475308	1.760606	-0.678287
C	0.542366	0.643841	-2.486150
C	1.355286	1.612843	-3.106916
S	2.154609	2.570627	-1.965735
C	1.522440	1.804778	-4.559972
O	0.924684	1.087757	-5.350277
O	2.349739	2.785679	-5.004375
F	-0.170780	-0.212144	-3.246290
C	2.588082	3.053936	-6.334976
H	3.298799	3.899999	-6.370268
H	1.655291	3.328371	-6.875609
H	3.026021	2.177385	-6.861878
H	2.183053	2.599759	1.321510
H	-0.486655	-9.146471	-0.744739
H	0.898184	-9.150570	0.399033
H	-0.832713	-1.444158	-0.687683
$end

$rem
JOBTYPE		SP
EXCHANGE	HF
CORRELATION	pRIMP2
BASIS		cc-pvtz
METHOD		rimp2
AUX_BASIS	rimp2-cc-pvtz
SOLVENT_METHOD	PCM
PURECART	11111
SYMMETRY	false
MEM_TOTAL	110000
SCF_CONVERGENCE = 6
THRESH=10
GUI = 2
$end

$solvent
dielectric 4.90
$end
--------------------------------------------------------------

             Standard Nuclear Orientation (Angstroms)
    I     Atom           X                Y                Z
 ----------------------------------------------------------------
    1      C       0.2088860000    -8.5197410000    -0.1743790000
    2      C      -0.4721510000    -7.6359670000     0.6500520000
    3      S       1.1937170000    -7.6517400000    -1.3770580000
    4      C      -0.2251250000    -6.2618940000     0.3531050000
    5      H      -1.1415940000    -7.9547380000     1.4589610000
    6      C       0.6928110000    -6.0799850000    -0.7405830000
    7      C       1.0397730000    -4.7983820000    -1.1955460000
    8      C      -0.8176340000    -5.1535420000     1.0232670000
    9      C      -0.4737540000    -3.8696260000     0.5652620000
   10      C       0.4473500000    -3.6889270000    -0.5277450000
   11      O      -1.6444830000    -5.4810750000     2.0549170000
   12      O       1.8694240000    -4.4798710000    -2.2325920000
   13      C       2.9394660000    -5.3560260000    -2.5654700000
   14      H       3.6014050000    -4.7904960000    -3.2486080000
   15      H       2.5878920000    -6.2685130000    -3.0948850000
   16      H       3.5160520000    -5.6581870000    -1.6645390000
   17      C      -2.6088130000    -4.5469990000     2.5245640000
   18      H      -3.2706610000    -5.1075640000     3.2115680000
   19      H      -3.2166460000    -4.1314730000     1.6923420000
   20      H      -2.1411840000    -3.7120850000     3.0902110000
   21      C       0.6903190000    -2.3143260000    -0.8234020000
   22      S      -0.9855110000    -2.2954870000     1.1949350000
   23      C       0.0000000000    -1.4351800000     0.0000000000
   24      H       1.3612860000    -1.9932110000    -1.6300240000
   25      C       0.0000000000     0.0000000000     0.0000000000
   26      S       0.5798520000     0.6875660000     1.5107320000
   27      C       1.5916250000     1.8950240000     0.7276290000
   28      C       0.5837710000     0.6957580000    -1.0646650000
   29      C       1.4753080000     1.7606060000    -0.6782870000
   30      C       0.5423660000     0.6438410000    -2.4861500000
   31      C       1.3552860000     1.6128430000    -3.1069160000
   32      S       2.1546090000     2.5706270000    -1.9657350000
   33      C       1.5224400000     1.8047780000    -4.5599720000
   34      O       0.9246840000     1.0877570000    -5.3502770000
   35      O       2.3497390000     2.7856790000    -5.0043750000
   36      F      -0.1707800000    -0.2121440000    -3.2462900000
   37      C       2.5880820000     3.0539360000    -6.3349760000
   38      H       3.2987990000     3.8999990000    -6.3702680000
   39      H       1.6552910000     3.3283710000    -6.8756090000
   40      H       3.0260210000     2.1773850000    -6.8618780000
   41      H       2.1830530000     2.5997590000     1.3215100000
   42      H      -0.4866550000    -9.1464710000    -0.7447390000
   43      H       0.8981840000    -9.1505700000     0.3990330000
   44      H      -0.8327130000    -1.4441580000    -0.6876830000
 ----------------------------------------------------------------

   11   -2755.2968948697      7.21e-07  Convergence criterion met
 Total energy in the final basis set =    -2755.2968948697
        RIMP2         total energy =     -2760.4000604682 a.u.

                    Orbital Energies (a.u.)
 --------------------------------------------------------------

 Alpha MOs
 -- Occupied --
-92.0125 -92.0003 -91.9781 -91.9573 -26.3384 -20.6143 -20.5867 -20.5866
-20.5534 -11.4134 -11.3793 -11.3088 -11.3069 -11.3044 -11.3037 -11.3018
-11.3001 -11.2897 -11.2881 -11.2843 -11.2831 -11.2822 -11.2790 -11.2736
-11.2716 -11.2576 -11.2566 -11.2488 -11.2354  -9.0116  -9.0041  -8.9803
 -8.9599  -6.6923  -6.6915  -6.6911  -6.6853  -6.6847  -6.6834  -6.6614
 -6.6606  -6.6593  -6.6412  -6.6402  -6.6392  -1.6516  -1.4742  -1.4101
 -1.4084  -1.3699  -1.2427  -1.2085  -1.1749  -1.1451  -1.0993  -1.0537
 -1.0457  -1.0310  -1.0082  -0.9978  -0.9738  -0.9598  -0.9486  -0.9414
 -0.8936  -0.8752  -0.8609  -0.8077  -0.7967  -0.7857  -0.7781  -0.7735
 -0.7610  -0.7337  -0.7217  -0.7181  -0.6977  -0.6935  -0.6857  -0.6805
 -0.6758  -0.6729  -0.6557  -0.6482  -0.6370  -0.6270  -0.6193  -0.6144
 -0.6114  -0.6089  -0.5991  -0.5944  -0.5804  -0.5680  -0.5579  -0.5559
 -0.5428  -0.5335  -0.5298  -0.5231  -0.5123  -0.5073  -0.5063  -0.5013
 -0.4884  -0.4835  -0.4737  -0.4687  -0.4633  -0.4630  -0.4593  -0.4455
 -0.4263  -0.3987  -0.3851  -0.3693  -0.3509  -0.2959  -0.2877  -0.2165

          Ground-State Mulliken Net Atomic Charges

     Atom                 Charge (a.u.)
  ----------------------------------------
      1 C                    -0.069908
      2 C                    -0.264549
      3 S                    -0.137245
      4 C                    -0.045732
      5 H                     0.192818
      6 C                    -0.053537
      7 C                     0.225690
      8 C                     0.230031
      9 C                    -0.071626
     10 C                    -0.042595
     11 O                    -0.334888
     12 O                    -0.343330
     13 C                    -0.082704
     14 H                     0.120150
     15 H                     0.092294
     16 H                     0.092477
     17 C                    -0.087295
     18 H                     0.124080
     19 H                     0.092724
     20 H                     0.089697
     21 C                    -0.298527
     22 S                    -0.095076
     23 C                     0.096295
     24 H                     0.203690
     25 C                    -0.091998
     26 S                     0.112392
     27 C                    -0.210728
     28 C                    -0.096376
     29 C                    -0.013862
     30 C                     0.362345
     31 C                    -0.135250
     32 S                     0.055265
     33 C                     0.459744
     34 O                    -0.446021
     35 O                    -0.297617
     36 F                    -0.213903
     37 C                    -0.054718
     38 H                     0.117119
     39 H                     0.085173
     40 H                     0.084999
     41 H                     0.215917
     42 H                     0.116825
     43 H                     0.114404
     44 H                     0.203355
  ----------------------------------------
  Sum of atomic charges =     0.000000

                    Cartesian Multipole Moments
 -----------------------------------------------------------------
    Charge (ESU x 10^10)
                 0.0000
    Dipole Moment (Debye)
         X       2.2400      Y       3.5319      Z       2.6365
       Tot       4.9440
    Quadrupole Moments (Debye-Ang)
        XX    -180.6106     XY      11.1516     YY    -182.1094
        XZ     -15.8489     YZ     -11.7323     ZZ    -200.1807

 Total job time:  331.02s(wall), 10793.67s(cpu)
        *  Thank you very much for using Q-Chem.  Have a nice day.  *
