 Q-Chem 5.4, Q-Chem, Inc., Pleasanton, CA (2021)
 Q-Chem 5.4.0 for Intel X86 EM64T Linux

User input:
--------------------------------------------------------------
$molecule
0 1
C	-0.272104	-8.519741	-0.000687
C	0.779533	-7.635967	-0.194476
S	-1.799596	-7.651740	0.287581
C	0.399427	-6.261894	-0.125787
H	1.812314	-7.954738	-0.383826
C	-1.006762	-6.079985	0.121989
C	-1.564994	-4.798382	0.247488
C	1.284087	-5.153542	-0.258303
C	0.726260	-3.869626	-0.128493
C	-0.681918	-3.688927	0.116725
O	2.580622	-5.481075	-0.517104
O	-2.867144	-4.479871	0.508622
C	-3.900814	-5.356026	0.075811
H	-4.847002	-4.790496	0.173640
H	-3.971794	-6.268513	0.707354
H	-3.763397	-5.658187	-0.984963
C	3.621225	-4.546999	-0.257016
H	4.569828	-5.107564	-0.357864
H	3.551910	-4.131473	0.771211
H	3.626592	-3.712085	-0.990913
C	-1.058088	-2.314326	0.187034
S	1.523035	-2.295487	-0.281899
C	0.000000	-1.435180	0.000000
H	-2.090565	-1.993211	0.373653
C	0.000000	0.000000	0.000000
S	0.309721	0.844422	1.510732
C	0.847502	2.325108	0.727629
C	0.310602	0.853460	-1.064665
C	0.784173	2.159014	-0.678287
C	0.289451	0.790512	-2.486150
C	0.721927	1.979112	-3.106916
S	1.145464	3.152519	-1.965735
C	0.813355	2.216642	-4.559972
O	0.496884	1.338418	-5.350277
O	1.255274	3.421340	-5.004375
F	-0.087923	-0.257761	-3.246290
C	1.387494	3.754937	-6.334976
H	1.765978	4.793056	-6.370268
H	0.417095	3.693789	-6.875609
H	2.098820	3.081033	-6.861878
H	1.162229	3.189623	1.321510
H	-0.105910	-9.146471	0.883319
H	-0.431555	-9.150570	-0.883019
H	0.195861	-1.444158	1.062054
$end

$rem
JOBTYPE		SP
EXCHANGE	HF
CORRELATION	pRIMP2
BASIS		cc-pvtz
METHOD		rimp2
AUX_BASIS	rimp2-cc-pvtz
SOLVENT_METHOD	PCM
PURECART	11111
SYMMETRY	false
MEM_TOTAL	110000
SCF_CONVERGENCE = 6
THRESH=10
GUI = 2
$end

$solvent
dielectric 4.90
$end
--------------------------------------------------------------

             Standard Nuclear Orientation (Angstroms)
    I     Atom           X                Y                Z
 ----------------------------------------------------------------
    1      C      -0.2721040000    -8.5197410000    -0.0006870000
    2      C       0.7795330000    -7.6359670000    -0.1944760000
    3      S      -1.7995960000    -7.6517400000     0.2875810000
    4      C       0.3994270000    -6.2618940000    -0.1257870000
    5      H       1.8123140000    -7.9547380000    -0.3838260000
    6      C      -1.0067620000    -6.0799850000     0.1219890000
    7      C      -1.5649940000    -4.7983820000     0.2474880000
    8      C       1.2840870000    -5.1535420000    -0.2583030000
    9      C       0.7262600000    -3.8696260000    -0.1284930000
   10      C      -0.6819180000    -3.6889270000     0.1167250000
   11      O       2.5806220000    -5.4810750000    -0.5171040000
   12      O      -2.8671440000    -4.4798710000     0.5086220000
   13      C      -3.9008140000    -5.3560260000     0.0758110000
   14      H      -4.8470020000    -4.7904960000     0.1736400000
   15      H      -3.9717940000    -6.2685130000     0.7073540000
   16      H      -3.7633970000    -5.6581870000    -0.9849630000
   17      C       3.6212250000    -4.5469990000    -0.2570160000
   18      H       4.5698280000    -5.1075640000    -0.3578640000
   19      H       3.5519100000    -4.1314730000     0.7712110000
   20      H       3.6265920000    -3.7120850000    -0.9909130000
   21      C      -1.0580880000    -2.3143260000     0.1870340000
   22      S       1.5230350000    -2.2954870000    -0.2818990000
   23      C       0.0000000000    -1.4351800000     0.0000000000
   24      H      -2.0905650000    -1.9932110000     0.3736530000
   25      C       0.0000000000     0.0000000000     0.0000000000
   26      S       0.3097210000     0.8444220000     1.5107320000
   27      C       0.8475020000     2.3251080000     0.7276290000
   28      C       0.3106020000     0.8534600000    -1.0646650000
   29      C       0.7841730000     2.1590140000    -0.6782870000
   30      C       0.2894510000     0.7905120000    -2.4861500000
   31      C       0.7219270000     1.9791120000    -3.1069160000
   32      S       1.1454640000     3.1525190000    -1.9657350000
   33      C       0.8133550000     2.2166420000    -4.5599720000
   34      O       0.4968840000     1.3384180000    -5.3502770000
   35      O       1.2552740000     3.4213400000    -5.0043750000
   36      F      -0.0879230000    -0.2577610000    -3.2462900000
   37      C       1.3874940000     3.7549370000    -6.3349760000
   38      H       1.7659780000     4.7930560000    -6.3702680000
   39      H       0.4170950000     3.6937890000    -6.8756090000
   40      H       2.0988200000     3.0810330000    -6.8618780000
   41      H       1.1622290000     3.1896230000     1.3215100000
   42      H      -0.1059100000    -9.1464710000     0.8833190000
   43      H      -0.4315550000    -9.1505700000    -0.8830190000
   44      H       0.1958610000    -1.4441580000     1.0620540000
 ----------------------------------------------------------------

   11   -2755.3191561900      7.51e-07  Convergence criterion met
 Total energy in the final basis set =    -2755.3191561900
        RIMP2         total energy =     -2760.4114135060 a.u.

                    Orbital Energies (a.u.)
 --------------------------------------------------------------

 Alpha MOs
 -- Occupied --
-92.0187 -91.9966 -91.9776 -91.9573 -26.3352 -20.6132 -20.5868 -20.5863
-20.5518 -11.4118 -11.3776 -11.3085 -11.3083 -11.3064 -11.3008 -11.2998
-11.2977 -11.2890 -11.2841 -11.2827 -11.2825 -11.2824 -11.2798 -11.2719
-11.2716 -11.2575 -11.2559 -11.2488 -11.2353  -9.0171  -9.0006  -8.9798
 -8.9599  -6.6978  -6.6972  -6.6968  -6.6819  -6.6812  -6.6799  -6.6609
 -6.6600  -6.6587  -6.6411  -6.6402  -6.6392  -1.6481  -1.4730  -1.4098
 -1.4084  -1.3685  -1.2391  -1.2085  -1.1747  -1.1444  -1.0985  -1.0508
 -1.0450  -1.0319  -1.0080  -0.9969  -0.9731  -0.9595  -0.9481  -0.9403
 -0.8927  -0.8720  -0.8638  -0.8090  -0.7933  -0.7845  -0.7763  -0.7750
 -0.7649  -0.7331  -0.7212  -0.7164  -0.6967  -0.6927  -0.6811  -0.6794
 -0.6730  -0.6642  -0.6558  -0.6481  -0.6332  -0.6289  -0.6192  -0.6144
 -0.6111  -0.6077  -0.5966  -0.5925  -0.5816  -0.5637  -0.5605  -0.5557
 -0.5478  -0.5351  -0.5281  -0.5217  -0.5123  -0.5070  -0.5038  -0.5011
 -0.4879  -0.4856  -0.4762  -0.4701  -0.4627  -0.4621  -0.4607  -0.4458
 -0.4227  -0.4031  -0.3850  -0.3696  -0.3509  -0.2932  -0.2889  -0.2200

          Ground-State Mulliken Net Atomic Charges

     Atom                 Charge (a.u.)
  ----------------------------------------
      1 C                    -0.069950
      2 C                    -0.263557
      3 S                    -0.137535
      4 C                    -0.042842
      5 H                     0.192913
      6 C                    -0.053240
      7 C                     0.225981
      8 C                     0.223443
      9 C                    -0.073351
     10 C                    -0.045110
     11 O                    -0.334860
     12 O                    -0.343419
     13 C                    -0.082450
     14 H                     0.119728
     15 H                     0.091775
     16 H                     0.093315
     17 C                    -0.086885
     18 H                     0.123163
     19 H                     0.091665
     20 H                     0.090788
     21 C                    -0.267067
     22 S                    -0.071727
     23 C                     0.049054
     24 H                     0.203177
     25 C                    -0.033970
     26 S                     0.102389
     27 C                    -0.230515
     28 C                    -0.125336
     29 C                     0.004460
     30 C                     0.386081
     31 C                    -0.151740
     32 S                     0.044207
     33 C                     0.459418
     34 O                    -0.446960
     35 O                    -0.297567
     36 F                    -0.211273
     37 C                    -0.054924
     38 H                     0.116748
     39 H                     0.084918
     40 H                     0.084880
     41 H                     0.217029
     42 H                     0.116639
     43 H                     0.114605
     44 H                     0.187903
  ----------------------------------------
  Sum of atomic charges =     0.000000

                    Cartesian Multipole Moments
 -----------------------------------------------------------------
    Charge (ESU x 10^10)
                -0.0000
    Dipole Moment (Debye)
         X       1.5636      Y       4.0339      Z       3.6201
       Tot       5.6411
    Quadrupole Moments (Debye-Ang)
        XX    -181.5510     XY       1.6593     YY    -178.0505
        XZ      -1.1129     YZ      -9.6189     ZZ    -204.9536

 Total job time:  339.00s(wall), 10624.19s(cpu)
        *  Thank you very much for using Q-Chem.  Have a nice day.  *
