 Q-Chem 5.4, Q-Chem, Inc., Pleasanton, CA (2021)
 Q-Chem 5.4.0 for Intel X86 EM64T Linux

User input:
--------------------------------------------------------------
$molecule
0 1
C	0.047927	-8.519741	-0.267851
C	0.056157	-7.635967	0.801461
S	0.029285	-7.651740	-1.822194
C	0.054516	-6.261894	0.415201
H	0.063290	-7.954738	1.851431
C	0.054687	-6.079985	-1.012650
C	0.028030	-4.798382	-1.584194
C	0.031399	-5.153542	1.309433
C	0.000427	-3.869626	0.737539
C	0.003462	-3.688927	-0.691828
O	0.061128	-5.481075	2.631211
O	-0.003021	-4.479871	-2.911907
C	0.602710	-5.356026	-3.854716
H	0.670671	-4.790496	-4.803517
H	-0.006913	-6.268513	-4.034285
H	1.623507	-5.658187	-3.535185
C	-0.375708	-4.546999	3.610841
H	-0.441115	-5.107564	4.562544
H	-1.376277	-4.131473	3.364029
H	0.346107	-3.712085	3.743566
C	-0.000458	-2.314326	-1.074491
S	0.013144	-2.295487	1.548848
C	-0.000000	-1.435180	-0.000000
H	-0.004953	-1.993211	-2.123688
C	0.000000	0.000000	0.000000
S	0.382139	0.814215	1.510732
C	1.046923	2.242395	0.727629
C	0.383804	0.823142	-1.064665
C	0.969360	2.082453	-0.678287
C	0.357247	0.762277	-2.486150
C	0.891671	1.908660	-3.106916
S	1.415865	3.040689	-1.965735
C	1.003453	2.137318	-4.559972
O	0.611644	1.290019	-5.350277
O	1.548687	3.298916	-5.004375
F	-0.110054	-0.249117	-3.246290
C	1.709479	3.619721	-6.334976
H	2.177001	4.620902	-6.370268
H	0.737443	3.643380	-6.875609
H	2.359363	2.886384	-6.861878
H	1.435800	3.076190	1.321510
H	-0.851509	-9.146471	-0.257688
H	0.944542	-9.150570	-0.271664
H	-1.079930	-1.444158	0.008462
$end

$rem
JOBTYPE		SP
EXCHANGE	HF
CORRELATION	pRIMP2
BASIS		cc-pvtz
METHOD		rimp2
AUX_BASIS	rimp2-cc-pvtz
SOLVENT_METHOD	PCM
PURECART	11111
SYMMETRY	false
MEM_TOTAL	110000
SCF_CONVERGENCE = 6
THRESH=10
GUI = 2
$end

$solvent
dielectric 4.90
$end
--------------------------------------------------------------

             Standard Nuclear Orientation (Angstroms)
    I     Atom           X                Y                Z
 ----------------------------------------------------------------
    1      C       0.0479270000    -8.5197410000    -0.2678510000
    2      C       0.0561570000    -7.6359670000     0.8014610000
    3      S       0.0292850000    -7.6517400000    -1.8221940000
    4      C       0.0545160000    -6.2618940000     0.4152010000
    5      H       0.0632900000    -7.9547380000     1.8514310000
    6      C       0.0546870000    -6.0799850000    -1.0126500000
    7      C       0.0280300000    -4.7983820000    -1.5841940000
    8      C       0.0313990000    -5.1535420000     1.3094330000
    9      C       0.0004270000    -3.8696260000     0.7375390000
   10      C       0.0034620000    -3.6889270000    -0.6918280000
   11      O       0.0611280000    -5.4810750000     2.6312110000
   12      O      -0.0030210000    -4.4798710000    -2.9119070000
   13      C       0.6027100000    -5.3560260000    -3.8547160000
   14      H       0.6706710000    -4.7904960000    -4.8035170000
   15      H      -0.0069130000    -6.2685130000    -4.0342850000
   16      H       1.6235070000    -5.6581870000    -3.5351850000
   17      C      -0.3757080000    -4.5469990000     3.6108410000
   18      H      -0.4411150000    -5.1075640000     4.5625440000
   19      H      -1.3762770000    -4.1314730000     3.3640290000
   20      H       0.3461070000    -3.7120850000     3.7435660000
   21      C      -0.0004580000    -2.3143260000    -1.0744910000
   22      S       0.0131440000    -2.2954870000     1.5488480000
   23      C       0.0000000000    -1.4351800000     0.0000000000
   24      H      -0.0049530000    -1.9932110000    -2.1236880000
   25      C       0.0000000000     0.0000000000     0.0000000000
   26      S       0.3821390000     0.8142150000     1.5107320000
   27      C       1.0469230000     2.2423950000     0.7276290000
   28      C       0.3838040000     0.8231420000    -1.0646650000
   29      C       0.9693600000     2.0824530000    -0.6782870000
   30      C       0.3572470000     0.7622770000    -2.4861500000
   31      C       0.8916710000     1.9086600000    -3.1069160000
   32      S       1.4158650000     3.0406890000    -1.9657350000
   33      C       1.0034530000     2.1373180000    -4.5599720000
   34      O       0.6116440000     1.2900190000    -5.3502770000
   35      O       1.5486870000     3.2989160000    -5.0043750000
   36      F      -0.1100540000    -0.2491170000    -3.2462900000
   37      C       1.7094790000     3.6197210000    -6.3349760000
   38      H       2.1770010000     4.6209020000    -6.3702680000
   39      H       0.7374430000     3.6433800000    -6.8756090000
   40      H       2.3593630000     2.8863840000    -6.8618780000
   41      H       1.4358000000     3.0761900000     1.3215100000
   42      H      -0.8515090000    -9.1464710000    -0.2576880000
   43      H       0.9445420000    -9.1505700000    -0.2716640000
   44      H      -1.0799300000    -1.4441580000     0.0084620000
 ----------------------------------------------------------------

   11   -2755.3092162977      6.75e-07  Convergence criterion met
 Total energy in the final basis set =    -2755.3092162977
        RIMP2         total energy =     -2760.4063709753 a.u.

                    Orbital Energies (a.u.)
 --------------------------------------------------------------

 Alpha MOs
 -- Occupied --
-92.0147 -91.9940 -91.9831 -91.9592 -26.3402 -20.6115 -20.5895 -20.5869
-20.5486 -11.4092 -11.3796 -11.3195 -11.3116 -11.3097 -11.2974 -11.2945
-11.2883 -11.2876 -11.2863 -11.2852 -11.2842 -11.2821 -11.2783 -11.2742
-11.2704 -11.2599 -11.2597 -11.2510 -11.2406  -9.0134  -8.9980  -8.9853
 -8.9618  -6.6942  -6.6936  -6.6931  -6.6793  -6.6786  -6.6773  -6.6664
 -6.6656  -6.6643  -6.6430  -6.6421  -6.6411  -1.6548  -1.4711  -1.4128
 -1.4088  -1.3663  -1.2389  -1.2104  -1.1772  -1.1438  -1.1005  -1.0509
 -1.0480  -1.0291  -1.0103  -0.9998  -0.9720  -0.9598  -0.9501  -0.9408
 -0.8958  -0.8731  -0.8634  -0.8108  -0.7983  -0.7877  -0.7757  -0.7710
 -0.7633  -0.7343  -0.7238  -0.7210  -0.6986  -0.6945  -0.6848  -0.6782
 -0.6726  -0.6701  -0.6577  -0.6492  -0.6402  -0.6299  -0.6213  -0.6154
 -0.6084  -0.6057  -0.5957  -0.5928  -0.5768  -0.5711  -0.5596  -0.5532
 -0.5454  -0.5363  -0.5325  -0.5229  -0.5148  -0.5097  -0.5069  -0.5014
 -0.4848  -0.4835  -0.4789  -0.4690  -0.4621  -0.4608  -0.4580  -0.4476
 -0.4336  -0.3969  -0.3884  -0.3715  -0.3502  -0.2940  -0.2848  -0.2172

          Ground-State Mulliken Net Atomic Charges

     Atom                 Charge (a.u.)
  ----------------------------------------
      1 C                    -0.070666
      2 C                    -0.250652
      3 S                    -0.132821
      4 C                    -0.050288
      5 H                     0.194694
      6 C                    -0.051101
      7 C                     0.230690
      8 C                     0.234292
      9 C                    -0.077592
     10 C                    -0.038818
     11 O                    -0.333202
     12 O                    -0.343710
     13 C                    -0.083279
     14 H                     0.121950
     15 H                     0.092148
     16 H                     0.092561
     17 C                    -0.089111
     18 H                     0.125294
     19 H                     0.093383
     20 H                     0.090108
     21 C                    -0.312823
     22 S                    -0.096376
     23 C                     0.101235
     24 H                     0.222010
     25 C                    -0.036006
     26 S                     0.090097
     27 C                    -0.257672
     28 C                    -0.096126
     29 C                    -0.010999
     30 C                     0.368024
     31 C                    -0.141617
     32 S                     0.040019
     33 C                     0.457929
     34 O                    -0.454026
     35 O                    -0.298466
     36 F                    -0.215971
     37 C                    -0.054901
     38 H                     0.116569
     39 H                     0.084216
     40 H                     0.084175
     41 H                     0.215341
     42 H                     0.118656
     43 H                     0.116405
     44 H                     0.206430
  ----------------------------------------
  Sum of atomic charges =     0.000000

                    Cartesian Multipole Moments
 -----------------------------------------------------------------
    Charge (ESU x 10^10)
                -0.0000
    Dipole Moment (Debye)
         X       0.6162      Y       1.8591      Z       3.6666
       Tot       4.1569
    Quadrupole Moments (Debye-Ang)
        XX    -196.9383     XY       5.7298     YY    -172.1264
        XZ     -10.1478     YZ     -13.7063     ZZ    -190.3506

 Total job time:  340.84s(wall), 10500.27s(cpu)
        *  Thank you very much for using Q-Chem.  Have a nice day.  *
