 Q-Chem 5.4, Q-Chem, Inc., Pleasanton, CA (2021)
 Q-Chem 5.4.0 for Intel X86 EM64T Linux

User input:
--------------------------------------------------------------
$molecule
0 1
C	0.208002	-8.519741	0.175432
C	-0.722164	-7.635967	-0.352097
S	1.563424	-7.651740	0.936458
C	-0.386833	-6.261894	-0.160388
H	-1.635031	-7.954738	-0.870905
C	0.849637	-6.079985	0.553685
C	1.357938	-4.798382	0.816372
C	-1.149702	-5.153542	-0.627524
C	-0.638941	-3.869626	-0.368399
C	0.597409	-3.688927	0.348912
O	-2.309260	-5.481075	-1.262667
O	2.523296	-4.479871	1.453338
C	3.036927	-5.356026	2.449320
H	3.824632	-4.790496	2.982577
H	3.497250	-6.268513	2.011155
H	2.249807	-5.658187	3.173591
C	-2.939226	-4.546999	-2.130793
H	-3.730721	-5.107564	-2.663289
H	-2.225196	-4.131473	-2.873906
H	-3.415077	-3.712085	-1.572045
C	0.930765	-2.314326	0.536849
S	-1.347913	-2.295487	-0.763041
C	-0.000000	-1.435180	-0.000000
H	1.841645	-1.993211	1.057554
C	0.000000	0.000000	0.000000
S	0.158383	0.885376	1.510732
C	0.430876	2.436951	0.727629
C	0.157682	0.894430	-1.064665
C	0.397351	2.262384	-0.678287
C	0.147783	0.828765	-2.486150
C	0.367291	2.074406	-3.106916
S	0.580633	3.303533	-1.965735
C	0.416083	2.324204	-4.559972
O	0.256921	1.404367	-5.350277
O	0.642094	3.587338	-5.004375
F	-0.041828	-0.269113	-3.246290
C	0.714377	3.938827	-6.334976
H	0.906844	5.026898	-6.370268
H	-0.230661	3.710099	-6.875609
H	1.531918	3.398681	-6.861878
H	0.590699	3.342984	1.321510
H	0.648918	-9.146471	-0.608584
H	-0.237003	-9.150570	0.953830
H	0.532637	-1.444158	-0.939477
$end

$rem
JOBTYPE		SP
EXCHANGE	HF
CORRELATION	pRIMP2
BASIS		cc-pvtz
METHOD		rimp2
AUX_BASIS	rimp2-cc-pvtz
SOLVENT_METHOD	PCM
PURECART	11111
SYMMETRY	false
MEM_TOTAL	110000
SCF_CONVERGENCE = 6
THRESH=10
GUI = 2
$end

$solvent
dielectric 4.90
$end
--------------------------------------------------------------

             Standard Nuclear Orientation (Angstroms)
    I     Atom           X                Y                Z
 ----------------------------------------------------------------
    1      C       0.2080020000    -8.5197410000     0.1754320000
    2      C      -0.7221640000    -7.6359670000    -0.3520970000
    3      S       1.5634240000    -7.6517400000     0.9364580000
    4      C      -0.3868330000    -6.2618940000    -0.1603880000
    5      H      -1.6350310000    -7.9547380000    -0.8709050000
    6      C       0.8496370000    -6.0799850000     0.5536850000
    7      C       1.3579380000    -4.7983820000     0.8163720000
    8      C      -1.1497020000    -5.1535420000    -0.6275240000
    9      C      -0.6389410000    -3.8696260000    -0.3683990000
   10      C       0.5974090000    -3.6889270000     0.3489120000
   11      O      -2.3092600000    -5.4810750000    -1.2626670000
   12      O       2.5232960000    -4.4798710000     1.4533380000
   13      C       3.0369270000    -5.3560260000     2.4493200000
   14      H       3.8246320000    -4.7904960000     2.9825770000
   15      H       3.4972500000    -6.2685130000     2.0111550000
   16      H       2.2498070000    -5.6581870000     3.1735910000
   17      C      -2.9392260000    -4.5469990000    -2.1307930000
   18      H      -3.7307210000    -5.1075640000    -2.6632890000
   19      H      -2.2251960000    -4.1314730000    -2.8739060000
   20      H      -3.4150770000    -3.7120850000    -1.5720450000
   21      C       0.9307650000    -2.3143260000     0.5368490000
   22      S      -1.3479130000    -2.2954870000    -0.7630410000
   23      C       0.0000000000    -1.4351800000     0.0000000000
   24      H       1.8416450000    -1.9932110000     1.0575540000
   25      C       0.0000000000     0.0000000000     0.0000000000
   26      S       0.1583830000     0.8853760000     1.5107320000
   27      C       0.4308760000     2.4369510000     0.7276290000
   28      C       0.1576820000     0.8944300000    -1.0646650000
   29      C       0.3973510000     2.2623840000    -0.6782870000
   30      C       0.1477830000     0.8287650000    -2.4861500000
   31      C       0.3672910000     2.0744060000    -3.1069160000
   32      S       0.5806330000     3.3035330000    -1.9657350000
   33      C       0.4160830000     2.3242040000    -4.5599720000
   34      O       0.2569210000     1.4043670000    -5.3502770000
   35      O       0.6420940000     3.5873380000    -5.0043750000
   36      F      -0.0418280000    -0.2691130000    -3.2462900000
   37      C       0.7143770000     3.9388270000    -6.3349760000
   38      H       0.9068440000     5.0268980000    -6.3702680000
   39      H      -0.2306610000     3.7100990000    -6.8756090000
   40      H       1.5319180000     3.3986810000    -6.8618780000
   41      H       0.5906990000     3.3429840000     1.3215100000
   42      H       0.6489180000    -9.1464710000    -0.6085840000
   43      H      -0.2370030000    -9.1505700000     0.9538300000
   44      H       0.5326370000    -1.4441580000    -0.9394770000
 ----------------------------------------------------------------

   11   -2755.3265638890      7.33e-07  Convergence criterion met
 Total energy in the final basis set =    -2755.3265638890
        RIMP2         total energy =     -2760.4186103161 a.u.

                    Orbital Energies (a.u.)
 --------------------------------------------------------------

 Alpha MOs
 -- Occupied --
-92.0147 -91.9960 -91.9767 -91.9587 -26.3375 -20.6129 -20.5874 -20.5867
-20.5510 -11.4113 -11.3792 -11.3162 -11.3092 -11.3074 -11.2988 -11.2978
-11.2930 -11.2890 -11.2837 -11.2835 -11.2831 -11.2829 -11.2820 -11.2738
-11.2727 -11.2592 -11.2584 -11.2500 -11.2378  -9.0131  -9.0000  -8.9790
 -8.9613  -6.6938  -6.6933  -6.6929  -6.6813  -6.6806  -6.6793  -6.6601
 -6.6592  -6.6579  -6.6425  -6.6416  -6.6405  -1.6507  -1.4726  -1.4103
 -1.4091  -1.3680  -1.2391  -1.2088  -1.1756  -1.1435  -1.1002  -1.0518
 -1.0460  -1.0295  -1.0088  -0.9981  -0.9725  -0.9596  -0.9487  -0.9410
 -0.8933  -0.8742  -0.8627  -0.8110  -0.7925  -0.7856  -0.7804  -0.7682
 -0.7629  -0.7336  -0.7192  -0.7188  -0.6978  -0.6926  -0.6872  -0.6793
 -0.6762  -0.6729  -0.6554  -0.6485  -0.6314  -0.6299  -0.6203  -0.6150
 -0.6106  -0.6070  -0.5960  -0.5936  -0.5823  -0.5651  -0.5584  -0.5567
 -0.5511  -0.5319  -0.5282  -0.5212  -0.5133  -0.5078  -0.5038  -0.5005
 -0.4881  -0.4852  -0.4786  -0.4688  -0.4623  -0.4620  -0.4605  -0.4461
 -0.4265  -0.4013  -0.3854  -0.3703  -0.3504  -0.2928  -0.2877  -0.2200

          Ground-State Mulliken Net Atomic Charges

     Atom                 Charge (a.u.)
  ----------------------------------------
      1 C                    -0.070392
      2 C                    -0.256109
      3 S                    -0.134110
      4 C                    -0.045961
      5 H                     0.193954
      6 C                    -0.050791
      7 C                     0.222174
      8 C                     0.232294
      9 C                    -0.083802
     10 C                    -0.057192
     11 O                    -0.335334
     12 O                    -0.343803
     13 C                    -0.082483
     14 H                     0.119887
     15 H                     0.092064
     16 H                     0.092716
     17 C                    -0.086985
     18 H                     0.122906
     19 H                     0.094003
     20 H                     0.089722
     21 C                    -0.244208
     22 S                    -0.067148
     23 C                     0.052269
     24 H                     0.209297
     25 C                    -0.074809
     26 S                     0.099066
     27 C                    -0.241311
     28 C                    -0.090892
     29 C                    -0.005219
     30 C                     0.374750
     31 C                    -0.135671
     32 S                     0.040528
     33 C                     0.459165
     34 O                    -0.449948
     35 O                    -0.297692
     36 F                    -0.213262
     37 C                    -0.055051
     38 H                     0.116797
     39 H                     0.084686
     40 H                     0.084609
     41 H                     0.214660
     42 H                     0.117965
     43 H                     0.115423
     44 H                     0.193239
  ----------------------------------------
  Sum of atomic charges =     0.000000

                    Cartesian Multipole Moments
 -----------------------------------------------------------------
    Charge (ESU x 10^10)
                -0.0000
    Dipole Moment (Debye)
         X       0.7668      Y       3.2041      Z       2.5662
       Tot       4.1761
    Quadrupole Moments (Debye-Ang)
        XX    -193.0377     XY       6.0492     YY    -173.1028
        XZ       7.3030     YZ      -8.9046     ZZ    -195.6952

 Total job time:  829.90s(wall), 10521.70s(cpu)
        *  Thank you very much for using Q-Chem.  Have a nice day.  *
