 Q-Chem 5.4, Q-Chem, Inc., Pleasanton, CA (2021)
 Q-Chem 5.4.0 for Intel X86 EM64T Linux

User input:
--------------------------------------------------------------
$molecule
0 1
C	-0.268090	-8.519741	0.046574
C	0.733920	-7.635967	-0.326886
S	-1.722318	-7.651740	0.595708
C	0.371516	-6.261894	-0.193236
H	1.718130	-7.954738	-0.692700
C	-0.970283	-6.079985	0.294958
C	-1.498243	-4.798382	0.515487
C	1.219725	-5.153542	-0.477358
C	0.692914	-3.869626	-0.252655
C	-0.651289	-3.688927	0.233366
O	2.451623	-5.481075	-0.957369
O	-2.735264	-4.479871	0.998769
C	-3.828387	-5.356026	0.752029
H	-4.743213	-4.790496	1.012675
H	-3.788623	-6.268513	1.386303
H	-3.877260	-5.658187	-0.316492
C	3.521580	-4.546999	-0.881930
H	4.438260	-5.107564	-1.145969
H	3.631868	-4.131473	0.142712
H	3.399425	-3.712085	-1.605610
C	-1.009535	-2.314326	0.367928
S	1.450945	-2.295487	-0.542088
C	-0.000000	-1.435180	-0.000000
H	-1.993920	-1.993211	0.730999
C	0.000000	0.000000	0.000000
S	0.579852	0.687566	1.510732
C	1.591625	1.895024	0.727629
C	0.583771	0.695758	-1.064665
C	1.475308	1.760606	-0.678287
C	0.542366	0.643841	-2.486150
C	1.355286	1.612843	-3.106916
S	2.154609	2.570627	-1.965735
C	1.522440	1.804778	-4.559972
O	0.924684	1.087757	-5.350277
O	2.349739	2.785679	-5.004375
F	-0.170780	-0.212144	-3.246290
C	2.588082	3.053936	-6.334976
H	3.298799	3.899999	-6.370268
H	1.655291	3.328371	-6.875609
H	3.026021	2.177385	-6.861878
H	2.183053	2.599759	1.321510
H	0.049086	-9.146471	0.888291
H	-0.578334	-9.150570	-0.794665
H	0.377309	-1.444158	1.011908
$end

$rem
JOBTYPE		SP
EXCHANGE	HF
CORRELATION	pRIMP2
BASIS		cc-pvtz
METHOD		rimp2
AUX_BASIS	rimp2-cc-pvtz
SOLVENT_METHOD	PCM
PURECART	11111
SYMMETRY	false
MEM_TOTAL	110000
SCF_CONVERGENCE = 6
THRESH=10
GUI = 2
$end

$solvent
dielectric 4.90
$end
--------------------------------------------------------------

             Standard Nuclear Orientation (Angstroms)
    I     Atom           X                Y                Z
 ----------------------------------------------------------------
    1      C      -0.2680900000    -8.5197410000     0.0465740000
    2      C       0.7339200000    -7.6359670000    -0.3268860000
    3      S      -1.7223180000    -7.6517400000     0.5957080000
    4      C       0.3715160000    -6.2618940000    -0.1932360000
    5      H       1.7181300000    -7.9547380000    -0.6927000000
    6      C      -0.9702830000    -6.0799850000     0.2949580000
    7      C      -1.4982430000    -4.7983820000     0.5154870000
    8      C       1.2197250000    -5.1535420000    -0.4773580000
    9      C       0.6929140000    -3.8696260000    -0.2526550000
   10      C      -0.6512890000    -3.6889270000     0.2333660000
   11      O       2.4516230000    -5.4810750000    -0.9573690000
   12      O      -2.7352640000    -4.4798710000     0.9987690000
   13      C      -3.8283870000    -5.3560260000     0.7520290000
   14      H      -4.7432130000    -4.7904960000     1.0126750000
   15      H      -3.7886230000    -6.2685130000     1.3863030000
   16      H      -3.8772600000    -5.6581870000    -0.3164920000
   17      C       3.5215800000    -4.5469990000    -0.8819300000
   18      H       4.4382600000    -5.1075640000    -1.1459690000
   19      H       3.6318680000    -4.1314730000     0.1427120000
   20      H       3.3994250000    -3.7120850000    -1.6056100000
   21      C      -1.0095350000    -2.3143260000     0.3679280000
   22      S       1.4509450000    -2.2954870000    -0.5420880000
   23      C       0.0000000000    -1.4351800000     0.0000000000
   24      H      -1.9939200000    -1.9932110000     0.7309990000
   25      C       0.0000000000     0.0000000000     0.0000000000
   26      S       0.5798520000     0.6875660000     1.5107320000
   27      C       1.5916250000     1.8950240000     0.7276290000
   28      C       0.5837710000     0.6957580000    -1.0646650000
   29      C       1.4753080000     1.7606060000    -0.6782870000
   30      C       0.5423660000     0.6438410000    -2.4861500000
   31      C       1.3552860000     1.6128430000    -3.1069160000
   32      S       2.1546090000     2.5706270000    -1.9657350000
   33      C       1.5224400000     1.8047780000    -4.5599720000
   34      O       0.9246840000     1.0877570000    -5.3502770000
   35      O       2.3497390000     2.7856790000    -5.0043750000
   36      F      -0.1707800000    -0.2121440000    -3.2462900000
   37      C       2.5880820000     3.0539360000    -6.3349760000
   38      H       3.2987990000     3.8999990000    -6.3702680000
   39      H       1.6552910000     3.3283710000    -6.8756090000
   40      H       3.0260210000     2.1773850000    -6.8618780000
   41      H       2.1830530000     2.5997590000     1.3215100000
   42      H       0.0490860000    -9.1464710000     0.8882910000
   43      H      -0.5783340000    -9.1505700000    -0.7946650000
   44      H       0.3773090000    -1.4441580000     1.0119080000
 ----------------------------------------------------------------

   11   -2755.2932467394      7.91e-07  Convergence criterion met
 Total energy in the final basis set =    -2755.2932467394
        RIMP2         total energy =     -2760.3933433948 a.u.

                    Orbital Energies (a.u.)
 --------------------------------------------------------------

 Alpha MOs
 -- Occupied --
-92.0155 -92.0001 -91.9766 -91.9559 -26.3354 -20.6147 -20.5863 -20.5852
-20.5545 -11.4141 -11.3778 -11.3094 -11.3078 -11.3063 -11.3044 -11.2991
-11.2980 -11.2898 -11.2881 -11.2836 -11.2820 -11.2816 -11.2759 -11.2707
-11.2694 -11.2563 -11.2528 -11.2474 -11.2321  -9.0148  -9.0040  -8.9788
 -8.9585  -6.6954  -6.6947  -6.6943  -6.6852  -6.6845  -6.6832  -6.6599
 -6.6590  -6.6577  -6.6398  -6.6388  -6.6378  -1.6483  -1.4747  -1.4089
 -1.4077  -1.3705  -1.2436  -1.2078  -1.1741  -1.1458  -1.0972  -1.0530
 -1.0437  -1.0340  -1.0070  -0.9956  -0.9748  -0.9593  -0.9474  -0.9402
 -0.8918  -0.8743  -0.8608  -0.8099  -0.7944  -0.7839  -0.7771  -0.7741
 -0.7634  -0.7335  -0.7208  -0.7169  -0.6962  -0.6941  -0.6807  -0.6802
 -0.6751  -0.6651  -0.6551  -0.6475  -0.6339  -0.6279  -0.6179  -0.6140
 -0.6112  -0.6096  -0.5998  -0.5923  -0.5792  -0.5633  -0.5616  -0.5552
 -0.5453  -0.5345  -0.5293  -0.5213  -0.5115  -0.5063  -0.5050  -0.4998
 -0.4896  -0.4839  -0.4736  -0.4684  -0.4647  -0.4632  -0.4597  -0.4448
 -0.4220  -0.4029  -0.3836  -0.3689  -0.3502  -0.2964  -0.2876  -0.2168

          Ground-State Mulliken Net Atomic Charges

     Atom                 Charge (a.u.)
  ----------------------------------------
      1 C                    -0.069405
      2 C                    -0.273054
      3 S                    -0.140856
      4 C                    -0.042108
      5 H                     0.191623
      6 C                    -0.053812
      7 C                     0.223028
      8 C                     0.221098
      9 C                    -0.071329
     10 C                    -0.049236
     11 O                    -0.335185
     12 O                    -0.343434
     13 C                    -0.082476
     14 H                     0.119429
     15 H                     0.091837
     16 H                     0.093176
     17 C                    -0.087357
     18 H                     0.123204
     19 H                     0.091219
     20 H                     0.090112
     21 C                    -0.265379
     22 S                    -0.087441
     23 C                     0.041462
     24 H                     0.204187
     25 C                    -0.054524
     26 S                     0.102731
     27 C                    -0.193999
     28 C                    -0.133213
     29 C                    -0.003002
     30 C                     0.394942
     31 C                    -0.139319
     32 S                     0.054226
     33 C                     0.459007
     34 O                    -0.442465
     35 O                    -0.297077
     36 F                    -0.210176
     37 C                    -0.054723
     38 H                     0.117123
     39 H                     0.085372
     40 H                     0.085370
     41 H                     0.218362
     42 H                     0.115287
     43 H                     0.113284
     44 H                     0.193491
  ----------------------------------------
  Sum of atomic charges =     0.000000

                    Cartesian Multipole Moments
 -----------------------------------------------------------------
    Charge (ESU x 10^10)
                 0.0000
    Dipole Moment (Debye)
         X       3.2247      Y       4.5352      Z       3.3218
       Tot       6.4808
    Quadrupole Moments (Debye-Ang)
        XX    -175.7798     XY       5.6285     YY    -187.4112
        XZ      -8.0380     YZ      -7.6665     ZZ    -203.7844

 Total job time:  333.64s(wall), 10883.60s(cpu)
        *  Thank you very much for using Q-Chem.  Have a nice day.  *
