 Q-Chem 5.4, Q-Chem, Inc., Pleasanton, CA (2021)
 Q-Chem 5.4.0 for Intel X86 EM64T Linux

User input:
--------------------------------------------------------------
$molecule
0 1
C	-0.272104	-8.519741	-0.000687
C	0.779533	-7.635967	-0.194476
S	-1.799596	-7.651740	0.287581
C	0.399427	-6.261894	-0.125787
H	1.812314	-7.954738	-0.383826
C	-1.006762	-6.079985	0.121989
C	-1.564994	-4.798382	0.247488
C	1.284087	-5.153542	-0.258303
C	0.726260	-3.869626	-0.128493
C	-0.681918	-3.688927	0.116725
O	2.580622	-5.481075	-0.517104
O	-2.867144	-4.479871	0.508622
C	-3.900814	-5.356026	0.075811
H	-4.847002	-4.790496	0.173640
H	-3.971794	-6.268513	0.707354
H	-3.763397	-5.658187	-0.984963
C	3.621225	-4.546999	-0.257016
H	4.569828	-5.107564	-0.357864
H	3.551910	-4.131473	0.771211
H	3.626592	-3.712085	-0.990913
C	-1.058088	-2.314326	0.187034
S	1.523035	-2.295487	-0.281899
C	0.000000	-1.435180	0.000000
H	-2.090565	-1.993211	0.373653
C	0.000000	0.000000	0.000000
S	0.780044	0.447780	1.510732
C	2.143774	1.236372	0.727629
C	0.786529	0.454137	-1.064665
C	1.988499	1.149844	-0.678287
C	0.729864	0.419512	-2.486150
C	1.825177	1.052041	-3.106916
S	2.903877	1.678680	-1.965735
C	2.047896	1.175232	-4.559972
O	1.240953	0.705897	-5.350277
O	3.160791	1.814024	-5.004375
F	-0.233039	-0.140940	-3.246290
C	3.476510	1.984585	-6.334976
H	4.433735	2.536545	-6.370268
H	2.693835	2.561503	-6.875609
H	3.588239	1.011113	-6.861878
H	2.940569	1.696327	1.321510
H	-0.105910	-9.146471	0.883319
H	-0.431555	-9.150570	-0.883019
H	0.195861	-1.444158	1.062054
$end

$rem
JOBTYPE		SP
EXCHANGE	HF
CORRELATION	pRIMP2
BASIS		cc-pvtz
METHOD		rimp2
AUX_BASIS	rimp2-cc-pvtz
SOLVENT_METHOD	PCM
PURECART	11111
SYMMETRY	false
MEM_TOTAL	110000
SCF_CONVERGENCE = 6
THRESH=10
GUI = 2
$end

$solvent
dielectric 4.90
$end
--------------------------------------------------------------

             Standard Nuclear Orientation (Angstroms)
    I     Atom           X                Y                Z
 ----------------------------------------------------------------
    1      C      -0.2721040000    -8.5197410000    -0.0006870000
    2      C       0.7795330000    -7.6359670000    -0.1944760000
    3      S      -1.7995960000    -7.6517400000     0.2875810000
    4      C       0.3994270000    -6.2618940000    -0.1257870000
    5      H       1.8123140000    -7.9547380000    -0.3838260000
    6      C      -1.0067620000    -6.0799850000     0.1219890000
    7      C      -1.5649940000    -4.7983820000     0.2474880000
    8      C       1.2840870000    -5.1535420000    -0.2583030000
    9      C       0.7262600000    -3.8696260000    -0.1284930000
   10      C      -0.6819180000    -3.6889270000     0.1167250000
   11      O       2.5806220000    -5.4810750000    -0.5171040000
   12      O      -2.8671440000    -4.4798710000     0.5086220000
   13      C      -3.9008140000    -5.3560260000     0.0758110000
   14      H      -4.8470020000    -4.7904960000     0.1736400000
   15      H      -3.9717940000    -6.2685130000     0.7073540000
   16      H      -3.7633970000    -5.6581870000    -0.9849630000
   17      C       3.6212250000    -4.5469990000    -0.2570160000
   18      H       4.5698280000    -5.1075640000    -0.3578640000
   19      H       3.5519100000    -4.1314730000     0.7712110000
   20      H       3.6265920000    -3.7120850000    -0.9909130000
   21      C      -1.0580880000    -2.3143260000     0.1870340000
   22      S       1.5230350000    -2.2954870000    -0.2818990000
   23      C       0.0000000000    -1.4351800000     0.0000000000
   24      H      -2.0905650000    -1.9932110000     0.3736530000
   25      C       0.0000000000     0.0000000000     0.0000000000
   26      S       0.7800440000     0.4477800000     1.5107320000
   27      C       2.1437740000     1.2363720000     0.7276290000
   28      C       0.7865290000     0.4541370000    -1.0646650000
   29      C       1.9884990000     1.1498440000    -0.6782870000
   30      C       0.7298640000     0.4195120000    -2.4861500000
   31      C       1.8251770000     1.0520410000    -3.1069160000
   32      S       2.9038770000     1.6786800000    -1.9657350000
   33      C       2.0478960000     1.1752320000    -4.5599720000
   34      O       1.2409530000     0.7058970000    -5.3502770000
   35      O       3.1607910000     1.8140240000    -5.0043750000
   36      F      -0.2330390000    -0.1409400000    -3.2462900000
   37      C       3.4765100000     1.9845850000    -6.3349760000
   38      H       4.4337350000     2.5365450000    -6.3702680000
   39      H       2.6938350000     2.5615030000    -6.8756090000
   40      H       3.5882390000     1.0111130000    -6.8618780000
   41      H       2.9405690000     1.6963270000     1.3215100000
   42      H      -0.1059100000    -9.1464710000     0.8833190000
   43      H      -0.4315550000    -9.1505700000    -0.8830190000
   44      H       0.1958610000    -1.4441580000     1.0620540000
 ----------------------------------------------------------------

   11   -2755.2487245250      8.32e-07  Convergence criterion met
 Total energy in the final basis set =    -2755.2487245250
        RIMP2         total energy =     -2760.3602438116 a.u.

                    Orbital Energies (a.u.)
 --------------------------------------------------------------

 Alpha MOs
 -- Occupied --
-92.0152 -92.0080 -91.9716 -91.9534 -26.3356 -20.6172 -20.5851 -20.5835
-20.5593 -11.4182 -11.3768 -11.3300 -11.3163 -11.3065 -11.3014 -11.3012
-11.2968 -11.2911 -11.2829 -11.2809 -11.2797 -11.2730 -11.2702 -11.2686
-11.2655 -11.2543 -11.2470 -11.2451 -11.2274  -9.0152  -9.0114  -8.9744
 -8.9561  -6.6958  -6.6947  -6.6946  -6.6926  -6.6920  -6.6907  -6.6555
 -6.6546  -6.6533  -6.6374  -6.6364  -6.6354  -1.6486  -1.4776  -1.4074
 -1.4062  -1.3740  -1.2517  -1.2072  -1.1735  -1.1472  -1.0956  -1.0563
 -1.0414  -1.0377  -1.0057  -0.9931  -0.9781  -0.9593  -0.9461  -0.9395
 -0.8900  -0.8793  -0.8560  -0.8112  -0.7970  -0.7836  -0.7807  -0.7715
 -0.7608  -0.7351  -0.7197  -0.7177  -0.6982  -0.6936  -0.6828  -0.6791
 -0.6778  -0.6663  -0.6536  -0.6463  -0.6324  -0.6290  -0.6157  -0.6136
 -0.6130  -0.6103  -0.6054  -0.5902  -0.5746  -0.5642  -0.5596  -0.5528
 -0.5411  -0.5342  -0.5306  -0.5217  -0.5105  -0.5071  -0.5049  -0.4977
 -0.4927  -0.4825  -0.4717  -0.4691  -0.4654  -0.4609  -0.4580  -0.4427
 -0.4187  -0.4017  -0.3811  -0.3669  -0.3457  -0.3049  -0.2857  -0.2135

          Ground-State Mulliken Net Atomic Charges

     Atom                 Charge (a.u.)
  ----------------------------------------
      1 C                    -0.068803
      2 C                    -0.285884
      3 S                    -0.146294
      4 C                    -0.040998
      5 H                     0.189699
      6 C                    -0.059212
      7 C                     0.229008
      8 C                     0.219954
      9 C                    -0.071580
     10 C                    -0.057298
     11 O                    -0.335686
     12 O                    -0.343103
     13 C                    -0.082403
     14 H                     0.119125
     15 H                     0.091660
     16 H                     0.092919
     17 C                    -0.086710
     18 H                     0.122712
     19 H                     0.090241
     20 H                     0.088928
     21 C                    -0.273240
     22 S                    -0.111706
     23 C                     0.053997
     24 H                     0.204048
     25 C                    -0.173548
     26 S                     0.115388
     27 C                    -0.129226
     28 C                    -0.056025
     29 C                    -0.034180
     30 C                     0.388561
     31 C                    -0.119802
     32 S                     0.078605
     33 C                     0.458206
     34 O                    -0.434656
     35 O                    -0.295986
     36 F                    -0.209650
     37 C                    -0.054755
     38 H                     0.117733
     39 H                     0.086125
     40 H                     0.086339
     41 H                     0.222381
     42 H                     0.113339
     43 H                     0.111327
     44 H                     0.190449
  ----------------------------------------
  Sum of atomic charges =     0.000000

                    Cartesian Multipole Moments
 -----------------------------------------------------------------
    Charge (ESU x 10^10)
                -0.0000
    Dipole Moment (Debye)
         X       5.3447      Y       5.1854      Z       2.9270
       Tot       8.0014
    Quadrupole Moments (Debye-Ang)
        XX    -168.1306     XY       6.4041     YY    -201.0593
        XZ      -8.5011     YZ      -5.8349     ZZ    -200.2465

 Total job time:  338.71s(wall), 11004.80s(cpu)
        *  Thank you very much for using Q-Chem.  Have a nice day.  *
