 Q-Chem 5.4, Q-Chem, Inc., Pleasanton, CA (2021)
 Q-Chem 5.4.0 for Intel X86 EM64T Linux

User input:
--------------------------------------------------------------
$molecule
0 1
C	0.235993	-8.519741	-0.135457
C	-0.577858	-7.635967	0.558188
S	1.414705	-7.651740	-1.148850
C	-0.283020	-6.261894	0.308648
H	-1.377597	-7.954738	1.238560
C	0.810887	-6.079985	-0.609026
C	1.231581	-4.798382	-0.996828
C	-0.982901	-5.153542	0.865740
C	-0.564713	-3.869626	0.474408
C	0.532196	-3.688927	-0.442046
O	-1.976332	-5.481075	1.738137
O	2.228709	-4.479871	-1.874052
C	3.340298	-5.356026	-2.016062
H	4.110807	-4.790496	-2.573877
H	3.085998	-6.268513	-2.598484
H	3.751679	-5.658187	-1.028695
C	-3.007565	-4.546999	2.033195
H	-3.778655	-5.107564	2.594833
H	-3.461650	-4.131473	1.108067
H	-2.645264	-3.712085	2.671451
C	0.822814	-2.314326	-0.691020
S	-1.178037	-2.295487	1.005649
C	0.000000	-1.435180	0.000000
H	1.623656	-1.993211	-1.368875
C	0.000000	0.000000	0.000000
S	0.002233	0.899428	1.510732
C	0.001157	2.474749	0.727629
C	-0.000030	0.908223	-1.064665
C	-0.001545	2.297013	-0.678287
C	0.001624	0.841837	-2.486150
C	0.001494	2.106670	-3.106916
S	-0.001841	3.354171	-1.965735
C	0.006168	2.361146	-4.559972
O	0.009152	1.427646	-5.350277
O	0.009405	3.644337	-5.004375
F	0.005539	-0.272288	-3.246290
C	0.019554	4.003038	-6.334976
H	0.020155	5.108000	-6.370268
H	-0.871409	3.613681	-6.875609
H	0.918470	3.613062	-6.861878
H	0.001222	3.394771	1.321510
H	-0.349939	-9.146471	-0.817932
H	0.815247	-9.150570	0.548939
H	-0.700647	-1.444158	-0.821835
$end

$rem
JOBTYPE		SP
EXCHANGE	HF
CORRELATION	pRIMP2
BASIS		cc-pvtz
METHOD		rimp2
AUX_BASIS	rimp2-cc-pvtz
SOLVENT_METHOD	PCM
PURECART	11111
SYMMETRY	false
MEM_TOTAL	110000
SCF_CONVERGENCE = 6
THRESH=10
GUI = 2
$end

$solvent
dielectric 4.90
$end
--------------------------------------------------------------

             Standard Nuclear Orientation (Angstroms)
    I     Atom           X                Y                Z
 ----------------------------------------------------------------
    1      C       0.2359930000    -8.5197410000    -0.1354570000
    2      C      -0.5778580000    -7.6359670000     0.5581880000
    3      S       1.4147050000    -7.6517400000    -1.1488500000
    4      C      -0.2830200000    -6.2618940000     0.3086480000
    5      H      -1.3775970000    -7.9547380000     1.2385600000
    6      C       0.8108870000    -6.0799850000    -0.6090260000
    7      C       1.2315810000    -4.7983820000    -0.9968280000
    8      C      -0.9829010000    -5.1535420000     0.8657400000
    9      C      -0.5647130000    -3.8696260000     0.4744080000
   10      C       0.5321960000    -3.6889270000    -0.4420460000
   11      O      -1.9763320000    -5.4810750000     1.7381370000
   12      O       2.2287090000    -4.4798710000    -1.8740520000
   13      C       3.3402980000    -5.3560260000    -2.0160620000
   14      H       4.1108070000    -4.7904960000    -2.5738770000
   15      H       3.0859980000    -6.2685130000    -2.5984840000
   16      H       3.7516790000    -5.6581870000    -1.0286950000
   17      C      -3.0075650000    -4.5469990000     2.0331950000
   18      H      -3.7786550000    -5.1075640000     2.5948330000
   19      H      -3.4616500000    -4.1314730000     1.1080670000
   20      H      -2.6452640000    -3.7120850000     2.6714510000
   21      C       0.8228140000    -2.3143260000    -0.6910200000
   22      S      -1.1780370000    -2.2954870000     1.0056490000
   23      C       0.0000000000    -1.4351800000     0.0000000000
   24      H       1.6236560000    -1.9932110000    -1.3688750000
   25      C       0.0000000000     0.0000000000     0.0000000000
   26      S       0.0022330000     0.8994280000     1.5107320000
   27      C       0.0011570000     2.4747490000     0.7276290000
   28      C      -0.0000300000     0.9082230000    -1.0646650000
   29      C      -0.0015450000     2.2970130000    -0.6782870000
   30      C       0.0016240000     0.8418370000    -2.4861500000
   31      C       0.0014940000     2.1066700000    -3.1069160000
   32      S      -0.0018410000     3.3541710000    -1.9657350000
   33      C       0.0061680000     2.3611460000    -4.5599720000
   34      O       0.0091520000     1.4276460000    -5.3502770000
   35      O       0.0094050000     3.6443370000    -5.0043750000
   36      F       0.0055390000    -0.2722880000    -3.2462900000
   37      C       0.0195540000     4.0030380000    -6.3349760000
   38      H       0.0201550000     5.1080000000    -6.3702680000
   39      H      -0.8714090000     3.6136810000    -6.8756090000
   40      H       0.9184700000     3.6130620000    -6.8618780000
   41      H       0.0012220000     3.3947710000     1.3215100000
   42      H      -0.3499390000    -9.1464710000    -0.8179320000
   43      H       0.8152470000    -9.1505700000     0.5489390000
   44      H      -0.7006470000    -1.4441580000    -0.8218350000
 ----------------------------------------------------------------

   11   -2755.3287209708      7.28e-07  Convergence criterion met
 Total energy in the final basis set =    -2755.3287209708
        RIMP2         total energy =     -2760.4195143862 a.u.

                    Orbital Energies (a.u.)
 --------------------------------------------------------------

 Alpha MOs
 -- Occupied --
-92.0148 -91.9950 -91.9812 -91.9587 -26.3385 -20.6124 -20.5882 -20.5871
-20.5500 -11.4105 -11.3795 -11.3201 -11.3094 -11.3093 -11.2976 -11.2968
-11.2894 -11.2887 -11.2854 -11.2843 -11.2843 -11.2826 -11.2817 -11.2737
-11.2732 -11.2595 -11.2590 -11.2502 -11.2386  -9.0132  -8.9990  -8.9833
 -8.9613  -6.6940  -6.6934  -6.6930  -6.6803  -6.6796  -6.6783  -6.6644
 -6.6635  -6.6622  -6.6425  -6.6416  -6.6406  -1.6515  -1.4720  -1.4115
 -1.4090  -1.3673  -1.2387  -1.2100  -1.1761  -1.1435  -1.1007  -1.0513
 -1.0471  -1.0289  -1.0098  -0.9991  -0.9721  -0.9602  -0.9494  -0.9409
 -0.8948  -0.8741  -0.8627  -0.8085  -0.7945  -0.7864  -0.7779  -0.7723
 -0.7624  -0.7342  -0.7199  -0.7191  -0.6985  -0.6938  -0.6867  -0.6789
 -0.6761  -0.6725  -0.6564  -0.6489  -0.6360  -0.6282  -0.6206  -0.6152
 -0.6112  -0.6065  -0.5950  -0.5931  -0.5816  -0.5681  -0.5591  -0.5522
 -0.5478  -0.5367  -0.5300  -0.5230  -0.5133  -0.5081  -0.5048  -0.5024
 -0.4862  -0.4848  -0.4773  -0.4709  -0.4626  -0.4616  -0.4610  -0.4472
 -0.4278  -0.4011  -0.3866  -0.3709  -0.3507  -0.2934  -0.2871  -0.2199

          Ground-State Mulliken Net Atomic Charges

     Atom                 Charge (a.u.)
  ----------------------------------------
      1 C                    -0.070485
      2 C                    -0.254801
      3 S                    -0.133448
      4 C                    -0.046070
      5 H                     0.193975
      6 C                    -0.051670
      7 C                     0.224427
      8 C                     0.229881
      9 C                    -0.078333
     10 C                    -0.043884
     11 O                    -0.334438
     12 O                    -0.342653
     13 C                    -0.082827
     14 H                     0.120485
     15 H                     0.092284
     16 H                     0.092425
     17 C                    -0.087161
     18 H                     0.123884
     19 H                     0.093232
     20 H                     0.090198
     21 C                    -0.275422
     22 S                    -0.077620
     23 C                     0.086884
     24 H                     0.205932
     25 C                    -0.088663
     26 S                     0.098783
     27 C                    -0.251371
     28 C                    -0.080573
     29 C                    -0.005937
     30 C                     0.392765
     31 C                    -0.145693
     32 S                     0.036047
     33 C                     0.460838
     34 O                    -0.451878
     35 O                    -0.297975
     36 F                    -0.215447
     37 C                    -0.055117
     38 H                     0.116689
     39 H                     0.084591
     40 H                     0.084442
     41 H                     0.214319
     42 H                     0.118142
     43 H                     0.115575
     44 H                     0.195670
  ----------------------------------------
  Sum of atomic charges =     0.000000

                    Cartesian Multipole Moments
 -----------------------------------------------------------------
    Charge (ESU x 10^10)
                 0.0000
    Dipole Moment (Debye)
         X      -0.5321      Y       2.7817      Z       2.9304
       Tot       4.0753
    Quadrupole Moments (Debye-Ang)
        XX    -185.2127     XY       3.2311     YY    -171.9071
        XZ      -6.4494     YZ     -13.3497     ZZ    -204.3838

 Total job time:  329.28s(wall), 10619.65s(cpu)
        *  Thank you very much for using Q-Chem.  Have a nice day.  *
