 Q-Chem 5.4, Q-Chem, Inc., Pleasanton, CA (2021)
 Q-Chem 5.4.0 for Intel X86 EM64T Linux

User input:
--------------------------------------------------------------
$molecule
0 1
C	-0.000687	-8.519741	0.272104
C	-0.194476	-7.635967	-0.779533
S	0.287581	-7.651740	1.799596
C	-0.125787	-6.261894	-0.399427
H	-0.383826	-7.954738	-1.812314
C	0.121989	-6.079985	1.006762
C	0.247488	-4.798382	1.564994
C	-0.258303	-5.153542	-1.284087
C	-0.128493	-3.869626	-0.726260
C	0.116725	-3.688927	0.681918
O	-0.517104	-5.481075	-2.580622
O	0.508622	-4.479871	2.867144
C	0.075811	-5.356026	3.900814
H	0.173640	-4.790496	4.847002
H	0.707354	-6.268513	3.971794
H	-0.984963	-5.658187	3.763397
C	-0.257016	-4.546999	-3.621225
H	-0.357864	-5.107564	-4.569828
H	0.771211	-4.131473	-3.551910
H	-0.990913	-3.712085	-3.626592
C	0.187034	-2.314326	1.058088
S	-0.281899	-2.295487	-1.523035
C	-0.000000	-1.435180	-0.000000
H	0.373653	-1.993211	2.090565
C	0.000000	0.000000	0.000000
S	0.382139	0.814215	1.510732
C	1.046923	2.242395	0.727629
C	0.383804	0.823142	-1.064665
C	0.969360	2.082453	-0.678287
C	0.357247	0.762277	-2.486150
C	0.891671	1.908660	-3.106916
S	1.415865	3.040689	-1.965735
C	1.003453	2.137318	-4.559972
O	0.611644	1.290019	-5.350277
O	1.548687	3.298916	-5.004375
F	-0.110054	-0.249117	-3.246290
C	1.709479	3.619721	-6.334976
H	2.177001	4.620902	-6.370268
H	0.737443	3.643380	-6.875609
H	2.359363	2.886384	-6.861878
H	1.435800	3.076190	1.321510
H	0.883319	-9.146471	0.105910
H	-0.883019	-9.150570	0.431555
H	1.062054	-1.444158	-0.195861
$end

$rem
JOBTYPE		SP
EXCHANGE	HF
CORRELATION	pRIMP2
BASIS		cc-pvtz
METHOD		rimp2
AUX_BASIS	rimp2-cc-pvtz
SOLVENT_METHOD	PCM
PURECART	11111
SYMMETRY	false
MEM_TOTAL	110000
SCF_CONVERGENCE = 6
THRESH=10
GUI = 2
$end

$solvent
dielectric 4.90
$end
--------------------------------------------------------------

             Standard Nuclear Orientation (Angstroms)
    I     Atom           X                Y                Z
 ----------------------------------------------------------------
    1      C      -0.0006870000    -8.5197410000     0.2721040000
    2      C      -0.1944760000    -7.6359670000    -0.7795330000
    3      S       0.2875810000    -7.6517400000     1.7995960000
    4      C      -0.1257870000    -6.2618940000    -0.3994270000
    5      H      -0.3838260000    -7.9547380000    -1.8123140000
    6      C       0.1219890000    -6.0799850000     1.0067620000
    7      C       0.2474880000    -4.7983820000     1.5649940000
    8      C      -0.2583030000    -5.1535420000    -1.2840870000
    9      C      -0.1284930000    -3.8696260000    -0.7262600000
   10      C       0.1167250000    -3.6889270000     0.6819180000
   11      O      -0.5171040000    -5.4810750000    -2.5806220000
   12      O       0.5086220000    -4.4798710000     2.8671440000
   13      C       0.0758110000    -5.3560260000     3.9008140000
   14      H       0.1736400000    -4.7904960000     4.8470020000
   15      H       0.7073540000    -6.2685130000     3.9717940000
   16      H      -0.9849630000    -5.6581870000     3.7633970000
   17      C      -0.2570160000    -4.5469990000    -3.6212250000
   18      H      -0.3578640000    -5.1075640000    -4.5698280000
   19      H       0.7712110000    -4.1314730000    -3.5519100000
   20      H      -0.9909130000    -3.7120850000    -3.6265920000
   21      C       0.1870340000    -2.3143260000     1.0580880000
   22      S      -0.2818990000    -2.2954870000    -1.5230350000
   23      C       0.0000000000    -1.4351800000     0.0000000000
   24      H       0.3736530000    -1.9932110000     2.0905650000
   25      C       0.0000000000     0.0000000000     0.0000000000
   26      S       0.3821390000     0.8142150000     1.5107320000
   27      C       1.0469230000     2.2423950000     0.7276290000
   28      C       0.3838040000     0.8231420000    -1.0646650000
   29      C       0.9693600000     2.0824530000    -0.6782870000
   30      C       0.3572470000     0.7622770000    -2.4861500000
   31      C       0.8916710000     1.9086600000    -3.1069160000
   32      S       1.4158650000     3.0406890000    -1.9657350000
   33      C       1.0034530000     2.1373180000    -4.5599720000
   34      O       0.6116440000     1.2900190000    -5.3502770000
   35      O       1.5486870000     3.2989160000    -5.0043750000
   36      F      -0.1100540000    -0.2491170000    -3.2462900000
   37      C       1.7094790000     3.6197210000    -6.3349760000
   38      H       2.1770010000     4.6209020000    -6.3702680000
   39      H       0.7374430000     3.6433800000    -6.8756090000
   40      H       2.3593630000     2.8863840000    -6.8618780000
   41      H       1.4358000000     3.0761900000     1.3215100000
   42      H       0.8833190000    -9.1464710000     0.1059100000
   43      H      -0.8830190000    -9.1505700000     0.4315550000
   44      H       1.0620540000    -1.4441580000    -0.1958610000
 ----------------------------------------------------------------

   11   -2755.3121952891      6.32e-07  Convergence criterion met
 Total energy in the final basis set =    -2755.3121952891
        RIMP2         total energy =     -2760.4079659475 a.u.

                    Orbital Energies (a.u.)
 --------------------------------------------------------------

 Alpha MOs
 -- Occupied --
-92.0137 -91.9926 -91.9752 -91.9608 -26.3352 -20.6108 -20.5882 -20.5881
-20.5473 -11.4081 -11.3789 -11.3237 -11.3107 -11.3097 -11.2971 -11.2921
-11.2879 -11.2867 -11.2844 -11.2839 -11.2837 -11.2817 -11.2766 -11.2757
-11.2704 -11.2625 -11.2601 -11.2523 -11.2432  -9.0124  -8.9967  -8.9780
 -8.9634  -6.6932  -6.6926  -6.6921  -6.6780  -6.6773  -6.6760  -6.6588
 -6.6581  -6.6566  -6.6446  -6.6437  -6.6426  -1.6509  -1.4703  -1.4116
 -1.4099  -1.3653  -1.2396  -1.2094  -1.1783  -1.1437  -1.1002  -1.0511
 -1.0470  -1.0294  -1.0079  -1.0001  -0.9716  -0.9599  -0.9496  -0.9404
 -0.8949  -0.8723  -0.8624  -0.8132  -0.7955  -0.7862  -0.7764  -0.7658
 -0.7616  -0.7338  -0.7208  -0.7178  -0.6986  -0.6954  -0.6849  -0.6776
 -0.6745  -0.6722  -0.6564  -0.6493  -0.6366  -0.6298  -0.6225  -0.6157
 -0.6109  -0.6047  -0.5975  -0.5920  -0.5763  -0.5678  -0.5635  -0.5592
 -0.5494  -0.5326  -0.5292  -0.5208  -0.5136  -0.5088  -0.5046  -0.4997
 -0.4844  -0.4830  -0.4794  -0.4656  -0.4604  -0.4595  -0.4587  -0.4481
 -0.4320  -0.3994  -0.3847  -0.3724  -0.3511  -0.2934  -0.2838  -0.2185

          Ground-State Mulliken Net Atomic Charges

     Atom                 Charge (a.u.)
  ----------------------------------------
      1 C                    -0.071272
      2 C                    -0.240942
      3 S                    -0.129985
      4 C                    -0.050217
      5 H                     0.196147
      6 C                    -0.046104
      7 C                     0.216624
      8 C                     0.234454
      9 C                    -0.079023
     10 C                    -0.027154
     11 O                    -0.334503
     12 O                    -0.344033
     13 C                    -0.082723
     14 H                     0.120136
     15 H                     0.092007
     16 H                     0.093034
     17 C                    -0.087937
     18 H                     0.124217
     19 H                     0.093314
     20 H                     0.091989
     21 C                    -0.321969
     22 S                    -0.085497
     23 C                     0.087836
     24 H                     0.198670
     25 C                     0.029742
     26 S                     0.081888
     27 C                    -0.262874
     28 C                    -0.139029
     29 C                    -0.015661
     30 C                     0.375328
     31 C                    -0.144967
     32 S                     0.036342
     33 C                     0.457943
     34 O                    -0.455627
     35 O                    -0.298847
     36 F                    -0.208590
     37 C                    -0.054961
     38 H                     0.116346
     39 H                     0.084085
     40 H                     0.083830
     41 H                     0.214476
     42 H                     0.120040
     43 H                     0.117733
     44 H                     0.215737
  ----------------------------------------
  Sum of atomic charges =     0.000000

                    Cartesian Multipole Moments
 -----------------------------------------------------------------
    Charge (ESU x 10^10)
                -0.0000
    Dipole Moment (Debye)
         X       1.7597      Y       1.1223      Z       2.8631
       Tot       3.5431
    Quadrupole Moments (Debye-Ang)
        XX    -198.6012     XY       6.2652     YY    -168.7786
        XZ      -7.0896     YZ      -4.3798     ZZ    -189.1908

 Total job time:  341.22s(wall), 10472.46s(cpu)
        *  Thank you very much for using Q-Chem.  Have a nice day.  *
