 Q-Chem 5.4, Q-Chem, Inc., Pleasanton, CA (2021)
 Q-Chem 5.4.0 for Intel X86 EM64T Linux

User input:
--------------------------------------------------------------
$molecule
0 1
C	-0.175432	-8.519741	0.208002
C	0.352097	-7.635967	-0.722164
S	-0.936458	-7.651740	1.563424
C	0.160388	-6.261894	-0.386833
H	0.870905	-7.954738	-1.635031
C	-0.553685	-6.079985	0.849637
C	-0.816372	-4.798382	1.357938
C	0.627524	-5.153542	-1.149702
C	0.368399	-3.869626	-0.638941
C	-0.348912	-3.688927	0.597409
O	1.262667	-5.481075	-2.309260
O	-1.453338	-4.479871	2.523296
C	-2.449320	-5.356026	3.036927
H	-2.982577	-4.790496	3.824632
H	-2.011155	-6.268513	3.497250
H	-3.173591	-5.658187	2.249807
C	2.130793	-4.546999	-2.939226
H	2.663289	-5.107564	-3.730721
H	2.873906	-4.131473	-2.225196
H	1.572045	-3.712085	-3.415077
C	-0.536849	-2.314326	0.930765
S	0.763041	-2.295487	-1.347913
C	0.000000	-1.435180	0.000000
H	-1.057554	-1.993211	1.841645
C	0.000000	0.000000	0.000000
S	0.780044	0.447780	1.510732
C	2.143774	1.236372	0.727629
C	0.786529	0.454137	-1.064665
C	1.988499	1.149844	-0.678287
C	0.729864	0.419512	-2.486150
C	1.825177	1.052041	-3.106916
S	2.903877	1.678680	-1.965735
C	2.047896	1.175232	-4.559972
O	1.240953	0.705897	-5.350277
O	3.160791	1.814024	-5.004375
F	-0.233039	-0.140940	-3.246290
C	3.476510	1.984585	-6.334976
H	4.433735	2.536545	-6.370268
H	2.693835	2.561503	-6.875609
H	3.588239	1.011113	-6.861878
H	2.940569	1.696327	1.321510
H	0.608584	-9.146471	0.648918
H	-0.953830	-9.150570	-0.237003
H	0.939477	-1.444158	0.532637
$end

$rem
JOBTYPE		SP
EXCHANGE	HF
CORRELATION	pRIMP2
BASIS		cc-pvtz
METHOD		rimp2
AUX_BASIS	rimp2-cc-pvtz
SOLVENT_METHOD	PCM
PURECART	11111
SYMMETRY	false
MEM_TOTAL	110000
SCF_CONVERGENCE = 6
THRESH=10
GUI = 2
$end

$solvent
dielectric 4.90
$end
--------------------------------------------------------------

             Standard Nuclear Orientation (Angstroms)
    I     Atom           X                Y                Z
 ----------------------------------------------------------------
    1      C      -0.1754320000    -8.5197410000     0.2080020000
    2      C       0.3520970000    -7.6359670000    -0.7221640000
    3      S      -0.9364580000    -7.6517400000     1.5634240000
    4      C       0.1603880000    -6.2618940000    -0.3868330000
    5      H       0.8709050000    -7.9547380000    -1.6350310000
    6      C      -0.5536850000    -6.0799850000     0.8496370000
    7      C      -0.8163720000    -4.7983820000     1.3579380000
    8      C       0.6275240000    -5.1535420000    -1.1497020000
    9      C       0.3683990000    -3.8696260000    -0.6389410000
   10      C      -0.3489120000    -3.6889270000     0.5974090000
   11      O       1.2626670000    -5.4810750000    -2.3092600000
   12      O      -1.4533380000    -4.4798710000     2.5232960000
   13      C      -2.4493200000    -5.3560260000     3.0369270000
   14      H      -2.9825770000    -4.7904960000     3.8246320000
   15      H      -2.0111550000    -6.2685130000     3.4972500000
   16      H      -3.1735910000    -5.6581870000     2.2498070000
   17      C       2.1307930000    -4.5469990000    -2.9392260000
   18      H       2.6632890000    -5.1075640000    -3.7307210000
   19      H       2.8739060000    -4.1314730000    -2.2251960000
   20      H       1.5720450000    -3.7120850000    -3.4150770000
   21      C      -0.5368490000    -2.3143260000     0.9307650000
   22      S       0.7630410000    -2.2954870000    -1.3479130000
   23      C       0.0000000000    -1.4351800000     0.0000000000
   24      H      -1.0575540000    -1.9932110000     1.8416450000
   25      C       0.0000000000     0.0000000000     0.0000000000
   26      S       0.7800440000     0.4477800000     1.5107320000
   27      C       2.1437740000     1.2363720000     0.7276290000
   28      C       0.7865290000     0.4541370000    -1.0646650000
   29      C       1.9884990000     1.1498440000    -0.6782870000
   30      C       0.7298640000     0.4195120000    -2.4861500000
   31      C       1.8251770000     1.0520410000    -3.1069160000
   32      S       2.9038770000     1.6786800000    -1.9657350000
   33      C       2.0478960000     1.1752320000    -4.5599720000
   34      O       1.2409530000     0.7058970000    -5.3502770000
   35      O       3.1607910000     1.8140240000    -5.0043750000
   36      F      -0.2330390000    -0.1409400000    -3.2462900000
   37      C       3.4765100000     1.9845850000    -6.3349760000
   38      H       4.4337350000     2.5365450000    -6.3702680000
   39      H       2.6938350000     2.5615030000    -6.8756090000
   40      H       3.5882390000     1.0111130000    -6.8618780000
   41      H       2.9405690000     1.6963270000     1.3215100000
   42      H       0.6085840000    -9.1464710000     0.6489180000
   43      H      -0.9538300000    -9.1505700000    -0.2370030000
   44      H       0.9394770000    -1.4441580000     0.5326370000
 ----------------------------------------------------------------

   11   -2755.2456063319      7.01e-07  Convergence criterion met
 Total energy in the final basis set =    -2755.2456063319
        RIMP2         total energy =     -2760.3628940025 a.u.

                    Orbital Energies (a.u.)
 --------------------------------------------------------------

 Alpha MOs
 -- Occupied --
-92.0055 -92.0023 -91.9731 -91.9582 -26.3346 -20.6155 -20.5866 -20.5862
-20.5557 -11.4153 -11.3791 -11.3185 -11.3088 -11.3079 -11.3066 -11.3009
-11.2923 -11.2903 -11.2897 -11.2834 -11.2825 -11.2802 -11.2745 -11.2727
-11.2650 -11.2577 -11.2570 -11.2497 -11.2375  -9.0063  -9.0061  -8.9758
 -8.9608  -6.6873  -6.6869  -6.6866  -6.6861  -6.6858  -6.6853  -6.6568
 -6.6559  -6.6546  -6.6420  -6.6411  -6.6400  -1.6484  -1.4755  -1.4096
 -1.4083  -1.3714  -1.2529  -1.2077  -1.1775  -1.1476  -1.0975  -1.0568
 -1.0446  -1.0363  -1.0063  -0.9963  -0.9759  -0.9590  -0.9492  -0.9413
 -0.8927  -0.8762  -0.8566  -0.8133  -0.7968  -0.7860  -0.7771  -0.7685
 -0.7626  -0.7338  -0.7220  -0.7160  -0.6983  -0.6953  -0.6830  -0.6813
 -0.6767  -0.6721  -0.6551  -0.6479  -0.6369  -0.6273  -0.6200  -0.6148
 -0.6109  -0.6107  -0.6035  -0.5928  -0.5776  -0.5684  -0.5610  -0.5573
 -0.5439  -0.5329  -0.5319  -0.5221  -0.5127  -0.5072  -0.5052  -0.5009
 -0.4889  -0.4823  -0.4754  -0.4666  -0.4641  -0.4612  -0.4570  -0.4458
 -0.4238  -0.3967  -0.3820  -0.3717  -0.3506  -0.2997  -0.2840  -0.2135

          Ground-State Mulliken Net Atomic Charges

     Atom                 Charge (a.u.)
  ----------------------------------------
      1 C                    -0.070531
      2 C                    -0.257069
      3 S                    -0.135307
      4 C                    -0.050110
      5 H                     0.193887
      6 C                    -0.048602
      7 C                     0.215935
      8 C                     0.226875
      9 C                    -0.068893
     10 C                    -0.015737
     11 O                    -0.334789
     12 O                    -0.343248
     13 C                    -0.082676
     14 H                     0.119637
     15 H                     0.091626
     16 H                     0.093041
     17 C                    -0.089246
     18 H                     0.123857
     19 H                     0.090969
     20 H                     0.092914
     21 C                    -0.349326
     22 S                    -0.115310
     23 C                     0.140625
     24 H                     0.200066
     25 C                    -0.117771
     26 S                     0.073347
     27 C                    -0.165170
     28 C                    -0.058085
     29 C                    -0.028128
     30 C                     0.351083
     31 C                    -0.123750
     32 S                     0.062143
     33 C                     0.459092
     34 O                    -0.440922
     35 O                    -0.296987
     36 F                    -0.211085
     37 C                    -0.054771
     38 H                     0.117406
     39 H                     0.085736
     40 H                     0.085318
     41 H                     0.219728
     42 H                     0.117665
     43 H                     0.115583
     44 H                     0.180978
  ----------------------------------------
  Sum of atomic charges =     0.000000

                    Cartesian Multipole Moments
 -----------------------------------------------------------------
    Charge (ESU x 10^10)
                -0.0000
    Dipole Moment (Debye)
         X       4.9180      Y       2.3432      Z       2.5683
       Tot       6.0228
    Quadrupole Moments (Debye-Ang)
        XX    -176.5958     XY       6.8077     YY    -184.6824
        XZ     -19.7881     YZ      -2.5771     ZZ    -195.3257

 Total job time:  333.83s(wall), 10889.45s(cpu)
        *  Thank you very much for using Q-Chem.  Have a nice day.  *
