 Q-Chem 5.4, Q-Chem, Inc., Pleasanton, CA (2021)
 Q-Chem 5.4.0 for Intel X86 EM64T Linux

User input:
--------------------------------------------------------------
$molecule
0 1
C	0.267851	-8.519741	0.047927
C	-0.801461	-7.635967	0.056157
S	1.822194	-7.651740	0.029285
C	-0.415201	-6.261894	0.054516
H	-1.851431	-7.954738	0.063290
C	1.012650	-6.079985	0.054687
C	1.584194	-4.798382	0.028030
C	-1.309433	-5.153542	0.031399
C	-0.737539	-3.869626	0.000427
C	0.691828	-3.688927	0.003462
O	-2.631211	-5.481075	0.061128
O	2.911907	-4.479871	-0.003021
C	3.854716	-5.356026	0.602710
H	4.803517	-4.790496	0.670671
H	4.034285	-6.268513	-0.006913
H	3.535185	-5.658187	1.623507
C	-3.610841	-4.546999	-0.375708
H	-4.562544	-5.107564	-0.441115
H	-3.364029	-4.131473	-1.376277
H	-3.743566	-3.712085	0.346107
C	1.074491	-2.314326	-0.000458
S	-1.548848	-2.295487	0.013144
C	0.000000	-1.435180	0.000000
H	2.123688	-1.993211	-0.004953
C	0.000000	0.000000	0.000000
S	0.780044	0.447780	1.510732
C	2.143774	1.236372	0.727629
C	0.786529	0.454137	-1.064665
C	1.988499	1.149844	-0.678287
C	0.729864	0.419512	-2.486150
C	1.825177	1.052041	-3.106916
S	2.903877	1.678680	-1.965735
C	2.047896	1.175232	-4.559972
O	1.240953	0.705897	-5.350277
O	3.160791	1.814024	-5.004375
F	-0.233039	-0.140940	-3.246290
C	3.476510	1.984585	-6.334976
H	4.433735	2.536545	-6.370268
H	2.693835	2.561503	-6.875609
H	3.588239	1.011113	-6.861878
H	2.940569	1.696327	1.321510
H	0.257688	-9.146471	-0.851509
H	0.271664	-9.150570	0.944542
H	-0.008462	-1.444158	-1.079930
$end

$rem
JOBTYPE		SP
EXCHANGE	HF
CORRELATION	pRIMP2
BASIS		cc-pvtz
METHOD		rimp2
AUX_BASIS	rimp2-cc-pvtz
SOLVENT_METHOD	PCM
PURECART	11111
SYMMETRY	false
MEM_TOTAL	110000
SCF_CONVERGENCE = 6
THRESH=10
GUI = 2
$end

$solvent
dielectric 4.90
$end
--------------------------------------------------------------

             Standard Nuclear Orientation (Angstroms)
    I     Atom           X                Y                Z
 ----------------------------------------------------------------
    1      C       0.2678510000    -8.5197410000     0.0479270000
    2      C      -0.8014610000    -7.6359670000     0.0561570000
    3      S       1.8221940000    -7.6517400000     0.0292850000
    4      C      -0.4152010000    -6.2618940000     0.0545160000
    5      H      -1.8514310000    -7.9547380000     0.0632900000
    6      C       1.0126500000    -6.0799850000     0.0546870000
    7      C       1.5841940000    -4.7983820000     0.0280300000
    8      C      -1.3094330000    -5.1535420000     0.0313990000
    9      C      -0.7375390000    -3.8696260000     0.0004270000
   10      C       0.6918280000    -3.6889270000     0.0034620000
   11      O      -2.6312110000    -5.4810750000     0.0611280000
   12      O       2.9119070000    -4.4798710000    -0.0030210000
   13      C       3.8547160000    -5.3560260000     0.6027100000
   14      H       4.8035170000    -4.7904960000     0.6706710000
   15      H       4.0342850000    -6.2685130000    -0.0069130000
   16      H       3.5351850000    -5.6581870000     1.6235070000
   17      C      -3.6108410000    -4.5469990000    -0.3757080000
   18      H      -4.5625440000    -5.1075640000    -0.4411150000
   19      H      -3.3640290000    -4.1314730000    -1.3762770000
   20      H      -3.7435660000    -3.7120850000     0.3461070000
   21      C       1.0744910000    -2.3143260000    -0.0004580000
   22      S      -1.5488480000    -2.2954870000     0.0131440000
   23      C       0.0000000000    -1.4351800000     0.0000000000
   24      H       2.1236880000    -1.9932110000    -0.0049530000
   25      C       0.0000000000     0.0000000000     0.0000000000
   26      S       0.7800440000     0.4477800000     1.5107320000
   27      C       2.1437740000     1.2363720000     0.7276290000
   28      C       0.7865290000     0.4541370000    -1.0646650000
   29      C       1.9884990000     1.1498440000    -0.6782870000
   30      C       0.7298640000     0.4195120000    -2.4861500000
   31      C       1.8251770000     1.0520410000    -3.1069160000
   32      S       2.9038770000     1.6786800000    -1.9657350000
   33      C       2.0478960000     1.1752320000    -4.5599720000
   34      O       1.2409530000     0.7058970000    -5.3502770000
   35      O       3.1607910000     1.8140240000    -5.0043750000
   36      F      -0.2330390000    -0.1409400000    -3.2462900000
   37      C       3.4765100000     1.9845850000    -6.3349760000
   38      H       4.4337350000     2.5365450000    -6.3702680000
   39      H       2.6938350000     2.5615030000    -6.8756090000
   40      H       3.5882390000     1.0111130000    -6.8618780000
   41      H       2.9405690000     1.6963270000     1.3215100000
   42      H       0.2576880000    -9.1464710000    -0.8515090000
   43      H       0.2716640000    -9.1505700000     0.9445420000
   44      H      -0.0084620000    -1.4441580000    -1.0799300000
 ----------------------------------------------------------------

   11   -2755.2609980713      7.53e-07  Convergence criterion met
 Total energy in the final basis set =    -2755.2609980713
        RIMP2         total energy =     -2760.3711404092 a.u.

                    Orbital Energies (a.u.)
 --------------------------------------------------------------

 Alpha MOs
 -- Occupied --
-92.0131 -92.0095 -91.9653 -91.9562 -26.3387 -20.6177 -20.5862 -20.5828
-20.5597 -11.4188 -11.3788 -11.3286 -11.3167 -11.3071 -11.3026 -11.3009
-11.2977 -11.2915 -11.2824 -11.2810 -11.2776 -11.2729 -11.2709 -11.2703
-11.2680 -11.2553 -11.2540 -11.2475 -11.2321  -9.0129  -9.0125  -8.9678
 -8.9589  -6.6941  -6.6935  -6.6931  -6.6922  -6.6922  -6.6921  -6.6489
 -6.6480  -6.6468  -6.6401  -6.6392  -6.6382  -1.6518  -1.4781  -1.4083
 -1.4058  -1.3745  -1.2514  -1.2053  -1.1744  -1.1472  -1.0984  -1.0573
 -1.0421  -1.0353  -1.0055  -0.9934  -0.9774  -0.9586  -0.9475  -0.9407
 -0.8898  -0.8801  -0.8562  -0.8111  -0.7986  -0.7848  -0.7817  -0.7694
 -0.7581  -0.7335  -0.7217  -0.7172  -0.6983  -0.6927  -0.6872  -0.6834
 -0.6798  -0.6753  -0.6532  -0.6465  -0.6325  -0.6263  -0.6180  -0.6147
 -0.6135  -0.6097  -0.6045  -0.5941  -0.5766  -0.5650  -0.5562  -0.5542
 -0.5480  -0.5334  -0.5235  -0.5229  -0.5106  -0.5063  -0.5047  -0.4986
 -0.4929  -0.4834  -0.4699  -0.4669  -0.4661  -0.4631  -0.4541  -0.4424
 -0.4171  -0.3979  -0.3804  -0.3677  -0.3483  -0.3074  -0.2851  -0.2167

          Ground-State Mulliken Net Atomic Charges

     Atom                 Charge (a.u.)
  ----------------------------------------
      1 C                    -0.069131
      2 C                    -0.272391
      3 S                    -0.140100
      4 C                    -0.039902
      5 H                     0.192032
      6 C                    -0.051394
      7 C                     0.221049
      8 C                     0.217614
      9 C                    -0.073568
     10 C                    -0.055992
     11 O                    -0.336702
     12 O                    -0.344605
     13 C                    -0.082601
     14 H                     0.118781
     15 H                     0.092127
     16 H                     0.092553
     17 C                    -0.086201
     18 H                     0.121767
     19 H                     0.091667
     20 H                     0.090287
     21 C                    -0.268093
     22 S                    -0.113812
     23 C                     0.074985
     24 H                     0.207900
     25 C                    -0.199537
     26 S                     0.114639
     27 C                    -0.140578
     28 C                    -0.030225
     29 C                    -0.032069
     30 C                     0.345629
     31 C                    -0.109477
     32 S                     0.082162
     33 C                     0.458089
     34 O                    -0.435420
     35 O                    -0.296085
     36 F                    -0.209563
     37 C                    -0.054699
     38 H                     0.117900
     39 H                     0.086213
     40 H                     0.086286
     41 H                     0.222058
     42 H                     0.115726
     43 H                     0.113181
     44 H                     0.179498
  ----------------------------------------
  Sum of atomic charges =     0.000000

                    Cartesian Multipole Moments
 -----------------------------------------------------------------
    Charge (ESU x 10^10)
                 0.0000
    Dipole Moment (Debye)
         X       5.4121      Y       4.3052      Z       1.7913
       Tot       7.1438
    Quadrupole Moments (Debye-Ang)
        XX    -169.8003     XY      12.3734     YY    -192.6619
        XZ      -5.9936     YZ      -6.7161     ZZ    -199.2761

 Total job time:  873.25s(wall), 10860.95s(cpu)
        *  Thank you very much for using Q-Chem.  Have a nice day.  *
