 Q-Chem 5.4, Q-Chem, Inc., Pleasanton, CA (2021)
 Q-Chem 5.4.0 for Intel X86 EM64T Linux

User input:
--------------------------------------------------------------
$molecule
0 1
C	-0.092419	-8.519741	-0.255929
C	0.449364	-7.635967	0.666007
S	-0.885736	-7.651740	-1.592708
C	0.254813	-6.261894	0.332317
H	0.980526	-7.954738	1.571741
C	-0.458965	-6.079985	-0.904324
C	-0.767823	-4.798382	-1.385968
C	0.681909	-5.153542	1.118303
C	0.369139	-3.869626	0.638514
C	-0.342916	-3.688927	-0.600871
O	1.368544	-5.481075	2.248132
O	-1.458570	-4.479871	-2.520275
C	-1.405396	-5.356026	-3.639637
H	-1.820940	-4.790496	-4.495304
H	-2.023129	-6.268513	-3.490336
H	-0.361595	-5.658187	-3.873314
C	1.480048	-4.546999	3.314934
H	1.899255	-5.107564	4.171837
H	0.490123	-4.131473	3.601473
H	2.171521	-3.712085	3.068969
C	-0.537642	-2.314326	-0.930308
S	0.785807	-2.295487	1.334769
C	0.000000	-1.435180	0.000000
H	-1.066134	-1.993211	-1.836691
C	0.000000	0.000000	0.000000
S	0.780044	0.447780	1.510732
C	2.143774	1.236372	0.727629
C	0.786529	0.454137	-1.064665
C	1.988499	1.149844	-0.678287
C	0.729864	0.419512	-2.486150
C	1.825177	1.052041	-3.106916
S	2.903877	1.678680	-1.965735
C	2.047896	1.175232	-4.559972
O	1.240953	0.705897	-5.350277
O	3.160791	1.814024	-5.004375
F	-0.233039	-0.140940	-3.246290
C	3.476510	1.984585	-6.334976
H	4.433735	2.536545	-6.370268
H	2.693835	2.561503	-6.875609
H	3.588239	1.011113	-6.861878
H	2.940569	1.696327	1.321510
H	-0.866272	-9.146471	0.202590
H	0.682165	-9.150570	-0.707539
H	-0.931016	-1.444158	0.547293
$end

$rem
JOBTYPE		SP
EXCHANGE	HF
CORRELATION	pRIMP2
BASIS		cc-pvtz
METHOD		rimp2
AUX_BASIS	rimp2-cc-pvtz
SOLVENT_METHOD	PCM
PURECART	11111
SYMMETRY	false
MEM_TOTAL	110000
SCF_CONVERGENCE = 6
THRESH=10
GUI = 2
$end

$solvent
dielectric 4.90
$end
--------------------------------------------------------------

             Standard Nuclear Orientation (Angstroms)
    I     Atom           X                Y                Z
 ----------------------------------------------------------------
    1      C      -0.0924190000    -8.5197410000    -0.2559290000
    2      C       0.4493640000    -7.6359670000     0.6660070000
    3      S      -0.8857360000    -7.6517400000    -1.5927080000
    4      C       0.2548130000    -6.2618940000     0.3323170000
    5      H       0.9805260000    -7.9547380000     1.5717410000
    6      C      -0.4589650000    -6.0799850000    -0.9043240000
    7      C      -0.7678230000    -4.7983820000    -1.3859680000
    8      C       0.6819090000    -5.1535420000     1.1183030000
    9      C       0.3691390000    -3.8696260000     0.6385140000
   10      C      -0.3429160000    -3.6889270000    -0.6008710000
   11      O       1.3685440000    -5.4810750000     2.2481320000
   12      O      -1.4585700000    -4.4798710000    -2.5202750000
   13      C      -1.4053960000    -5.3560260000    -3.6396370000
   14      H      -1.8209400000    -4.7904960000    -4.4953040000
   15      H      -2.0231290000    -6.2685130000    -3.4903360000
   16      H      -0.3615950000    -5.6581870000    -3.8733140000
   17      C       1.4800480000    -4.5469990000     3.3149340000
   18      H       1.8992550000    -5.1075640000     4.1718370000
   19      H       0.4901230000    -4.1314730000     3.6014730000
   20      H       2.1715210000    -3.7120850000     3.0689690000
   21      C      -0.5376420000    -2.3143260000    -0.9303080000
   22      S       0.7858070000    -2.2954870000     1.3347690000
   23      C       0.0000000000    -1.4351800000     0.0000000000
   24      H      -1.0661340000    -1.9932110000    -1.8366910000
   25      C       0.0000000000     0.0000000000     0.0000000000
   26      S       0.7800440000     0.4477800000     1.5107320000
   27      C       2.1437740000     1.2363720000     0.7276290000
   28      C       0.7865290000     0.4541370000    -1.0646650000
   29      C       1.9884990000     1.1498440000    -0.6782870000
   30      C       0.7298640000     0.4195120000    -2.4861500000
   31      C       1.8251770000     1.0520410000    -3.1069160000
   32      S       2.9038770000     1.6786800000    -1.9657350000
   33      C       2.0478960000     1.1752320000    -4.5599720000
   34      O       1.2409530000     0.7058970000    -5.3502770000
   35      O       3.1607910000     1.8140240000    -5.0043750000
   36      F      -0.2330390000    -0.1409400000    -3.2462900000
   37      C       3.4765100000     1.9845850000    -6.3349760000
   38      H       4.4337350000     2.5365450000    -6.3702680000
   39      H       2.6938350000     2.5615030000    -6.8756090000
   40      H       3.5882390000     1.0111130000    -6.8618780000
   41      H       2.9405690000     1.6963270000     1.3215100000
   42      H      -0.8662720000    -9.1464710000     0.2025900000
   43      H       0.6821650000    -9.1505700000    -0.7075390000
   44      H      -0.9310160000    -1.4441580000     0.5472930000
 ----------------------------------------------------------------

   11   -2755.2416783629      8.15e-07  Convergence criterion met
 Total energy in the final basis set =    -2755.2416783629
        RIMP2         total energy =     -2760.3578522112 a.u.

                    Orbital Energies (a.u.)
 --------------------------------------------------------------

 Alpha MOs
 -- Occupied --
-92.0165 -92.0074 -91.9737 -91.9536 -26.3378 -20.6169 -20.5845 -20.5827
-20.5583 -11.4175 -11.3776 -11.3262 -11.3139 -11.3062 -11.3023 -11.2992
-11.2938 -11.2910 -11.2827 -11.2804 -11.2759 -11.2735 -11.2712 -11.2695
-11.2664 -11.2538 -11.2492 -11.2449 -11.2262  -9.0163  -9.0109  -8.9762
 -8.9563  -6.6969  -6.6960  -6.6959  -6.6920  -6.6914  -6.6901  -6.6571
 -6.6561  -6.6548  -6.6375  -6.6366  -6.6356  -1.6513  -1.4771  -1.4068
 -1.4056  -1.3734  -1.2489  -1.2068  -1.1726  -1.1466  -1.0955  -1.0560
 -1.0432  -1.0347  -1.0058  -0.9950  -0.9767  -0.9596  -0.9453  -0.9385
 -0.8924  -0.8771  -0.8577  -0.8076  -0.8009  -0.7858  -0.7757  -0.7713
 -0.7594  -0.7323  -0.7234  -0.7189  -0.6975  -0.6933  -0.6829  -0.6816
 -0.6779  -0.6650  -0.6537  -0.6459  -0.6379  -0.6270  -0.6155  -0.6128
 -0.6111  -0.6106  -0.6043  -0.5902  -0.5727  -0.5669  -0.5566  -0.5545
 -0.5403  -0.5369  -0.5301  -0.5224  -0.5168  -0.5081  -0.5050  -0.4979
 -0.4895  -0.4807  -0.4727  -0.4675  -0.4657  -0.4640  -0.4473  -0.4410
 -0.4270  -0.3898  -0.3813  -0.3644  -0.3492  -0.3025  -0.2838  -0.2099

          Ground-State Mulliken Net Atomic Charges

     Atom                 Charge (a.u.)
  ----------------------------------------
      1 C                    -0.068404
      2 C                    -0.290008
      3 S                    -0.144789
      4 C                    -0.038523
      5 H                     0.189249
      6 C                    -0.057674
      7 C                     0.226569
      8 C                     0.213190
      9 C                    -0.078818
     10 C                    -0.052035
     11 O                    -0.336660
     12 O                    -0.343454
     13 C                    -0.082338
     14 H                     0.120199
     15 H                     0.091535
     16 H                     0.092123
     17 C                    -0.087338
     18 H                     0.122825
     19 H                     0.090528
     20 H                     0.087950
     21 C                    -0.284956
     22 S                    -0.095953
     23 C                     0.047112
     24 H                     0.211437
     25 C                    -0.202199
     26 S                     0.108389
     27 C                    -0.144945
     28 C                     0.021676
     29 C                    -0.035725
     30 C                     0.357043
     31 C                    -0.110683
     32 S                     0.074012
     33 C                     0.457625
     34 O                    -0.437751
     35 O                    -0.296292
     36 F                    -0.212196
     37 C                    -0.054751
     38 H                     0.117784
     39 H                     0.085858
     40 H                     0.085987
     41 H                     0.222936
     42 H                     0.113222
     43 H                     0.110761
     44 H                     0.207484
  ----------------------------------------
  Sum of atomic charges =     0.000000

                    Cartesian Multipole Moments
 -----------------------------------------------------------------
    Charge (ESU x 10^10)
                 0.0000
    Dipole Moment (Debye)
         X       4.7215      Y       5.2099      Z       2.8632
       Tot       7.5917
    Quadrupole Moments (Debye-Ang)
        XX    -184.9718     XY       7.9197     YY    -202.3743
        XZ      -7.7915     YZ      -8.7057     ZZ    -184.1212

 Total job time:  332.64s(wall), 10851.83s(cpu)
        *  Thank you very much for using Q-Chem.  Have a nice day.  *
