 Q-Chem 5.4, Q-Chem, Inc., Pleasanton, CA (2021)
 Q-Chem 5.4.0 for Intel X86 EM64T Linux

User input:
--------------------------------------------------------------
$molecule
0 1
C	-0.000687	-8.519741	0.272104
C	-0.194476	-7.635967	-0.779533
S	0.287581	-7.651740	1.799596
C	-0.125787	-6.261894	-0.399427
H	-0.383826	-7.954738	-1.812314
C	0.121989	-6.079985	1.006762
C	0.247488	-4.798382	1.564994
C	-0.258303	-5.153542	-1.284087
C	-0.128493	-3.869626	-0.726260
C	0.116725	-3.688927	0.681918
O	-0.517104	-5.481075	-2.580622
O	0.508622	-4.479871	2.867144
C	0.075811	-5.356026	3.900814
H	0.173640	-4.790496	4.847002
H	0.707354	-6.268513	3.971794
H	-0.984963	-5.658187	3.763397
C	-0.257016	-4.546999	-3.621225
H	-0.357864	-5.107564	-4.569828
H	0.771211	-4.131473	-3.551910
H	-0.990913	-3.712085	-3.626592
C	0.187034	-2.314326	1.058088
S	-0.281899	-2.295487	-1.523035
C	0.000000	-1.435180	0.000000
H	0.373653	-1.993211	2.090565
C	0.000000	0.000000	0.000000
S	0.309721	0.844422	1.510732
C	0.847502	2.325108	0.727629
C	0.310602	0.853460	-1.064665
C	0.784173	2.159014	-0.678287
C	0.289451	0.790512	-2.486150
C	0.721927	1.979112	-3.106916
S	1.145464	3.152519	-1.965735
C	0.813355	2.216642	-4.559972
O	0.496884	1.338418	-5.350277
O	1.255274	3.421340	-5.004375
F	-0.087923	-0.257761	-3.246290
C	1.387494	3.754937	-6.334976
H	1.765978	4.793056	-6.370268
H	0.417095	3.693789	-6.875609
H	2.098820	3.081033	-6.861878
H	1.162229	3.189623	1.321510
H	0.883319	-9.146471	0.105910
H	-0.883019	-9.150570	0.431555
H	1.062054	-1.444158	-0.195861
$end

$rem
JOBTYPE		SP
EXCHANGE	HF
CORRELATION	pRIMP2
BASIS		cc-pvtz
METHOD		rimp2
AUX_BASIS	rimp2-cc-pvtz
SOLVENT_METHOD	PCM
PURECART	11111
SYMMETRY	false
MEM_TOTAL	110000
SCF_CONVERGENCE = 6
THRESH=10
GUI = 2
$end

$solvent
dielectric 4.90
$end
--------------------------------------------------------------

             Standard Nuclear Orientation (Angstroms)
    I     Atom           X                Y                Z
 ----------------------------------------------------------------
    1      C      -0.0006870000    -8.5197410000     0.2721040000
    2      C      -0.1944760000    -7.6359670000    -0.7795330000
    3      S       0.2875810000    -7.6517400000     1.7995960000
    4      C      -0.1257870000    -6.2618940000    -0.3994270000
    5      H      -0.3838260000    -7.9547380000    -1.8123140000
    6      C       0.1219890000    -6.0799850000     1.0067620000
    7      C       0.2474880000    -4.7983820000     1.5649940000
    8      C      -0.2583030000    -5.1535420000    -1.2840870000
    9      C      -0.1284930000    -3.8696260000    -0.7262600000
   10      C       0.1167250000    -3.6889270000     0.6819180000
   11      O      -0.5171040000    -5.4810750000    -2.5806220000
   12      O       0.5086220000    -4.4798710000     2.8671440000
   13      C       0.0758110000    -5.3560260000     3.9008140000
   14      H       0.1736400000    -4.7904960000     4.8470020000
   15      H       0.7073540000    -6.2685130000     3.9717940000
   16      H      -0.9849630000    -5.6581870000     3.7633970000
   17      C      -0.2570160000    -4.5469990000    -3.6212250000
   18      H      -0.3578640000    -5.1075640000    -4.5698280000
   19      H       0.7712110000    -4.1314730000    -3.5519100000
   20      H      -0.9909130000    -3.7120850000    -3.6265920000
   21      C       0.1870340000    -2.3143260000     1.0580880000
   22      S      -0.2818990000    -2.2954870000    -1.5230350000
   23      C       0.0000000000    -1.4351800000     0.0000000000
   24      H       0.3736530000    -1.9932110000     2.0905650000
   25      C       0.0000000000     0.0000000000     0.0000000000
   26      S       0.3097210000     0.8444220000     1.5107320000
   27      C       0.8475020000     2.3251080000     0.7276290000
   28      C       0.3106020000     0.8534600000    -1.0646650000
   29      C       0.7841730000     2.1590140000    -0.6782870000
   30      C       0.2894510000     0.7905120000    -2.4861500000
   31      C       0.7219270000     1.9791120000    -3.1069160000
   32      S       1.1454640000     3.1525190000    -1.9657350000
   33      C       0.8133550000     2.2166420000    -4.5599720000
   34      O       0.4968840000     1.3384180000    -5.3502770000
   35      O       1.2552740000     3.4213400000    -5.0043750000
   36      F      -0.0879230000    -0.2577610000    -3.2462900000
   37      C       1.3874940000     3.7549370000    -6.3349760000
   38      H       1.7659780000     4.7930560000    -6.3702680000
   39      H       0.4170950000     3.6937890000    -6.8756090000
   40      H       2.0988200000     3.0810330000    -6.8618780000
   41      H       1.1622290000     3.1896230000     1.3215100000
   42      H       0.8833190000    -9.1464710000     0.1059100000
   43      H      -0.8830190000    -9.1505700000     0.4315550000
   44      H       1.0620540000    -1.4441580000    -0.1958610000
 ----------------------------------------------------------------

   11   -2755.3162743116      6.51e-07  Convergence criterion met
 Total energy in the final basis set =    -2755.3162743116
        RIMP2         total energy =     -2760.4102698880 a.u.

                    Orbital Energies (a.u.)
 --------------------------------------------------------------

 Alpha MOs
 -- Occupied --
-92.0137 -91.9921 -91.9756 -91.9610 -26.3352 -20.6106 -20.5883 -20.5881
-20.5470 -11.4079 -11.3790 -11.3254 -11.3109 -11.3098 -11.2968 -11.2914
-11.2878 -11.2871 -11.2840 -11.2837 -11.2828 -11.2819 -11.2768 -11.2754
-11.2707 -11.2630 -11.2602 -11.2524 -11.2434  -9.0124  -8.9962  -8.9783
 -8.9635  -6.6932  -6.6926  -6.6921  -6.6775  -6.6768  -6.6755  -6.6592
 -6.6584  -6.6569  -6.6447  -6.6438  -6.6428  -1.6511  -1.4701  -1.4117
 -1.4100  -1.3650  -1.2389  -1.2097  -1.1783  -1.1434  -1.1005  -1.0509
 -1.0472  -1.0292  -1.0081  -1.0003  -0.9714  -0.9600  -0.9497  -0.9403
 -0.8950  -0.8723  -0.8628  -0.8132  -0.7955  -0.7862  -0.7764  -0.7660
 -0.7617  -0.7340  -0.7206  -0.7180  -0.6986  -0.6954  -0.6848  -0.6774
 -0.6744  -0.6720  -0.6565  -0.6494  -0.6370  -0.6300  -0.6226  -0.6158
 -0.6109  -0.6044  -0.5974  -0.5915  -0.5767  -0.5679  -0.5637  -0.5593
 -0.5495  -0.5328  -0.5291  -0.5209  -0.5137  -0.5089  -0.5047  -0.4996
 -0.4843  -0.4827  -0.4797  -0.4662  -0.4603  -0.4597  -0.4584  -0.4482
 -0.4321  -0.3994  -0.3851  -0.3725  -0.3510  -0.2933  -0.2836  -0.2188

          Ground-State Mulliken Net Atomic Charges

     Atom                 Charge (a.u.)
  ----------------------------------------
      1 C                    -0.071293
      2 C                    -0.240165
      3 S                    -0.129621
      4 C                    -0.050573
      5 H                     0.196234
      6 C                    -0.046255
      7 C                     0.216828
      8 C                     0.235094
      9 C                    -0.079948
     10 C                    -0.026975
     11 O                    -0.334473
     12 O                    -0.344055
     13 C                    -0.082713
     14 H                     0.120173
     15 H                     0.092013
     16 H                     0.093045
     17 C                    -0.088019
     18 H                     0.124324
     19 H                     0.093420
     20 H                     0.091930
     21 C                    -0.323129
     22 S                    -0.084751
     23 C                     0.093518
     24 H                     0.198163
     25 C                     0.029944
     26 S                     0.080407
     27 C                    -0.266993
     28 C                    -0.139938
     29 C                    -0.016126
     30 C                     0.380855
     31 C                    -0.146915
     32 S                     0.033837
     33 C                     0.458542
     34 O                    -0.456178
     35 O                    -0.298844
     36 F                    -0.209038
     37 C                    -0.055003
     38 H                     0.116299
     39 H                     0.084072
     40 H                     0.083742
     41 H                     0.214185
     42 H                     0.120141
     43 H                     0.117834
     44 H                     0.216404
  ----------------------------------------
  Sum of atomic charges =     0.000000

                    Cartesian Multipole Moments
 -----------------------------------------------------------------
    Charge (ESU x 10^10)
                -0.0000
    Dipole Moment (Debye)
         X       1.5086      Y       1.0549      Z       2.8659
       Tot       3.4062
    Quadrupole Moments (Debye-Ang)
        XX    -199.5136     XY       5.3126     YY    -167.6486
        XZ      -6.2371     YZ      -4.6332     ZZ    -189.3207

 Total job time:  342.12s(wall), 10845.50s(cpu)
        *  Thank you very much for using Q-Chem.  Have a nice day.  *
