 Q-Chem 5.4, Q-Chem, Inc., Pleasanton, CA (2021)
 Q-Chem 5.4.0 for Intel X86 EM64T Linux

User input:
--------------------------------------------------------------
$molecule
0 1
C	0.047927	-8.519741	-0.267851
C	0.056157	-7.635967	0.801461
S	0.029285	-7.651740	-1.822194
C	0.054516	-6.261894	0.415201
H	0.063290	-7.954738	1.851431
C	0.054687	-6.079985	-1.012650
C	0.028030	-4.798382	-1.584194
C	0.031399	-5.153542	1.309433
C	0.000427	-3.869626	0.737539
C	0.003462	-3.688927	-0.691828
O	0.061128	-5.481075	2.631211
O	-0.003021	-4.479871	-2.911907
C	0.602710	-5.356026	-3.854716
H	0.670671	-4.790496	-4.803517
H	-0.006913	-6.268513	-4.034285
H	1.623507	-5.658187	-3.535185
C	-0.375708	-4.546999	3.610841
H	-0.441115	-5.107564	4.562544
H	-1.376277	-4.131473	3.364029
H	0.346107	-3.712085	3.743566
C	-0.000458	-2.314326	-1.074491
S	0.013144	-2.295487	1.548848
C	-0.000000	-1.435180	-0.000000
H	-0.004953	-1.993211	-2.123688
C	0.000000	0.000000	0.000000
S	0.158383	0.885376	1.510732
C	0.430876	2.436951	0.727629
C	0.157682	0.894430	-1.064665
C	0.397351	2.262384	-0.678287
C	0.147783	0.828765	-2.486150
C	0.367291	2.074406	-3.106916
S	0.580633	3.303533	-1.965735
C	0.416083	2.324204	-4.559972
O	0.256921	1.404367	-5.350277
O	0.642094	3.587338	-5.004375
F	-0.041828	-0.269113	-3.246290
C	0.714377	3.938827	-6.334976
H	0.906844	5.026898	-6.370268
H	-0.230661	3.710099	-6.875609
H	1.531918	3.398681	-6.861878
H	0.590699	3.342984	1.321510
H	-0.851509	-9.146471	-0.257688
H	0.944542	-9.150570	-0.271664
H	-1.079930	-1.444158	0.008462
$end

$rem
JOBTYPE		SP
EXCHANGE	HF
CORRELATION	pRIMP2
BASIS		cc-pvtz
METHOD		rimp2
AUX_BASIS	rimp2-cc-pvtz
SOLVENT_METHOD	PCM
PURECART	11111
SYMMETRY	false
MEM_TOTAL	110000
SCF_CONVERGENCE = 6
THRESH=10
GUI = 2
$end

$solvent
dielectric 4.90
$end
--------------------------------------------------------------

             Standard Nuclear Orientation (Angstroms)
    I     Atom           X                Y                Z
 ----------------------------------------------------------------
    1      C       0.0479270000    -8.5197410000    -0.2678510000
    2      C       0.0561570000    -7.6359670000     0.8014610000
    3      S       0.0292850000    -7.6517400000    -1.8221940000
    4      C       0.0545160000    -6.2618940000     0.4152010000
    5      H       0.0632900000    -7.9547380000     1.8514310000
    6      C       0.0546870000    -6.0799850000    -1.0126500000
    7      C       0.0280300000    -4.7983820000    -1.5841940000
    8      C       0.0313990000    -5.1535420000     1.3094330000
    9      C       0.0004270000    -3.8696260000     0.7375390000
   10      C       0.0034620000    -3.6889270000    -0.6918280000
   11      O       0.0611280000    -5.4810750000     2.6312110000
   12      O      -0.0030210000    -4.4798710000    -2.9119070000
   13      C       0.6027100000    -5.3560260000    -3.8547160000
   14      H       0.6706710000    -4.7904960000    -4.8035170000
   15      H      -0.0069130000    -6.2685130000    -4.0342850000
   16      H       1.6235070000    -5.6581870000    -3.5351850000
   17      C      -0.3757080000    -4.5469990000     3.6108410000
   18      H      -0.4411150000    -5.1075640000     4.5625440000
   19      H      -1.3762770000    -4.1314730000     3.3640290000
   20      H       0.3461070000    -3.7120850000     3.7435660000
   21      C      -0.0004580000    -2.3143260000    -1.0744910000
   22      S       0.0131440000    -2.2954870000     1.5488480000
   23      C       0.0000000000    -1.4351800000     0.0000000000
   24      H      -0.0049530000    -1.9932110000    -2.1236880000
   25      C       0.0000000000     0.0000000000     0.0000000000
   26      S       0.1583830000     0.8853760000     1.5107320000
   27      C       0.4308760000     2.4369510000     0.7276290000
   28      C       0.1576820000     0.8944300000    -1.0646650000
   29      C       0.3973510000     2.2623840000    -0.6782870000
   30      C       0.1477830000     0.8287650000    -2.4861500000
   31      C       0.3672910000     2.0744060000    -3.1069160000
   32      S       0.5806330000     3.3035330000    -1.9657350000
   33      C       0.4160830000     2.3242040000    -4.5599720000
   34      O       0.2569210000     1.4043670000    -5.3502770000
   35      O       0.6420940000     3.5873380000    -5.0043750000
   36      F      -0.0418280000    -0.2691130000    -3.2462900000
   37      C       0.7143770000     3.9388270000    -6.3349760000
   38      H       0.9068440000     5.0268980000    -6.3702680000
   39      H      -0.2306610000     3.7100990000    -6.8756090000
   40      H       1.5319180000     3.3986810000    -6.8618780000
   41      H       0.5906990000     3.3429840000     1.3215100000
   42      H      -0.8515090000    -9.1464710000    -0.2576880000
   43      H       0.9445420000    -9.1505700000    -0.2716640000
   44      H      -1.0799300000    -1.4441580000     0.0084620000
 ----------------------------------------------------------------

   11   -2755.3225119804      6.83e-07  Convergence criterion met
 Total energy in the final basis set =    -2755.3225119804
        RIMP2         total energy =     -2760.4140920696 a.u.

                    Orbital Energies (a.u.)
 --------------------------------------------------------------

 Alpha MOs
 -- Occupied --
-92.0149 -91.9922 -91.9840 -91.9601 -26.3402 -20.6107 -20.5904 -20.5872
-20.5473 -11.4081 -11.3801 -11.3262 -11.3131 -11.3101 -11.2967 -11.2919
-11.2879 -11.2876 -11.2867 -11.2860 -11.2823 -11.2823 -11.2759 -11.2755
-11.2696 -11.2616 -11.2606 -11.2519 -11.2427  -9.0135  -8.9964  -8.9862
 -8.9627  -6.6944  -6.6937  -6.6932  -6.6777  -6.6770  -6.6756  -6.6673
 -6.6664  -6.6652  -6.6439  -6.6430  -6.6420  -1.6550  -1.4703  -1.4136
 -1.4092  -1.3653  -1.2380  -1.2112  -1.1781  -1.1435  -1.1014  -1.0503
 -1.0488  -1.0285  -1.0110  -1.0006  -0.9715  -0.9601  -0.9507  -0.9409
 -0.8964  -0.8732  -0.8637  -0.8117  -0.7978  -0.7881  -0.7756  -0.7708
 -0.7637  -0.7341  -0.7230  -0.7217  -0.6992  -0.6959  -0.6847  -0.6776
 -0.6720  -0.6715  -0.6581  -0.6496  -0.6403  -0.6308  -0.6222  -0.6160
 -0.6082  -0.6048  -0.5955  -0.5912  -0.5775  -0.5719  -0.5603  -0.5515
 -0.5483  -0.5368  -0.5331  -0.5227  -0.5151  -0.5099  -0.5070  -0.5018
 -0.4844  -0.4835  -0.4805  -0.4696  -0.4630  -0.4604  -0.4578  -0.4484
 -0.4343  -0.3980  -0.3889  -0.3726  -0.3507  -0.2943  -0.2839  -0.2189

          Ground-State Mulliken Net Atomic Charges

     Atom                 Charge (a.u.)
  ----------------------------------------
      1 C                    -0.070943
      2 C                    -0.244654
      3 S                    -0.130749
      4 C                    -0.051792
      5 H                     0.195463
      6 C                    -0.049378
      7 C                     0.230821
      8 C                     0.237652
      9 C                    -0.078218
     10 C                    -0.032533
     11 O                    -0.332969
     12 O                    -0.343499
     13 C                    -0.083419
     14 H                     0.122100
     15 H                     0.092231
     16 H                     0.092660
     17 C                    -0.089169
     18 H                     0.125536
     19 H                     0.093681
     20 H                     0.090433
     21 C                    -0.339348
     22 S                    -0.095236
     23 C                     0.132923
     24 H                     0.221360
     25 C                    -0.079207
     26 S                     0.078311
     27 C                    -0.271703
     28 C                    -0.067329
     29 C                    -0.012122
     30 C                     0.397793
     31 C                    -0.148442
     32 S                     0.029994
     33 C                     0.461678
     34 O                    -0.456413
     35 O                    -0.298626
     36 F                    -0.218212
     37 C                    -0.055151
     38 H                     0.116410
     39 H                     0.084019
     40 H                     0.084010
     41 H                     0.214968
     42 H                     0.119481
     43 H                     0.117251
     44 H                     0.210336
  ----------------------------------------
  Sum of atomic charges =     0.000000

                    Cartesian Multipole Moments
 -----------------------------------------------------------------
    Charge (ESU x 10^10)
                 0.0000
    Dipole Moment (Debye)
         X      -0.2338      Y       1.2718      Z       3.7990
       Tot       4.0131
    Quadrupole Moments (Debye-Ang)
        XX    -199.2113     XY       2.4674     YY    -167.2706
        XZ      -7.5182     YZ     -14.3649     ZZ    -190.9422

 Total job time:  336.83s(wall), 10898.18s(cpu)
        *  Thank you very much for using Q-Chem.  Have a nice day.  *
