 Q-Chem 5.4, Q-Chem, Inc., Pleasanton, CA (2021)
 Q-Chem 5.4.0 for Intel X86 EM64T Linux

User input:
--------------------------------------------------------------
$molecule
0 1
C	-0.267851	-8.519741	-0.047927
C	0.801461	-7.635967	-0.056157
S	-1.822194	-7.651740	-0.029285
C	0.415201	-6.261894	-0.054516
H	1.851431	-7.954738	-0.063290
C	-1.012650	-6.079985	-0.054687
C	-1.584194	-4.798382	-0.028030
C	1.309433	-5.153542	-0.031399
C	0.737539	-3.869626	-0.000427
C	-0.691828	-3.688927	-0.003462
O	2.631211	-5.481075	-0.061128
O	-2.911907	-4.479871	0.003021
C	-3.854716	-5.356026	-0.602710
H	-4.803517	-4.790496	-0.670671
H	-4.034285	-6.268513	0.006913
H	-3.535185	-5.658187	-1.623507
C	3.610841	-4.546999	0.375708
H	4.562544	-5.107564	0.441115
H	3.364029	-4.131473	1.376277
H	3.743566	-3.712085	-0.346107
C	-1.074491	-2.314326	0.000458
S	1.548848	-2.295487	-0.013144
C	-0.000000	-1.435180	-0.000000
H	-2.123688	-1.993211	0.004953
C	0.000000	0.000000	0.000000
S	0.158383	0.885376	1.510732
C	0.430876	2.436951	0.727629
C	0.157682	0.894430	-1.064665
C	0.397351	2.262384	-0.678287
C	0.147783	0.828765	-2.486150
C	0.367291	2.074406	-3.106916
S	0.580633	3.303533	-1.965735
C	0.416083	2.324204	-4.559972
O	0.256921	1.404367	-5.350277
O	0.642094	3.587338	-5.004375
F	-0.041828	-0.269113	-3.246290
C	0.714377	3.938827	-6.334976
H	0.906844	5.026898	-6.370268
H	-0.230661	3.710099	-6.875609
H	1.531918	3.398681	-6.861878
H	0.590699	3.342984	1.321510
H	-0.257688	-9.146471	0.851509
H	-0.271664	-9.150570	-0.944542
H	0.008462	-1.444158	1.079930
$end

$rem
JOBTYPE		SP
EXCHANGE	HF
CORRELATION	pRIMP2
BASIS		cc-pvtz
METHOD		rimp2
AUX_BASIS	rimp2-cc-pvtz
SOLVENT_METHOD	PCM
PURECART	11111
SYMMETRY	false
MEM_TOTAL	110000
SCF_CONVERGENCE = 6
THRESH=10
GUI = 2
$end

$solvent
dielectric 4.90
$end
--------------------------------------------------------------

             Standard Nuclear Orientation (Angstroms)
    I     Atom           X                Y                Z
 ----------------------------------------------------------------
    1      C      -0.2678510000    -8.5197410000    -0.0479270000
    2      C       0.8014610000    -7.6359670000    -0.0561570000
    3      S      -1.8221940000    -7.6517400000    -0.0292850000
    4      C       0.4152010000    -6.2618940000    -0.0545160000
    5      H       1.8514310000    -7.9547380000    -0.0632900000
    6      C      -1.0126500000    -6.0799850000    -0.0546870000
    7      C      -1.5841940000    -4.7983820000    -0.0280300000
    8      C       1.3094330000    -5.1535420000    -0.0313990000
    9      C       0.7375390000    -3.8696260000    -0.0004270000
   10      C      -0.6918280000    -3.6889270000    -0.0034620000
   11      O       2.6312110000    -5.4810750000    -0.0611280000
   12      O      -2.9119070000    -4.4798710000     0.0030210000
   13      C      -3.8547160000    -5.3560260000    -0.6027100000
   14      H      -4.8035170000    -4.7904960000    -0.6706710000
   15      H      -4.0342850000    -6.2685130000     0.0069130000
   16      H      -3.5351850000    -5.6581870000    -1.6235070000
   17      C       3.6108410000    -4.5469990000     0.3757080000
   18      H       4.5625440000    -5.1075640000     0.4411150000
   19      H       3.3640290000    -4.1314730000     1.3762770000
   20      H       3.7435660000    -3.7120850000    -0.3461070000
   21      C      -1.0744910000    -2.3143260000     0.0004580000
   22      S       1.5488480000    -2.2954870000    -0.0131440000
   23      C       0.0000000000    -1.4351800000     0.0000000000
   24      H      -2.1236880000    -1.9932110000     0.0049530000
   25      C       0.0000000000     0.0000000000     0.0000000000
   26      S       0.1583830000     0.8853760000     1.5107320000
   27      C       0.4308760000     2.4369510000     0.7276290000
   28      C       0.1576820000     0.8944300000    -1.0646650000
   29      C       0.3973510000     2.2623840000    -0.6782870000
   30      C       0.1477830000     0.8287650000    -2.4861500000
   31      C       0.3672910000     2.0744060000    -3.1069160000
   32      S       0.5806330000     3.3035330000    -1.9657350000
   33      C       0.4160830000     2.3242040000    -4.5599720000
   34      O       0.2569210000     1.4043670000    -5.3502770000
   35      O       0.6420940000     3.5873380000    -5.0043750000
   36      F      -0.0418280000    -0.2691130000    -3.2462900000
   37      C       0.7143770000     3.9388270000    -6.3349760000
   38      H       0.9068440000     5.0268980000    -6.3702680000
   39      H      -0.2306610000     3.7100990000    -6.8756090000
   40      H       1.5319180000     3.3986810000    -6.8618780000
   41      H       0.5906990000     3.3429840000     1.3215100000
   42      H      -0.2576880000    -9.1464710000     0.8515090000
   43      H      -0.2716640000    -9.1505700000    -0.9445420000
   44      H       0.0084620000    -1.4441580000     1.0799300000
 ----------------------------------------------------------------

   11   -2755.3251290011      7.42e-07  Convergence criterion met
 Total energy in the final basis set =    -2755.3251290011
        RIMP2         total energy =     -2760.4155908060 a.u.

                    Orbital Energies (a.u.)
 --------------------------------------------------------------

 Alpha MOs
 -- Occupied --
-92.0197 -91.9959 -91.9774 -91.9577 -26.3353 -20.6129 -20.5868 -20.5865
-20.5513 -11.4114 -11.3776 -11.3104 -11.3087 -11.3067 -11.2996 -11.2982
-11.2971 -11.2889 -11.2842 -11.2826 -11.2824 -11.2814 -11.2805 -11.2722
-11.2722 -11.2578 -11.2569 -11.2492 -11.2361  -9.0179  -9.0000  -8.9796
 -8.9603  -6.6986  -6.6981  -6.6976  -6.6813  -6.6806  -6.6792  -6.6607
 -6.6598  -6.6585  -6.6415  -6.6406  -6.6396  -1.6481  -1.4726  -1.4100
 -1.4085  -1.3681  -1.2380  -1.2087  -1.1749  -1.1441  -1.0989  -1.0502
 -1.0453  -1.0314  -1.0082  -0.9972  -0.9728  -0.9595  -0.9483  -0.9403
 -0.8929  -0.8716  -0.8645  -0.8085  -0.7934  -0.7846  -0.7773  -0.7744
 -0.7652  -0.7331  -0.7213  -0.7164  -0.6969  -0.6924  -0.6813  -0.6791
 -0.6727  -0.6640  -0.6559  -0.6482  -0.6323  -0.6298  -0.6196  -0.6145
 -0.6109  -0.6073  -0.5959  -0.5924  -0.5824  -0.5645  -0.5594  -0.5548
 -0.5489  -0.5351  -0.5280  -0.5220  -0.5127  -0.5072  -0.5036  -0.5012
 -0.4877  -0.4861  -0.4773  -0.4701  -0.4624  -0.4619  -0.4608  -0.4460
 -0.4227  -0.4031  -0.3850  -0.3698  -0.3510  -0.2924  -0.2892  -0.2208

          Ground-State Mulliken Net Atomic Charges

     Atom                 Charge (a.u.)
  ----------------------------------------
      1 C                    -0.070005
      2 C                    -0.261177
      3 S                    -0.136511
      4 C                    -0.043208
      5 H                     0.193264
      6 C                    -0.053098
      7 C                     0.229064
      8 C                     0.224152
      9 C                    -0.076196
     10 C                    -0.054430
     11 O                    -0.334704
     12 O                    -0.343375
     13 C                    -0.082348
     14 H                     0.119851
     15 H                     0.091555
     16 H                     0.093336
     17 C                    -0.086544
     18 H                     0.123044
     19 H                     0.091586
     20 H                     0.090773
     21 C                    -0.254434
     22 S                    -0.071131
     23 C                     0.064269
     24 H                     0.203262
     25 C                    -0.073627
     26 S                     0.103706
     27 C                    -0.237885
     28 C                    -0.091441
     29 C                     0.000309
     30 C                     0.389867
     31 C                    -0.155856
     32 S                     0.041159
     33 C                     0.459987
     34 O                    -0.448107
     35 O                    -0.297572
     36 F                    -0.211882
     37 C                    -0.055028
     38 H                     0.116680
     39 H                     0.084768
     40 H                     0.084829
     41 H                     0.216924
     42 H                     0.116851
     43 H                     0.114859
     44 H                     0.184465
  ----------------------------------------
  Sum of atomic charges =     0.000000

                    Cartesian Multipole Moments
 -----------------------------------------------------------------
    Charge (ESU x 10^10)
                -0.0000
    Dipole Moment (Debye)
         X       0.7830      Y       3.9273      Z       3.7208
       Tot       5.4664
    Quadrupole Moments (Debye-Ang)
        XX    -184.4874     XY      -0.9296     YY    -175.6249
        XZ       3.6804     YZ     -10.6203     ZZ    -203.8255

 Total job time:  394.81s(wall), 10662.90s(cpu)
        *  Thank you very much for using Q-Chem.  Have a nice day.  *
