 Q-Chem 5.4, Q-Chem, Inc., Pleasanton, CA (2021)
 Q-Chem 5.4.0 for Intel X86 EM64T Linux

User input:
--------------------------------------------------------------
$molecule
0 1
C	-0.174379	-8.519741	-0.208886
C	0.650052	-7.635967	0.472151
S	-1.377058	-7.651740	-1.193717
C	0.353105	-6.261894	0.225125
H	1.458961	-7.954738	1.141594
C	-0.740583	-6.079985	-0.692811
C	-1.195546	-4.798382	-1.039773
C	1.023267	-5.153542	0.817634
C	0.565262	-3.869626	0.473754
C	-0.527745	-3.688927	-0.447350
O	2.054917	-5.481075	1.644483
O	-2.232592	-4.479871	-1.869424
C	-2.565470	-5.356026	-2.939466
H	-3.248608	-4.790496	-3.601405
H	-3.094885	-6.268513	-2.587892
H	-1.664539	-5.658187	-3.516052
C	2.524564	-4.546999	2.608813
H	3.211568	-5.107564	3.270661
H	1.692342	-4.131473	3.216646
H	3.090211	-3.712085	2.141184
C	-0.823402	-2.314326	-0.690319
S	1.194935	-2.295487	0.985511
C	0.000000	-1.435180	0.000000
H	-1.630024	-1.993211	-1.361286
C	0.000000	0.000000	0.000000
S	0.080615	0.895811	1.510732
C	0.216842	2.465231	0.727629
C	0.079127	0.904769	-1.064665
C	0.198659	2.288406	-0.678287
C	0.074988	0.838492	-2.486150
C	0.185097	2.098524	-3.106916
S	0.290501	3.341568	-1.965735
C	0.211932	2.351623	-4.559972
O	0.133545	1.421416	-5.350277
O	0.326994	3.629649	-5.004375
F	-0.018214	-0.271734	-3.246290
C	0.368367	3.986101	-6.334976
H	0.465270	5.086806	-6.370268
H	-0.553140	3.675878	-6.875609
H	1.229874	3.519263	-6.861878
H	0.297091	3.381746	1.321510
H	-0.744739	-9.146471	0.486655
H	0.399033	-9.150570	-0.898184
H	-0.687683	-1.444158	0.832713
$end

$rem
JOBTYPE		SP
EXCHANGE	HF
CORRELATION	pRIMP2
BASIS		cc-pvtz
METHOD		rimp2
AUX_BASIS	rimp2-cc-pvtz
SOLVENT_METHOD	PCM
PURECART	11111
SYMMETRY	false
MEM_TOTAL	110000
SCF_CONVERGENCE = 6
THRESH=10
GUI = 2
$end

$solvent
dielectric 4.90
$end
--------------------------------------------------------------

             Standard Nuclear Orientation (Angstroms)
    I     Atom           X                Y                Z
 ----------------------------------------------------------------
    1      C      -0.1743790000    -8.5197410000    -0.2088860000
    2      C       0.6500520000    -7.6359670000     0.4721510000
    3      S      -1.3770580000    -7.6517400000    -1.1937170000
    4      C       0.3531050000    -6.2618940000     0.2251250000
    5      H       1.4589610000    -7.9547380000     1.1415940000
    6      C      -0.7405830000    -6.0799850000    -0.6928110000
    7      C      -1.1955460000    -4.7983820000    -1.0397730000
    8      C       1.0232670000    -5.1535420000     0.8176340000
    9      C       0.5652620000    -3.8696260000     0.4737540000
   10      C      -0.5277450000    -3.6889270000    -0.4473500000
   11      O       2.0549170000    -5.4810750000     1.6444830000
   12      O      -2.2325920000    -4.4798710000    -1.8694240000
   13      C      -2.5654700000    -5.3560260000    -2.9394660000
   14      H      -3.2486080000    -4.7904960000    -3.6014050000
   15      H      -3.0948850000    -6.2685130000    -2.5878920000
   16      H      -1.6645390000    -5.6581870000    -3.5160520000
   17      C       2.5245640000    -4.5469990000     2.6088130000
   18      H       3.2115680000    -5.1075640000     3.2706610000
   19      H       1.6923420000    -4.1314730000     3.2166460000
   20      H       3.0902110000    -3.7120850000     2.1411840000
   21      C      -0.8234020000    -2.3143260000    -0.6903190000
   22      S       1.1949350000    -2.2954870000     0.9855110000
   23      C       0.0000000000    -1.4351800000     0.0000000000
   24      H      -1.6300240000    -1.9932110000    -1.3612860000
   25      C       0.0000000000     0.0000000000     0.0000000000
   26      S       0.0806150000     0.8958110000     1.5107320000
   27      C       0.2168420000     2.4652310000     0.7276290000
   28      C       0.0791270000     0.9047690000    -1.0646650000
   29      C       0.1986590000     2.2884060000    -0.6782870000
   30      C       0.0749880000     0.8384920000    -2.4861500000
   31      C       0.1850970000     2.0985240000    -3.1069160000
   32      S       0.2905010000     3.3415680000    -1.9657350000
   33      C       0.2119320000     2.3516230000    -4.5599720000
   34      O       0.1335450000     1.4214160000    -5.3502770000
   35      O       0.3269940000     3.6296490000    -5.0043750000
   36      F      -0.0182140000    -0.2717340000    -3.2462900000
   37      C       0.3683670000     3.9861010000    -6.3349760000
   38      H       0.4652700000     5.0868060000    -6.3702680000
   39      H      -0.5531400000     3.6758780000    -6.8756090000
   40      H       1.2298740000     3.5192630000    -6.8618780000
   41      H       0.2970910000     3.3817460000     1.3215100000
   42      H      -0.7447390000    -9.1464710000     0.4866550000
   43      H       0.3990330000    -9.1505700000    -0.8981840000
   44      H      -0.6876830000    -1.4441580000     0.8327130000
 ----------------------------------------------------------------

   11   -2755.3267539951      7.89e-07  Convergence criterion met
 Total energy in the final basis set =    -2755.3267539951
        RIMP2         total energy =     -2760.4164599886 a.u.

                    Orbital Energies (a.u.)
 --------------------------------------------------------------

 Alpha MOs
 -- Occupied --
-92.0170 -91.9942 -91.9804 -91.9583 -26.3364 -20.6123 -20.5877 -20.5869
-20.5501 -11.4104 -11.3786 -11.3174 -11.3092 -11.3084 -11.2971 -11.2970
-11.2925 -11.2886 -11.2852 -11.2841 -11.2831 -11.2822 -11.2800 -11.2733
-11.2731 -11.2588 -11.2586 -11.2498 -11.2375  -9.0155  -8.9983  -8.9826
 -8.9609  -6.6963  -6.6957  -6.6952  -6.6796  -6.6789  -6.6775  -6.6637
 -6.6628  -6.6615  -6.6422  -6.6412  -6.6402  -1.6493  -1.4720  -1.4110
 -1.4087  -1.3673  -1.2380  -1.2100  -1.1758  -1.1440  -1.0998  -1.0500
 -1.0467  -1.0304  -1.0092  -0.9986  -0.9723  -0.9598  -0.9490  -0.9405
 -0.8942  -0.8715  -0.8647  -0.8077  -0.7957  -0.7860  -0.7778  -0.7719
 -0.7653  -0.7330  -0.7219  -0.7172  -0.6978  -0.6924  -0.6825  -0.6787
 -0.6723  -0.6658  -0.6568  -0.6486  -0.6359  -0.6304  -0.6202  -0.6148
 -0.6108  -0.6065  -0.5950  -0.5928  -0.5808  -0.5677  -0.5590  -0.5518
 -0.5498  -0.5363  -0.5306  -0.5228  -0.5140  -0.5079  -0.5044  -0.5008
 -0.4869  -0.4848  -0.4792  -0.4720  -0.4622  -0.4614  -0.4603  -0.4463
 -0.4273  -0.4013  -0.3861  -0.3709  -0.3515  -0.2933  -0.2866  -0.2195

          Ground-State Mulliken Net Atomic Charges

     Atom                 Charge (a.u.)
  ----------------------------------------
      1 C                    -0.070234
      2 C                    -0.258267
      3 S                    -0.134519
      4 C                    -0.044800
      5 H                     0.193599
      6 C                    -0.051669
      7 C                     0.225884
      8 C                     0.226971
      9 C                    -0.077888
     10 C                    -0.059414
     11 O                    -0.334393
     12 O                    -0.343447
     13 C                    -0.082376
     14 H                     0.120547
     15 H                     0.091461
     16 H                     0.093376
     17 C                    -0.087308
     18 H                     0.123672
     19 H                     0.092207
     20 H                     0.090167
     21 C                    -0.249377
     22 S                    -0.073084
     23 C                     0.091960
     24 H                     0.206931
     25 C                    -0.121607
     26 S                     0.092280
     27 C                    -0.241901
     28 C                    -0.053683
     29 C                    -0.010328
     30 C                     0.392152
     31 C                    -0.151051
     32 S                     0.033507
     33 C                     0.460536
     34 O                    -0.451037
     35 O                    -0.297826
     36 F                    -0.213149
     37 C                    -0.055176
     38 H                     0.116646
     39 H                     0.084494
     40 H                     0.084630
     41 H                     0.215860
     42 H                     0.117432
     43 H                     0.115430
     44 H                     0.192790
  ----------------------------------------
  Sum of atomic charges =     0.000000

                    Cartesian Multipole Moments
 -----------------------------------------------------------------
    Charge (ESU x 10^10)
                -0.0000
    Dipole Moment (Debye)
         X       0.0151      Y       3.1365      Z       3.8208
       Tot       4.9434
    Quadrupole Moments (Debye-Ang)
        XX    -196.3966     XY      -1.6168     YY    -173.6133
        XZ       7.3462     YZ     -12.9659     ZZ    -192.9177

 Total job time:  356.78s(wall), 12587.67s(cpu)
        *  Thank you very much for using Q-Chem.  Have a nice day.  *
