 Q-Chem 5.4, Q-Chem, Inc., Pleasanton, CA (2021)
 Q-Chem 5.4.0 for Intel X86 EM64T Linux

User input:
--------------------------------------------------------------
$molecule
0 1
C	0.255929	-8.519741	-0.092419
C	-0.666007	-7.635967	0.449364
S	1.592708	-7.651740	-0.885736
C	-0.332317	-6.261894	0.254813
H	-1.571741	-7.954738	0.980526
C	0.904324	-6.079985	-0.458965
C	1.385968	-4.798382	-0.767823
C	-1.118303	-5.153542	0.681909
C	-0.638514	-3.869626	0.369139
C	0.600871	-3.688927	-0.342916
O	-2.248132	-5.481075	1.368544
O	2.520275	-4.479871	-1.458570
C	3.639637	-5.356026	-1.405396
H	4.495304	-4.790496	-1.820940
H	3.490336	-6.268513	-2.023129
H	3.873314	-5.658187	-0.361595
C	-3.314934	-4.546999	1.480048
H	-4.171837	-5.107564	1.899255
H	-3.601473	-4.131473	0.490123
H	-3.068969	-3.712085	2.171521
C	0.930308	-2.314326	-0.537642
S	-1.334769	-2.295487	0.785807
C	0.000000	-1.435180	0.000000
H	1.836691	-1.993211	-1.066134
C	0.000000	0.000000	0.000000
S	0.080615	0.895811	1.510732
C	0.216842	2.465231	0.727629
C	0.079127	0.904769	-1.064665
C	0.198659	2.288406	-0.678287
C	0.074988	0.838492	-2.486150
C	0.185097	2.098524	-3.106916
S	0.290501	3.341568	-1.965735
C	0.211932	2.351623	-4.559972
O	0.133545	1.421416	-5.350277
O	0.326994	3.629649	-5.004375
F	-0.018214	-0.271734	-3.246290
C	0.368367	3.986101	-6.334976
H	0.465270	5.086806	-6.370268
H	-0.553140	3.675878	-6.875609
H	1.229874	3.519263	-6.861878
H	0.297091	3.381746	1.321510
H	-0.202590	-9.146471	-0.866272
H	0.707539	-9.150570	0.682165
H	-0.547293	-1.444158	-0.931016
$end

$rem
JOBTYPE		SP
EXCHANGE	HF
CORRELATION	pRIMP2
BASIS		cc-pvtz
METHOD		rimp2
AUX_BASIS	rimp2-cc-pvtz
SOLVENT_METHOD	PCM
PURECART	11111
SYMMETRY	false
MEM_TOTAL	110000
SCF_CONVERGENCE = 6
THRESH=10
GUI = 2
$end

$solvent
dielectric 4.90
$end
--------------------------------------------------------------

             Standard Nuclear Orientation (Angstroms)
    I     Atom           X                Y                Z
 ----------------------------------------------------------------
    1      C       0.2559290000    -8.5197410000    -0.0924190000
    2      C      -0.6660070000    -7.6359670000     0.4493640000
    3      S       1.5927080000    -7.6517400000    -0.8857360000
    4      C      -0.3323170000    -6.2618940000     0.2548130000
    5      H      -1.5717410000    -7.9547380000     0.9805260000
    6      C       0.9043240000    -6.0799850000    -0.4589650000
    7      C       1.3859680000    -4.7983820000    -0.7678230000
    8      C      -1.1183030000    -5.1535420000     0.6819090000
    9      C      -0.6385140000    -3.8696260000     0.3691390000
   10      C       0.6008710000    -3.6889270000    -0.3429160000
   11      O      -2.2481320000    -5.4810750000     1.3685440000
   12      O       2.5202750000    -4.4798710000    -1.4585700000
   13      C       3.6396370000    -5.3560260000    -1.4053960000
   14      H       4.4953040000    -4.7904960000    -1.8209400000
   15      H       3.4903360000    -6.2685130000    -2.0231290000
   16      H       3.8733140000    -5.6581870000    -0.3615950000
   17      C      -3.3149340000    -4.5469990000     1.4800480000
   18      H      -4.1718370000    -5.1075640000     1.8992550000
   19      H      -3.6014730000    -4.1314730000     0.4901230000
   20      H      -3.0689690000    -3.7120850000     2.1715210000
   21      C       0.9303080000    -2.3143260000    -0.5376420000
   22      S      -1.3347690000    -2.2954870000     0.7858070000
   23      C       0.0000000000    -1.4351800000     0.0000000000
   24      H       1.8366910000    -1.9932110000    -1.0661340000
   25      C       0.0000000000     0.0000000000     0.0000000000
   26      S       0.0806150000     0.8958110000     1.5107320000
   27      C       0.2168420000     2.4652310000     0.7276290000
   28      C       0.0791270000     0.9047690000    -1.0646650000
   29      C       0.1986590000     2.2884060000    -0.6782870000
   30      C       0.0749880000     0.8384920000    -2.4861500000
   31      C       0.1850970000     2.0985240000    -3.1069160000
   32      S       0.2905010000     3.3415680000    -1.9657350000
   33      C       0.2119320000     2.3516230000    -4.5599720000
   34      O       0.1335450000     1.4214160000    -5.3502770000
   35      O       0.3269940000     3.6296490000    -5.0043750000
   36      F      -0.0182140000    -0.2717340000    -3.2462900000
   37      C       0.3683670000     3.9861010000    -6.3349760000
   38      H       0.4652700000     5.0868060000    -6.3702680000
   39      H      -0.5531400000     3.6758780000    -6.8756090000
   40      H       1.2298740000     3.5192630000    -6.8618780000
   41      H       0.2970910000     3.3817460000     1.3215100000
   42      H      -0.2025900000    -9.1464710000    -0.8662720000
   43      H       0.7075390000    -9.1505700000     0.6821650000
   44      H      -0.5472930000    -1.4441580000    -0.9310160000
 ----------------------------------------------------------------

   11   -2755.3286012479      7.27e-07  Convergence criterion met
 Total energy in the final basis set =    -2755.3286012479
        RIMP2         total energy =     -2760.4196737264 a.u.

                    Orbital Energies (a.u.)
 --------------------------------------------------------------

 Alpha MOs
 -- Occupied --
-92.0139 -91.9959 -91.9798 -91.9584 -26.3387 -20.6129 -20.5876 -20.5871
-20.5511 -11.4114 -11.3796 -11.3169 -11.3092 -11.3084 -11.2988 -11.2978
-11.2928 -11.2890 -11.2849 -11.2842 -11.2837 -11.2827 -11.2826 -11.2733
-11.2732 -11.2587 -11.2586 -11.2499 -11.2377  -9.0124  -8.9999  -8.9819
 -8.9610  -6.6932  -6.6926  -6.6921  -6.6812  -6.6805  -6.6792  -6.6630
 -6.6622  -6.6609  -6.6422  -6.6413  -6.6403  -1.6517  -1.4727  -1.4109
 -1.4089  -1.3681  -1.2390  -1.2094  -1.1756  -1.1435  -1.1005  -1.0517
 -1.0466  -1.0293  -1.0095  -0.9985  -0.9725  -0.9600  -0.9491  -0.9410
 -0.8941  -0.8743  -0.8628  -0.8086  -0.7944  -0.7859  -0.7792  -0.7722
 -0.7625  -0.7340  -0.7200  -0.7193  -0.6983  -0.6932  -0.6871  -0.6794
 -0.6762  -0.6731  -0.6560  -0.6487  -0.6347  -0.6278  -0.6203  -0.6150
 -0.6113  -0.6071  -0.5956  -0.5934  -0.5828  -0.5673  -0.5586  -0.5529
 -0.5475  -0.5357  -0.5298  -0.5228  -0.5130  -0.5078  -0.5038  -0.5023
 -0.4866  -0.4851  -0.4767  -0.4709  -0.4624  -0.4620  -0.4614  -0.4467
 -0.4254  -0.4027  -0.3861  -0.3705  -0.3505  -0.2932  -0.2882  -0.2203

          Ground-State Mulliken Net Atomic Charges

     Atom                 Charge (a.u.)
  ----------------------------------------
      1 C                    -0.070418
      2 C                    -0.256822
      3 S                    -0.134277
      4 C                    -0.045706
      5 H                     0.193650
      6 C                    -0.051942
      7 C                     0.223838
      8 C                     0.229775
      9 C                    -0.081043
     10 C                    -0.050051
     11 O                    -0.334765
     12 O                    -0.342904
     13 C                    -0.082598
     14 H                     0.120262
     15 H                     0.092119
     16 H                     0.092508
     17 C                    -0.086783
     18 H                     0.123486
     19 H                     0.093116
     20 H                     0.090073
     21 C                    -0.258615
     22 S                    -0.072083
     23 C                     0.073982
     24 H                     0.206800
     25 C                    -0.095707
     26 S                     0.100467
     27 C                    -0.240820
     28 C                    -0.085414
     29 C                    -0.007987
     30 C                     0.393344
     31 C                    -0.141607
     32 S                     0.038453
     33 C                     0.460603
     34 O                    -0.450152
     35 O                    -0.297676
     36 F                    -0.215449
     37 C                    -0.055182
     38 H                     0.116832
     39 H                     0.084789
     40 H                     0.084653
     41 H                     0.214758
     42 H                     0.117845
     43 H                     0.115313
     44 H                     0.191336
  ----------------------------------------
  Sum of atomic charges =     0.000000

                    Cartesian Multipole Moments
 -----------------------------------------------------------------
    Charge (ESU x 10^10)
                 0.0000
    Dipole Moment (Debye)
         X      -0.1227      Y       3.2211      Z       2.7355
       Tot       4.2277
    Quadrupole Moments (Debye-Ang)
        XX    -183.3897     XY       4.8790     YY    -172.9257
        XZ      -4.6206     YZ     -12.9652     ZZ    -205.6801

 Total job time:  328.31s(wall), 10654.30s(cpu)
        *  Thank you very much for using Q-Chem.  Have a nice day.  *
