 Q-Chem 5.4, Q-Chem, Inc., Pleasanton, CA (2021)
 Q-Chem 5.4.0 for Intel X86 EM64T Linux

User input:
--------------------------------------------------------------
$molecule
0 1
C	-0.235306	-8.519741	-0.136647
C	0.772334	-7.635967	0.221346
S	-1.702286	-7.651740	-0.650746
C	0.408807	-6.261894	0.090779
H	1.761423	-7.954738	0.573754
C	-0.932876	-6.079985	-0.397735
C	-1.479069	-4.798382	-0.568166
C	1.241204	-5.153542	0.418347
C	0.693206	-3.869626	0.251852
C	-0.648921	-3.688927	-0.239872
O	2.493437	-5.481075	0.842486
O	-2.737331	-4.479871	-0.993092
C	-3.416110	-5.356026	-1.884752
H	-4.284447	-4.790496	-2.273124
H	-3.793352	-6.268513	-1.373310
H	-2.766716	-5.658187	-2.734702
C	3.264581	-4.546999	1.588030
H	4.136519	-5.107564	1.974995
H	2.690439	-4.131473	2.443843
H	3.636177	-3.712085	0.955140
C	-1.009848	-2.314326	-0.367068
S	1.459936	-2.295487	0.517386
C	0.000000	-1.435180	0.000000
H	-1.997308	-1.993211	-0.721689
C	0.000000	0.000000	0.000000
S	0.080615	0.895811	1.510732
C	0.216842	2.465231	0.727629
C	0.079127	0.904769	-1.064665
C	0.198659	2.288406	-0.678287
C	0.074988	0.838492	-2.486150
C	0.185097	2.098524	-3.106916
S	0.290501	3.341568	-1.965735
C	0.211932	2.351623	-4.559972
O	0.133545	1.421416	-5.350277
O	0.326994	3.629649	-5.004375
F	-0.018214	-0.271734	-3.246290
C	0.368367	3.986101	-6.334976
H	0.465270	5.086806	-6.370268
H	-0.553140	3.675878	-6.875609
H	1.229874	3.519263	-6.861878
H	0.297091	3.381746	1.321510
H	-0.533380	-9.146471	0.712022
H	0.067771	-9.150570	-0.980494
H	-0.361406	-1.444158	1.017696
$end

$rem
JOBTYPE		SP
EXCHANGE	HF
CORRELATION	pRIMP2
BASIS		cc-pvtz
METHOD		rimp2
AUX_BASIS	rimp2-cc-pvtz
SOLVENT_METHOD	PCM
PURECART	11111
SYMMETRY	false
MEM_TOTAL	110000
SCF_CONVERGENCE = 6
THRESH=10
GUI = 2
$end

$solvent
dielectric 4.90
$end
--------------------------------------------------------------

             Standard Nuclear Orientation (Angstroms)
    I     Atom           X                Y                Z
 ----------------------------------------------------------------
    1      C      -0.2353060000    -8.5197410000    -0.1366470000
    2      C       0.7723340000    -7.6359670000     0.2213460000
    3      S      -1.7022860000    -7.6517400000    -0.6507460000
    4      C       0.4088070000    -6.2618940000     0.0907790000
    5      H       1.7614230000    -7.9547380000     0.5737540000
    6      C      -0.9328760000    -6.0799850000    -0.3977350000
    7      C      -1.4790690000    -4.7983820000    -0.5681660000
    8      C       1.2412040000    -5.1535420000     0.4183470000
    9      C       0.6932060000    -3.8696260000     0.2518520000
   10      C      -0.6489210000    -3.6889270000    -0.2398720000
   11      O       2.4934370000    -5.4810750000     0.8424860000
   12      O      -2.7373310000    -4.4798710000    -0.9930920000
   13      C      -3.4161100000    -5.3560260000    -1.8847520000
   14      H      -4.2844470000    -4.7904960000    -2.2731240000
   15      H      -3.7933520000    -6.2685130000    -1.3733100000
   16      H      -2.7667160000    -5.6581870000    -2.7347020000
   17      C       3.2645810000    -4.5469990000     1.5880300000
   18      H       4.1365190000    -5.1075640000     1.9749950000
   19      H       2.6904390000    -4.1314730000     2.4438430000
   20      H       3.6361770000    -3.7120850000     0.9551400000
   21      C      -1.0098480000    -2.3143260000    -0.3670680000
   22      S       1.4599360000    -2.2954870000     0.5173860000
   23      C       0.0000000000    -1.4351800000     0.0000000000
   24      H      -1.9973080000    -1.9932110000    -0.7216890000
   25      C       0.0000000000     0.0000000000     0.0000000000
   26      S       0.0806150000     0.8958110000     1.5107320000
   27      C       0.2168420000     2.4652310000     0.7276290000
   28      C       0.0791270000     0.9047690000    -1.0646650000
   29      C       0.1986590000     2.2884060000    -0.6782870000
   30      C       0.0749880000     0.8384920000    -2.4861500000
   31      C       0.1850970000     2.0985240000    -3.1069160000
   32      S       0.2905010000     3.3415680000    -1.9657350000
   33      C       0.2119320000     2.3516230000    -4.5599720000
   34      O       0.1335450000     1.4214160000    -5.3502770000
   35      O       0.3269940000     3.6296490000    -5.0043750000
   36      F      -0.0182140000    -0.2717340000    -3.2462900000
   37      C       0.3683670000     3.9861010000    -6.3349760000
   38      H       0.4652700000     5.0868060000    -6.3702680000
   39      H      -0.5531400000     3.6758780000    -6.8756090000
   40      H       1.2298740000     3.5192630000    -6.8618780000
   41      H       0.2970910000     3.3817460000     1.3215100000
   42      H      -0.5333800000    -9.1464710000     0.7120220000
   43      H       0.0677710000    -9.1505700000    -0.9804940000
   44      H      -0.3614060000    -1.4441580000     1.0176960000
 ----------------------------------------------------------------

   11   -2755.3265832832      7.62e-07  Convergence criterion met
 Total energy in the final basis set =    -2755.3265832832
        RIMP2         total energy =     -2760.4165426721 a.u.

                    Orbital Energies (a.u.)
 --------------------------------------------------------------

 Alpha MOs
 -- Occupied --
-92.0190 -91.9954 -91.9780 -91.9579 -26.3357 -20.6128 -20.5868 -20.5868
-20.5510 -11.4112 -11.3779 -11.3127 -11.3088 -11.3071 -11.2989 -11.2976
-11.2960 -11.2888 -11.2845 -11.2831 -11.2823 -11.2812 -11.2810 -11.2727
-11.2726 -11.2581 -11.2577 -11.2494 -11.2366  -9.0173  -8.9995  -8.9803
 -8.9605  -6.6981  -6.6975  -6.6970  -6.6807  -6.6801  -6.6787  -6.6614
 -6.6605  -6.6592  -6.6417  -6.6408  -6.6398  -1.6485  -1.4725  -1.4103
 -1.4086  -1.3679  -1.2379  -1.2091  -1.1752  -1.1441  -1.0992  -1.0501
 -1.0458  -1.0311  -1.0086  -0.9977  -0.9727  -0.9596  -0.9485  -0.9404
 -0.8933  -0.8715  -0.8647  -0.8079  -0.7945  -0.7850  -0.7781  -0.7735
 -0.7653  -0.7331  -0.7215  -0.7167  -0.6973  -0.6924  -0.6816  -0.6791
 -0.6726  -0.6644  -0.6562  -0.6483  -0.6326  -0.6307  -0.6198  -0.6145
 -0.6109  -0.6071  -0.5956  -0.5926  -0.5821  -0.5659  -0.5587  -0.5531
 -0.5493  -0.5357  -0.5288  -0.5227  -0.5132  -0.5074  -0.5036  -0.5011
 -0.4878  -0.4858  -0.4782  -0.4708  -0.4623  -0.4618  -0.4608  -0.4460
 -0.4241  -0.4027  -0.3852  -0.3703  -0.3512  -0.2926  -0.2883  -0.2205

          Ground-State Mulliken Net Atomic Charges

     Atom                 Charge (a.u.)
  ----------------------------------------
      1 C                    -0.070201
      2 C                    -0.260240
      3 S                    -0.135407
      4 C                    -0.043903
      5 H                     0.193260
      6 C                    -0.051929
      7 C                     0.227471
      8 C                     0.225583
      9 C                    -0.079337
     10 C                    -0.060181
     11 O                    -0.334840
     12 O                    -0.343611
     13 C                    -0.082367
     14 H                     0.120057
     15 H                     0.091481
     16 H                     0.093452
     17 C                    -0.086710
     18 H                     0.123148
     19 H                     0.091736
     20 H                     0.090470
     21 C                    -0.239587
     22 S                    -0.071229
     23 C                     0.066812
     24 H                     0.205427
     25 C                    -0.101339
     26 S                     0.102195
     27 C                    -0.238729
     28 C                    -0.069092
     29 C                    -0.004406
     30 C                     0.391708
     31 C                    -0.153774
     32 S                     0.038161
     33 C                     0.460224
     34 O                    -0.449081
     35 O                    -0.297598
     36 F                    -0.212608
     37 C                    -0.055152
     38 H                     0.116708
     39 H                     0.084697
     40 H                     0.084795
     41 H                     0.216675
     42 H                     0.117089
     43 H                     0.115051
     44 H                     0.185121
  ----------------------------------------
  Sum of atomic charges =     0.000000

                    Cartesian Multipole Moments
 -----------------------------------------------------------------
    Charge (ESU x 10^10)
                -0.0000
    Dipole Moment (Debye)
         X       0.2332      Y       3.7200      Z       3.7725
       Tot       5.3032
    Quadrupole Moments (Debye-Ang)
        XX    -190.1842     XY      -2.0563     YY    -174.6588
        XZ       8.0854     YZ     -11.9429     ZZ    -198.7079

 Total job time:  331.84s(wall), 10686.63s(cpu)
        *  Thank you very much for using Q-Chem.  Have a nice day.  *
