 Q-Chem 5.4, Q-Chem, Inc., Pleasanton, CA (2021)
 Q-Chem 5.4.0 for Intel X86 EM64T Linux

User input:
--------------------------------------------------------------
$molecule
0 1
C	-0.174379	-8.519741	-0.208886
C	0.650052	-7.635967	0.472151
S	-1.377058	-7.651740	-1.193717
C	0.353105	-6.261894	0.225125
H	1.458961	-7.954738	1.141594
C	-0.740583	-6.079985	-0.692811
C	-1.195546	-4.798382	-1.039773
C	1.023267	-5.153542	0.817634
C	0.565262	-3.869626	0.473754
C	-0.527745	-3.688927	-0.447350
O	2.054917	-5.481075	1.644483
O	-2.232592	-4.479871	-1.869424
C	-2.565470	-5.356026	-2.939466
H	-3.248608	-4.790496	-3.601405
H	-3.094885	-6.268513	-2.587892
H	-1.664539	-5.658187	-3.516052
C	2.524564	-4.546999	2.608813
H	3.211568	-5.107564	3.270661
H	1.692342	-4.131473	3.216646
H	3.090211	-3.712085	2.141184
C	-0.823402	-2.314326	-0.690319
S	1.194935	-2.295487	0.985511
C	0.000000	-1.435180	0.000000
H	-1.630024	-1.993211	-1.361286
C	0.000000	0.000000	0.000000
S	0.780044	0.447780	1.510732
C	2.143774	1.236372	0.727629
C	0.786529	0.454137	-1.064665
C	1.988499	1.149844	-0.678287
C	0.729864	0.419512	-2.486150
C	1.825177	1.052041	-3.106916
S	2.903877	1.678680	-1.965735
C	2.047896	1.175232	-4.559972
O	1.240953	0.705897	-5.350277
O	3.160791	1.814024	-5.004375
F	-0.233039	-0.140940	-3.246290
C	3.476510	1.984585	-6.334976
H	4.433735	2.536545	-6.370268
H	2.693835	2.561503	-6.875609
H	3.588239	1.011113	-6.861878
H	2.940569	1.696327	1.321510
H	-0.744739	-9.146471	0.486655
H	0.399033	-9.150570	-0.898184
H	-0.687683	-1.444158	0.832713
$end

$rem
JOBTYPE		SP
EXCHANGE	HF
CORRELATION	pRIMP2
BASIS		cc-pvtz
METHOD		rimp2
AUX_BASIS	rimp2-cc-pvtz
SOLVENT_METHOD	PCM
PURECART	11111
SYMMETRY	false
MEM_TOTAL	110000
SCF_CONVERGENCE = 6
THRESH=10
GUI = 2
$end

$solvent
dielectric 4.90
$end
--------------------------------------------------------------

             Standard Nuclear Orientation (Angstroms)
    I     Atom           X                Y                Z
 ----------------------------------------------------------------
    1      C      -0.1743790000    -8.5197410000    -0.2088860000
    2      C       0.6500520000    -7.6359670000     0.4721510000
    3      S      -1.3770580000    -7.6517400000    -1.1937170000
    4      C       0.3531050000    -6.2618940000     0.2251250000
    5      H       1.4589610000    -7.9547380000     1.1415940000
    6      C      -0.7405830000    -6.0799850000    -0.6928110000
    7      C      -1.1955460000    -4.7983820000    -1.0397730000
    8      C       1.0232670000    -5.1535420000     0.8176340000
    9      C       0.5652620000    -3.8696260000     0.4737540000
   10      C      -0.5277450000    -3.6889270000    -0.4473500000
   11      O       2.0549170000    -5.4810750000     1.6444830000
   12      O      -2.2325920000    -4.4798710000    -1.8694240000
   13      C      -2.5654700000    -5.3560260000    -2.9394660000
   14      H      -3.2486080000    -4.7904960000    -3.6014050000
   15      H      -3.0948850000    -6.2685130000    -2.5878920000
   16      H      -1.6645390000    -5.6581870000    -3.5160520000
   17      C       2.5245640000    -4.5469990000     2.6088130000
   18      H       3.2115680000    -5.1075640000     3.2706610000
   19      H       1.6923420000    -4.1314730000     3.2166460000
   20      H       3.0902110000    -3.7120850000     2.1411840000
   21      C      -0.8234020000    -2.3143260000    -0.6903190000
   22      S       1.1949350000    -2.2954870000     0.9855110000
   23      C       0.0000000000    -1.4351800000     0.0000000000
   24      H      -1.6300240000    -1.9932110000    -1.3612860000
   25      C       0.0000000000     0.0000000000     0.0000000000
   26      S       0.7800440000     0.4477800000     1.5107320000
   27      C       2.1437740000     1.2363720000     0.7276290000
   28      C       0.7865290000     0.4541370000    -1.0646650000
   29      C       1.9884990000     1.1498440000    -0.6782870000
   30      C       0.7298640000     0.4195120000    -2.4861500000
   31      C       1.8251770000     1.0520410000    -3.1069160000
   32      S       2.9038770000     1.6786800000    -1.9657350000
   33      C       2.0478960000     1.1752320000    -4.5599720000
   34      O       1.2409530000     0.7058970000    -5.3502770000
   35      O       3.1607910000     1.8140240000    -5.0043750000
   36      F      -0.2330390000    -0.1409400000    -3.2462900000
   37      C       3.4765100000     1.9845850000    -6.3349760000
   38      H       4.4337350000     2.5365450000    -6.3702680000
   39      H       2.6938350000     2.5615030000    -6.8756090000
   40      H       3.5882390000     1.0111130000    -6.8618780000
   41      H       2.9405690000     1.6963270000     1.3215100000
   42      H      -0.7447390000    -9.1464710000     0.4866550000
   43      H       0.3990330000    -9.1505700000    -0.8981840000
   44      H      -0.6876830000    -1.4441580000     0.8327130000
 ----------------------------------------------------------------

   11   -2755.2503692754      7.84e-07  Convergence criterion met
 Total energy in the final basis set =    -2755.2503692754
        RIMP2         total energy =     -2760.3632339137 a.u.

                    Orbital Energies (a.u.)
 --------------------------------------------------------------

 Alpha MOs
 -- Occupied --
-92.0174 -92.0077 -91.9702 -91.9539 -26.3361 -20.6169 -20.5845 -20.5826
-20.5586 -11.4177 -11.3767 -11.3297 -11.3147 -11.3060 -11.3019 -11.2991
-11.2935 -11.2910 -11.2825 -11.2804 -11.2767 -11.2713 -11.2699 -11.2693
-11.2668 -11.2539 -11.2492 -11.2452 -11.2271  -9.0171  -9.0112  -8.9729
 -8.9565  -6.6976  -6.6967  -6.6967  -6.6923  -6.6917  -6.6905  -6.6539
 -6.6530  -6.6516  -6.6378  -6.6369  -6.6358  -1.6493  -1.4772  -1.4068
 -1.4055  -1.3736  -1.2490  -1.2064  -1.1729  -1.1468  -1.0953  -1.0558
 -1.0424  -1.0352  -1.0055  -0.9939  -0.9771  -0.9597  -0.9454  -0.9384
 -0.8912  -0.8776  -0.8572  -0.8076  -0.7991  -0.7846  -0.7777  -0.7713
 -0.7603  -0.7331  -0.7204  -0.7185  -0.6976  -0.6933  -0.6826  -0.6796
 -0.6781  -0.6648  -0.6532  -0.6458  -0.6347  -0.6276  -0.6158  -0.6129
 -0.6120  -0.6105  -0.6046  -0.5900  -0.5724  -0.5639  -0.5575  -0.5528
 -0.5393  -0.5368  -0.5300  -0.5225  -0.5140  -0.5071  -0.5050  -0.4979
 -0.4899  -0.4820  -0.4761  -0.4682  -0.4658  -0.4642  -0.4487  -0.4419
 -0.4227  -0.3920  -0.3825  -0.3644  -0.3478  -0.3038  -0.2838  -0.2127

          Ground-State Mulliken Net Atomic Charges

     Atom                 Charge (a.u.)
  ----------------------------------------
      1 C                    -0.068621
      2 C                    -0.287093
      3 S                    -0.144177
      4 C                    -0.039114
      5 H                     0.189612
      6 C                    -0.055641
      7 C                     0.224825
      8 C                     0.214198
      9 C                    -0.081754
     10 C                    -0.051589
     11 O                    -0.336872
     12 O                    -0.343175
     13 C                    -0.082208
     14 H                     0.119714
     15 H                     0.091328
     16 H                     0.092511
     17 C                    -0.086673
     18 H                     0.122377
     19 H                     0.089890
     20 H                     0.088231
     21 C                    -0.286128
     22 S                    -0.092335
     23 C                     0.033003
     24 H                     0.206540
     25 C                    -0.197324
     26 S                     0.118698
     27 C                    -0.142691
     28 C                     0.025126
     29 C                    -0.030462
     30 C                     0.356766
     31 C                    -0.111888
     32 S                     0.075120
     33 C                     0.457701
     34 O                    -0.436523
     35 O                    -0.296166
     36 F                    -0.211074
     37 C                    -0.054770
     38 H                     0.117764
     39 H                     0.085912
     40 H                     0.086139
     41 H                     0.223640
     42 H                     0.113452
     43 H                     0.111208
     44 H                     0.192524
  ----------------------------------------
  Sum of atomic charges =     0.000000

                    Cartesian Multipole Moments
 -----------------------------------------------------------------
    Charge (ESU x 10^10)
                -0.0000
    Dipole Moment (Debye)
         X       4.9704      Y       5.2224      Z       2.9572
       Tot       7.7926
    Quadrupole Moments (Debye-Ang)
        XX    -180.8625     XY       7.4952     YY    -201.0127
        XZ      -3.2999     YZ      -7.9572     ZZ    -187.8264

 Total job time:  331.77s(wall), 10759.40s(cpu)
        *  Thank you very much for using Q-Chem.  Have a nice day.  *
