 Q-Chem 5.4, Q-Chem, Inc., Pleasanton, CA (2021)
 Q-Chem 5.4.0 for Intel X86 EM64T Linux

User input:
--------------------------------------------------------------
$molecule
0 1
C	-0.093711	-8.519741	0.255459
C	0.083869	-7.635967	-0.799036
S	-0.345260	-7.651740	1.789425
C	0.018411	-6.261894	-0.418360
H	0.259169	-7.954738	-1.834294
C	-0.229701	-6.079985	0.987769
C	-0.302697	-4.798382	1.555260
C	0.196459	-5.153542	-1.294992
C	0.127651	-3.869626	-0.726408
C	-0.123544	-3.688927	0.680716
O	0.396706	-5.481075	-2.601852
O	-0.502673	-4.479871	2.868193
C	-1.262918	-5.356026	3.691495
H	-1.494604	-4.790496	4.614080
H	-0.693738	-6.268513	3.974195
H	-2.212720	-5.658187	3.199559
C	0.997016	-4.546999	-3.490743
H	1.226691	-5.107564	-4.416630
H	1.939526	-4.131473	-3.073934
H	0.309214	-3.712085	-3.746794
C	-0.186133	-2.314326	1.058247
S	0.256010	-2.295487	-1.527599
C	-0.000000	-1.435180	-0.000000
H	-0.363896	-1.993211	2.092285
C	0.000000	0.000000	0.000000
S	0.382139	0.814215	1.510732
C	1.046923	2.242395	0.727629
C	0.383804	0.823142	-1.064665
C	0.969360	2.082453	-0.678287
C	0.357247	0.762277	-2.486150
C	0.891671	1.908660	-3.106916
S	1.415865	3.040689	-1.965735
C	1.003453	2.137318	-4.559972
O	0.611644	1.290019	-5.350277
O	1.548687	3.298916	-5.004375
F	-0.110054	-0.249117	-3.246290
C	1.709479	3.619721	-6.334976
H	2.177001	4.620902	-6.370268
H	0.737443	3.643380	-6.875609
H	2.359363	2.886384	-6.861878
H	1.435800	3.076190	1.321510
H	0.793825	-9.146471	0.401636
H	-0.977367	-9.150570	0.103519
H	1.064992	-1.444158	0.179195
$end

$rem
JOBTYPE		SP
EXCHANGE	HF
CORRELATION	pRIMP2
BASIS		cc-pvtz
METHOD		rimp2
AUX_BASIS	rimp2-cc-pvtz
SOLVENT_METHOD	PCM
PURECART	11111
SYMMETRY	false
MEM_TOTAL	110000
SCF_CONVERGENCE = 6
THRESH=10
GUI = 2
$end

$solvent
dielectric 4.90
$end
--------------------------------------------------------------

             Standard Nuclear Orientation (Angstroms)
    I     Atom           X                Y                Z
 ----------------------------------------------------------------
    1      C      -0.0937110000    -8.5197410000     0.2554590000
    2      C       0.0838690000    -7.6359670000    -0.7990360000
    3      S      -0.3452600000    -7.6517400000     1.7894250000
    4      C       0.0184110000    -6.2618940000    -0.4183600000
    5      H       0.2591690000    -7.9547380000    -1.8342940000
    6      C      -0.2297010000    -6.0799850000     0.9877690000
    7      C      -0.3026970000    -4.7983820000     1.5552600000
    8      C       0.1964590000    -5.1535420000    -1.2949920000
    9      C       0.1276510000    -3.8696260000    -0.7264080000
   10      C      -0.1235440000    -3.6889270000     0.6807160000
   11      O       0.3967060000    -5.4810750000    -2.6018520000
   12      O      -0.5026730000    -4.4798710000     2.8681930000
   13      C      -1.2629180000    -5.3560260000     3.6914950000
   14      H      -1.4946040000    -4.7904960000     4.6140800000
   15      H      -0.6937380000    -6.2685130000     3.9741950000
   16      H      -2.2127200000    -5.6581870000     3.1995590000
   17      C       0.9970160000    -4.5469990000    -3.4907430000
   18      H       1.2266910000    -5.1075640000    -4.4166300000
   19      H       1.9395260000    -4.1314730000    -3.0739340000
   20      H       0.3092140000    -3.7120850000    -3.7467940000
   21      C      -0.1861330000    -2.3143260000     1.0582470000
   22      S       0.2560100000    -2.2954870000    -1.5275990000
   23      C       0.0000000000    -1.4351800000     0.0000000000
   24      H      -0.3638960000    -1.9932110000     2.0922850000
   25      C       0.0000000000     0.0000000000     0.0000000000
   26      S       0.3821390000     0.8142150000     1.5107320000
   27      C       1.0469230000     2.2423950000     0.7276290000
   28      C       0.3838040000     0.8231420000    -1.0646650000
   29      C       0.9693600000     2.0824530000    -0.6782870000
   30      C       0.3572470000     0.7622770000    -2.4861500000
   31      C       0.8916710000     1.9086600000    -3.1069160000
   32      S       1.4158650000     3.0406890000    -1.9657350000
   33      C       1.0034530000     2.1373180000    -4.5599720000
   34      O       0.6116440000     1.2900190000    -5.3502770000
   35      O       1.5486870000     3.2989160000    -5.0043750000
   36      F      -0.1100540000    -0.2491170000    -3.2462900000
   37      C       1.7094790000     3.6197210000    -6.3349760000
   38      H       2.1770010000     4.6209020000    -6.3702680000
   39      H       0.7374430000     3.6433800000    -6.8756090000
   40      H       2.3593630000     2.8863840000    -6.8618780000
   41      H       1.4358000000     3.0761900000     1.3215100000
   42      H       0.7938250000    -9.1464710000     0.4016360000
   43      H      -0.9773670000    -9.1505700000     0.1035190000
   44      H       1.0649920000    -1.4441580000     0.1791950000
 ----------------------------------------------------------------

   11   -2755.3130069901      6.45e-07  Convergence criterion met
 Total energy in the final basis set =    -2755.3130069901
        RIMP2         total energy =     -2760.4078928368 a.u.

                    Orbital Energies (a.u.)
 --------------------------------------------------------------

 Alpha MOs
 -- Occupied --
-92.0112 -91.9918 -91.9758 -91.9613 -26.3351 -20.6107 -20.5888 -20.5882
-20.5472 -11.4080 -11.3791 -11.3236 -11.3116 -11.3098 -11.2965 -11.2920
-11.2879 -11.2867 -11.2850 -11.2843 -11.2838 -11.2822 -11.2772 -11.2766
-11.2697 -11.2634 -11.2605 -11.2528 -11.2444  -9.0102  -8.9959  -8.9785
 -8.9638  -6.6911  -6.6904  -6.6899  -6.6772  -6.6766  -6.6752  -6.6594
 -6.6586  -6.6572  -6.6450  -6.6441  -6.6431  -1.6506  -1.4702  -1.4121
 -1.4101  -1.3652  -1.2396  -1.2096  -1.1788  -1.1438  -1.1003  -1.0512
 -1.0472  -1.0299  -1.0080  -1.0003  -0.9714  -0.9601  -0.9501  -0.9405
 -0.8953  -0.8714  -0.8630  -0.8129  -0.7957  -0.7861  -0.7763  -0.7661
 -0.7634  -0.7339  -0.7216  -0.7172  -0.6979  -0.6958  -0.6843  -0.6775
 -0.6729  -0.6718  -0.6568  -0.6495  -0.6379  -0.6295  -0.6229  -0.6161
 -0.6111  -0.6046  -0.5973  -0.5920  -0.5770  -0.5680  -0.5644  -0.5597
 -0.5486  -0.5336  -0.5288  -0.5210  -0.5138  -0.5090  -0.5046  -0.5001
 -0.4840  -0.4829  -0.4796  -0.4654  -0.4610  -0.4603  -0.4587  -0.4488
 -0.4306  -0.4010  -0.3842  -0.3733  -0.3511  -0.2941  -0.2832  -0.2189

          Ground-State Mulliken Net Atomic Charges

     Atom                 Charge (a.u.)
  ----------------------------------------
      1 C                    -0.071446
      2 C                    -0.237856
      3 S                    -0.128879
      4 C                    -0.053679
      5 H                     0.196584
      6 C                    -0.045546
      7 C                     0.215739
      8 C                     0.235323
      9 C                    -0.079748
     10 C                    -0.013667
     11 O                    -0.333977
     12 O                    -0.343773
     13 C                    -0.082713
     14 H                     0.120221
     15 H                     0.091891
     16 H                     0.093133
     17 C                    -0.089895
     18 H                     0.124760
     19 H                     0.092678
     20 H                     0.093708
     21 C                    -0.343568
     22 S                    -0.092652
     23 C                     0.123846
     24 H                     0.198319
     25 C                     0.049150
     26 S                     0.077232
     27 C                    -0.265471
     28 C                    -0.165713
     29 C                    -0.014190
     30 C                     0.364341
     31 C                    -0.143168
     32 S                     0.034476
     33 C                     0.458249
     34 O                    -0.455423
     35 O                    -0.298846
     36 F                    -0.207122
     37 C                    -0.054934
     38 H                     0.116354
     39 H                     0.084144
     40 H                     0.083797
     41 H                     0.214093
     42 H                     0.120449
     43 H                     0.118291
     44 H                     0.215490
  ----------------------------------------
  Sum of atomic charges =     0.000000

                    Cartesian Multipole Moments
 -----------------------------------------------------------------
    Charge (ESU x 10^10)
                 0.0000
    Dipole Moment (Debye)
         X       1.8454      Y       0.8442      Z       3.0144
       Tot       3.6338
    Quadrupole Moments (Debye-Ang)
        XX    -194.7193     XY       4.7406     YY    -166.8708
        XZ     -12.1922     YZ      -4.2578     ZZ    -193.1069

 Total job time:  331.48s(wall), 10341.29s(cpu)
        *  Thank you very much for using Q-Chem.  Have a nice day.  *
