 Q-Chem 5.4, Q-Chem, Inc., Pleasanton, CA (2021)
 Q-Chem 5.4.0 for Intel X86 EM64T Linux

User input:
--------------------------------------------------------------
$molecule
0 1
C	-0.272104	-8.519741	-0.000687
C	0.779533	-7.635967	-0.194476
S	-1.799596	-7.651740	0.287581
C	0.399427	-6.261894	-0.125787
H	1.812314	-7.954738	-0.383826
C	-1.006762	-6.079985	0.121989
C	-1.564994	-4.798382	0.247488
C	1.284087	-5.153542	-0.258303
C	0.726260	-3.869626	-0.128493
C	-0.681918	-3.688927	0.116725
O	2.580622	-5.481075	-0.517104
O	-2.867144	-4.479871	0.508622
C	-3.900814	-5.356026	0.075811
H	-4.847002	-4.790496	0.173640
H	-3.971794	-6.268513	0.707354
H	-3.763397	-5.658187	-0.984963
C	3.621225	-4.546999	-0.257016
H	4.569828	-5.107564	-0.357864
H	3.551910	-4.131473	0.771211
H	3.626592	-3.712085	-0.990913
C	-1.058088	-2.314326	0.187034
S	1.523035	-2.295487	-0.281899
C	0.000000	-1.435180	0.000000
H	-2.090565	-1.993211	0.373653
C	0.000000	0.000000	0.000000
S	0.234946	0.868203	1.510732
C	0.641630	2.390125	0.727629
C	0.235036	0.877284	-1.064665
C	0.593019	2.219143	-0.678287
C	0.219452	0.812732	-2.486150
C	0.546689	2.034501	-3.106916
S	0.866345	3.240357	-1.965735
C	0.617067	2.279095	-4.559972
O	0.378342	1.376631	-5.350277
O	0.952308	3.517725	-5.004375
F	-0.065123	-0.264443	-3.246290
C	1.054950	3.861577	-6.334976
H	1.341516	4.928732	-6.370268
H	0.093573	3.716085	-6.875609
H	1.822303	3.252232	-6.861878
H	0.879812	3.278780	1.321510
H	-0.105910	-9.146471	0.883319
H	-0.431555	-9.150570	-0.883019
H	0.195861	-1.444158	1.062054
$end

$rem
JOBTYPE		SP
EXCHANGE	HF
CORRELATION	pRIMP2
BASIS		cc-pvtz
METHOD		rimp2
AUX_BASIS	rimp2-cc-pvtz
SOLVENT_METHOD	PCM
PURECART	11111
SYMMETRY	false
MEM_TOTAL	110000
SCF_CONVERGENCE = 6
THRESH=10
GUI = 2
$end

$solvent
dielectric 4.90
$end
--------------------------------------------------------------

             Standard Nuclear Orientation (Angstroms)
    I     Atom           X                Y                Z
 ----------------------------------------------------------------
    1      C      -0.2721040000    -8.5197410000    -0.0006870000
    2      C       0.7795330000    -7.6359670000    -0.1944760000
    3      S      -1.7995960000    -7.6517400000     0.2875810000
    4      C       0.3994270000    -6.2618940000    -0.1257870000
    5      H       1.8123140000    -7.9547380000    -0.3838260000
    6      C      -1.0067620000    -6.0799850000     0.1219890000
    7      C      -1.5649940000    -4.7983820000     0.2474880000
    8      C       1.2840870000    -5.1535420000    -0.2583030000
    9      C       0.7262600000    -3.8696260000    -0.1284930000
   10      C      -0.6819180000    -3.6889270000     0.1167250000
   11      O       2.5806220000    -5.4810750000    -0.5171040000
   12      O      -2.8671440000    -4.4798710000     0.5086220000
   13      C      -3.9008140000    -5.3560260000     0.0758110000
   14      H      -4.8470020000    -4.7904960000     0.1736400000
   15      H      -3.9717940000    -6.2685130000     0.7073540000
   16      H      -3.7633970000    -5.6581870000    -0.9849630000
   17      C       3.6212250000    -4.5469990000    -0.2570160000
   18      H       4.5698280000    -5.1075640000    -0.3578640000
   19      H       3.5519100000    -4.1314730000     0.7712110000
   20      H       3.6265920000    -3.7120850000    -0.9909130000
   21      C      -1.0580880000    -2.3143260000     0.1870340000
   22      S       1.5230350000    -2.2954870000    -0.2818990000
   23      C       0.0000000000    -1.4351800000     0.0000000000
   24      H      -2.0905650000    -1.9932110000     0.3736530000
   25      C       0.0000000000     0.0000000000     0.0000000000
   26      S       0.2349460000     0.8682030000     1.5107320000
   27      C       0.6416300000     2.3901250000     0.7276290000
   28      C       0.2350360000     0.8772840000    -1.0646650000
   29      C       0.5930190000     2.2191430000    -0.6782870000
   30      C       0.2194520000     0.8127320000    -2.4861500000
   31      C       0.5466890000     2.0345010000    -3.1069160000
   32      S       0.8663450000     3.2403570000    -1.9657350000
   33      C       0.6170670000     2.2790950000    -4.5599720000
   34      O       0.3783420000     1.3766310000    -5.3502770000
   35      O       0.9523080000     3.5177250000    -5.0043750000
   36      F      -0.0651230000    -0.2644430000    -3.2462900000
   37      C       1.0549500000     3.8615770000    -6.3349760000
   38      H       1.3415160000     4.9287320000    -6.3702680000
   39      H       0.0935730000     3.7160850000    -6.8756090000
   40      H       1.8223030000     3.2522320000    -6.8618780000
   41      H       0.8798120000     3.2787800000     1.3215100000
   42      H      -0.1059100000    -9.1464710000     0.8833190000
   43      H      -0.4315550000    -9.1505700000    -0.8830190000
   44      H       0.1958610000    -1.4441580000     1.0620540000
 ----------------------------------------------------------------

   11   -2755.3225325715      7.55e-07  Convergence criterion met
 Total energy in the final basis set =    -2755.3225325715
        RIMP2         total energy =     -2760.4136671519 a.u.

                    Orbital Energies (a.u.)
 --------------------------------------------------------------

 Alpha MOs
 -- Occupied --
-92.0190 -91.9961 -91.9778 -91.9575 -26.3352 -20.6130 -20.5869 -20.5864
-20.5514 -11.4115 -11.3777 -11.3101 -11.3087 -11.3066 -11.2999 -11.2985
-11.2973 -11.2889 -11.2841 -11.2826 -11.2825 -11.2820 -11.2804 -11.2721
-11.2720 -11.2577 -11.2565 -11.2490 -11.2358  -9.0174  -9.0001  -8.9799
 -8.9601  -6.6981  -6.6975  -6.6970  -6.6814  -6.6807  -6.6794  -6.6610
 -6.6601  -6.6588  -6.6414  -6.6404  -6.6394  -1.6480  -1.4727  -1.4099
 -1.4086  -1.3682  -1.2385  -1.2087  -1.1749  -1.1442  -1.0988  -1.0505
 -1.0452  -1.0316  -1.0081  -0.9971  -0.9729  -0.9595  -0.9482  -0.9404
 -0.8929  -0.8717  -0.8642  -0.8090  -0.7931  -0.7847  -0.7766  -0.7747
 -0.7651  -0.7331  -0.7212  -0.7163  -0.6968  -0.6925  -0.6813  -0.6792
 -0.6727  -0.6642  -0.6559  -0.6482  -0.6334  -0.6291  -0.6194  -0.6145
 -0.6110  -0.6074  -0.5962  -0.5925  -0.5821  -0.5640  -0.5603  -0.5557
 -0.5485  -0.5350  -0.5280  -0.5217  -0.5125  -0.5071  -0.5036  -0.5013
 -0.4876  -0.4858  -0.4768  -0.4700  -0.4624  -0.4619  -0.4608  -0.4460
 -0.4229  -0.4030  -0.3851  -0.3698  -0.3510  -0.2927  -0.2890  -0.2203

          Ground-State Mulliken Net Atomic Charges

     Atom                 Charge (a.u.)
  ----------------------------------------
      1 C                    -0.070031
      2 C                    -0.262151
      3 S                    -0.136970
      4 C                    -0.043062
      5 H                     0.193101
      6 C                    -0.052956
      7 C                     0.227274
      8 C                     0.223724
      9 C                    -0.073932
     10 C                    -0.047144
     11 O                    -0.334826
     12 O                    -0.343463
     13 C                    -0.082468
     14 H                     0.119771
     15 H                     0.091787
     16 H                     0.093329
     17 C                    -0.086771
     18 H                     0.123128
     19 H                     0.091710
     20 H                     0.090893
     21 C                    -0.266118
     22 S                    -0.071421
     23 C                     0.060876
     24 H                     0.202934
     25 C                    -0.050123
     26 S                     0.102260
     27 C                    -0.235272
     28 C                    -0.114550
     29 C                     0.002556
     30 C                     0.390422
     31 C                    -0.154110
     32 S                     0.042049
     33 C                     0.459962
     34 O                    -0.447694
     35 O                    -0.297602
     36 F                    -0.211613
     37 C                    -0.054993
     38 H                     0.116689
     39 H                     0.084849
     40 H                     0.084824
     41 H                     0.216812
     42 H                     0.116828
     43 H                     0.114799
     44 H                     0.186697
  ----------------------------------------
  Sum of atomic charges =     0.000000

                    Cartesian Multipole Moments
 -----------------------------------------------------------------
    Charge (ESU x 10^10)
                -0.0000
    Dipole Moment (Debye)
         X       1.2144      Y       3.9355      Z       3.6625
       Tot       5.5116
    Quadrupole Moments (Debye-Ang)
        XX    -182.3722     XY       0.4043     YY    -176.6509
        XZ      -0.1495     YZ      -9.8143     ZZ    -205.1967

 Total job time:  325.22s(wall), 10465.23s(cpu)
        *  Thank you very much for using Q-Chem.  Have a nice day.  *
