 Q-Chem 5.4, Q-Chem, Inc., Pleasanton, CA (2021)
 Q-Chem 5.4.0 for Intel X86 EM64T Linux

User input:
--------------------------------------------------------------
$molecule
0 1
C	0.267851	-8.519741	0.047927
C	-0.801461	-7.635967	0.056157
S	1.822194	-7.651740	0.029285
C	-0.415201	-6.261894	0.054516
H	-1.851431	-7.954738	0.063290
C	1.012650	-6.079985	0.054687
C	1.584194	-4.798382	0.028030
C	-1.309433	-5.153542	0.031399
C	-0.737539	-3.869626	0.000427
C	0.691828	-3.688927	0.003462
O	-2.631211	-5.481075	0.061128
O	2.911907	-4.479871	-0.003021
C	3.854716	-5.356026	0.602710
H	4.803517	-4.790496	0.670671
H	4.034285	-6.268513	-0.006913
H	3.535185	-5.658187	1.623507
C	-3.610841	-4.546999	-0.375708
H	-4.562544	-5.107564	-0.441115
H	-3.364029	-4.131473	-1.376277
H	-3.743566	-3.712085	0.346107
C	1.074491	-2.314326	-0.000458
S	-1.548848	-2.295487	0.013144
C	-0.000000	-1.435180	-0.000000
H	2.123688	-1.993211	-0.004953
C	0.000000	0.000000	0.000000
S	0.451648	0.777811	1.510732
C	1.238377	2.142617	0.727629
C	0.454085	0.786559	-1.064665
C	1.147169	1.990043	-0.678287
C	0.422325	0.728240	-2.486150
C	1.054629	1.823683	-3.106916
S	1.675491	2.905718	-1.965735
C	1.185914	2.041729	-4.559972
O	0.721749	1.231802	-5.350277
O	1.830313	3.151386	-5.004375
F	-0.131347	-0.238577	-3.246290
C	2.018453	3.456956	-6.334976
H	2.571455	4.413580	-6.370268
H	1.052178	3.565244	-6.875609
H	2.601950	2.669768	-6.861878
H	1.698444	2.939346	1.321510
H	0.257688	-9.146471	-0.851509
H	0.271664	-9.150570	0.944542
H	-0.008462	-1.444158	-1.079930
$end

$rem
JOBTYPE		SP
EXCHANGE	HF
CORRELATION	pRIMP2
BASIS		cc-pvtz
METHOD		rimp2
AUX_BASIS	rimp2-cc-pvtz
SOLVENT_METHOD	PCM
PURECART	11111
SYMMETRY	false
MEM_TOTAL	110000
SCF_CONVERGENCE = 6
THRESH=10
GUI = 2
$end

$solvent
dielectric 4.90
$end
--------------------------------------------------------------

             Standard Nuclear Orientation (Angstroms)
    I     Atom           X                Y                Z
 ----------------------------------------------------------------
    1      C       0.2678510000    -8.5197410000     0.0479270000
    2      C      -0.8014610000    -7.6359670000     0.0561570000
    3      S       1.8221940000    -7.6517400000     0.0292850000
    4      C      -0.4152010000    -6.2618940000     0.0545160000
    5      H      -1.8514310000    -7.9547380000     0.0632900000
    6      C       1.0126500000    -6.0799850000     0.0546870000
    7      C       1.5841940000    -4.7983820000     0.0280300000
    8      C      -1.3094330000    -5.1535420000     0.0313990000
    9      C      -0.7375390000    -3.8696260000     0.0004270000
   10      C       0.6918280000    -3.6889270000     0.0034620000
   11      O      -2.6312110000    -5.4810750000     0.0611280000
   12      O       2.9119070000    -4.4798710000    -0.0030210000
   13      C       3.8547160000    -5.3560260000     0.6027100000
   14      H       4.8035170000    -4.7904960000     0.6706710000
   15      H       4.0342850000    -6.2685130000    -0.0069130000
   16      H       3.5351850000    -5.6581870000     1.6235070000
   17      C      -3.6108410000    -4.5469990000    -0.3757080000
   18      H      -4.5625440000    -5.1075640000    -0.4411150000
   19      H      -3.3640290000    -4.1314730000    -1.3762770000
   20      H      -3.7435660000    -3.7120850000     0.3461070000
   21      C       1.0744910000    -2.3143260000    -0.0004580000
   22      S      -1.5488480000    -2.2954870000     0.0131440000
   23      C       0.0000000000    -1.4351800000     0.0000000000
   24      H       2.1236880000    -1.9932110000    -0.0049530000
   25      C       0.0000000000     0.0000000000     0.0000000000
   26      S       0.4516480000     0.7778110000     1.5107320000
   27      C       1.2383770000     2.1426170000     0.7276290000
   28      C       0.4540850000     0.7865590000    -1.0646650000
   29      C       1.1471690000     1.9900430000    -0.6782870000
   30      C       0.4223250000     0.7282400000    -2.4861500000
   31      C       1.0546290000     1.8236830000    -3.1069160000
   32      S       1.6754910000     2.9057180000    -1.9657350000
   33      C       1.1859140000     2.0417290000    -4.5599720000
   34      O       0.7217490000     1.2318020000    -5.3502770000
   35      O       1.8303130000     3.1513860000    -5.0043750000
   36      F      -0.1313470000    -0.2385770000    -3.2462900000
   37      C       2.0184530000     3.4569560000    -6.3349760000
   38      H       2.5714550000     4.4135800000    -6.3702680000
   39      H       1.0521780000     3.5652440000    -6.8756090000
   40      H       2.6019500000     2.6697680000    -6.8618780000
   41      H       1.6984440000     2.9393460000     1.3215100000
   42      H       0.2576880000    -9.1464710000    -0.8515090000
   43      H       0.2716640000    -9.1505700000     0.9445420000
   44      H      -0.0084620000    -1.4441580000    -1.0799300000
 ----------------------------------------------------------------

   11   -2755.3130546555      6.62e-07  Convergence criterion met
 Total energy in the final basis set =    -2755.3130546555
        RIMP2         total energy =     -2760.4097193256 a.u.

                    Orbital Energies (a.u.)
 --------------------------------------------------------------

 Alpha MOs
 -- Occupied --
-92.0129 -91.9998 -91.9731 -91.9575 -26.3390 -20.6147 -20.5868 -20.5854
-20.5541 -11.4140 -11.3794 -11.3084 -11.3050 -11.3050 -11.3047 -11.3029
-11.2988 -11.2899 -11.2895 -11.2831 -11.2826 -11.2810 -11.2776 -11.2722
-11.2716 -11.2572 -11.2569 -11.2489 -11.2354  -9.0117  -9.0037  -8.9754
 -8.9602  -6.6924  -6.6917  -6.6914  -6.6849  -6.6843  -6.6829  -6.6565
 -6.6556  -6.6544  -6.6414  -6.6405  -6.6394  -1.6521  -1.4746  -1.4092
 -1.4081  -1.3704  -1.2416  -1.2070  -1.1744  -1.1444  -1.0991  -1.0534
 -1.0446  -1.0309  -1.0076  -0.9962  -0.9740  -0.9589  -0.9481  -0.9410
 -0.8919  -0.8755  -0.8612  -0.8096  -0.7950  -0.7840  -0.7817  -0.7704
 -0.7614  -0.7333  -0.7206  -0.7191  -0.6974  -0.6922  -0.6874  -0.6808
 -0.6764  -0.6746  -0.6545  -0.6478  -0.6313  -0.6271  -0.6193  -0.6144
 -0.6104  -0.6092  -0.5988  -0.5942  -0.5818  -0.5652  -0.5567  -0.5544
 -0.5496  -0.5318  -0.5274  -0.5221  -0.5121  -0.5068  -0.5036  -0.5004
 -0.4888  -0.4854  -0.4744  -0.4677  -0.4644  -0.4633  -0.4588  -0.4449
 -0.4204  -0.4038  -0.3838  -0.3691  -0.3499  -0.2959  -0.2880  -0.2197

          Ground-State Mulliken Net Atomic Charges

     Atom                 Charge (a.u.)
  ----------------------------------------
      1 C                    -0.069969
      2 C                    -0.263168
      3 S                    -0.136522
      4 C                    -0.044013
      5 H                     0.193114
      6 C                    -0.052656
      7 C                     0.224223
      8 C                     0.226842
      9 C                    -0.082677
     10 C                    -0.040497
     11 O                    -0.335736
     12 O                    -0.343546
     13 C                    -0.082355
     14 H                     0.119616
     15 H                     0.091986
     16 H                     0.092519
     17 C                    -0.086223
     18 H                     0.122393
     19 H                     0.092589
     20 H                     0.089818
     21 C                    -0.268257
     22 S                    -0.077768
     23 C                     0.050629
     24 H                     0.207134
     25 C                    -0.067739
     26 S                     0.100552
     27 C                    -0.211176
     28 C                    -0.100584
     29 C                    -0.003140
     30 C                     0.355333
     31 C                    -0.125004
     32 S                     0.053166
     33 C                     0.457935
     34 O                    -0.444770
     35 O                    -0.297129
     36 F                    -0.212219
     37 C                    -0.054955
     38 H                     0.117234
     39 H                     0.085233
     40 H                     0.085259
     41 H                     0.216593
     42 H                     0.116970
     43 H                     0.114390
     44 H                     0.186575
  ----------------------------------------
  Sum of atomic charges =     0.000000

                    Cartesian Multipole Moments
 -----------------------------------------------------------------
    Charge (ESU x 10^10)
                -0.0000
    Dipole Moment (Debye)
         X       2.1397      Y       4.1144      Z       2.3015
       Tot       5.1773
    Quadrupole Moments (Debye-Ang)
        XX    -180.8528     XY      11.0835     YY    -179.3060
        XZ      -0.3228     YZ     -10.2386     ZZ    -202.7268

 Total job time:  326.20s(wall), 10534.78s(cpu)
        *  Thank you very much for using Q-Chem.  Have a nice day.  *
