 Q-Chem 5.4, Q-Chem, Inc., Pleasanton, CA (2021)
 Q-Chem 5.4.0 for Intel X86 EM64T Linux

User input:
--------------------------------------------------------------
$molecule
0 1
C	0.092419	-8.519741	0.255929
C	-0.449364	-7.635967	-0.666007
S	0.885736	-7.651740	1.592708
C	-0.254813	-6.261894	-0.332317
H	-0.980526	-7.954738	-1.571741
C	0.458965	-6.079985	0.904324
C	0.767823	-4.798382	1.385968
C	-0.681909	-5.153542	-1.118303
C	-0.369139	-3.869626	-0.638514
C	0.342916	-3.688927	0.600871
O	-1.368544	-5.481075	-2.248132
O	1.458570	-4.479871	2.520275
C	1.405396	-5.356026	3.639637
H	1.820940	-4.790496	4.495304
H	2.023129	-6.268513	3.490336
H	0.361595	-5.658187	3.873314
C	-1.480048	-4.546999	-3.314934
H	-1.899255	-5.107564	-4.171837
H	-0.490123	-4.131473	-3.601473
H	-2.171521	-3.712085	-3.068969
C	0.537642	-2.314326	0.930308
S	-0.785807	-2.295487	-1.334769
C	-0.000000	-1.435180	-0.000000
H	1.066134	-1.993211	1.836691
C	0.000000	0.000000	0.000000
S	0.158383	0.885376	1.510732
C	0.430876	2.436951	0.727629
C	0.157682	0.894430	-1.064665
C	0.397351	2.262384	-0.678287
C	0.147783	0.828765	-2.486150
C	0.367291	2.074406	-3.106916
S	0.580633	3.303533	-1.965735
C	0.416083	2.324204	-4.559972
O	0.256921	1.404367	-5.350277
O	0.642094	3.587338	-5.004375
F	-0.041828	-0.269113	-3.246290
C	0.714377	3.938827	-6.334976
H	0.906844	5.026898	-6.370268
H	-0.230661	3.710099	-6.875609
H	1.531918	3.398681	-6.861878
H	0.590699	3.342984	1.321510
H	0.866272	-9.146471	-0.202590
H	-0.682165	-9.150570	0.707539
H	0.931016	-1.444158	-0.547293
$end

$rem
JOBTYPE		SP
EXCHANGE	HF
CORRELATION	pRIMP2
BASIS		cc-pvtz
METHOD		rimp2
AUX_BASIS	rimp2-cc-pvtz
SOLVENT_METHOD	PCM
PURECART	11111
SYMMETRY	false
MEM_TOTAL	110000
SCF_CONVERGENCE = 6
THRESH=10
GUI = 2
$end

$solvent
dielectric 4.90
$end
--------------------------------------------------------------

             Standard Nuclear Orientation (Angstroms)
    I     Atom           X                Y                Z
 ----------------------------------------------------------------
    1      C       0.0924190000    -8.5197410000     0.2559290000
    2      C      -0.4493640000    -7.6359670000    -0.6660070000
    3      S       0.8857360000    -7.6517400000     1.5927080000
    4      C      -0.2548130000    -6.2618940000    -0.3323170000
    5      H      -0.9805260000    -7.9547380000    -1.5717410000
    6      C       0.4589650000    -6.0799850000     0.9043240000
    7      C       0.7678230000    -4.7983820000     1.3859680000
    8      C      -0.6819090000    -5.1535420000    -1.1183030000
    9      C      -0.3691390000    -3.8696260000    -0.6385140000
   10      C       0.3429160000    -3.6889270000     0.6008710000
   11      O      -1.3685440000    -5.4810750000    -2.2481320000
   12      O       1.4585700000    -4.4798710000     2.5202750000
   13      C       1.4053960000    -5.3560260000     3.6396370000
   14      H       1.8209400000    -4.7904960000     4.4953040000
   15      H       2.0231290000    -6.2685130000     3.4903360000
   16      H       0.3615950000    -5.6581870000     3.8733140000
   17      C      -1.4800480000    -4.5469990000    -3.3149340000
   18      H      -1.8992550000    -5.1075640000    -4.1718370000
   19      H      -0.4901230000    -4.1314730000    -3.6014730000
   20      H      -2.1715210000    -3.7120850000    -3.0689690000
   21      C       0.5376420000    -2.3143260000     0.9303080000
   22      S      -0.7858070000    -2.2954870000    -1.3347690000
   23      C       0.0000000000    -1.4351800000     0.0000000000
   24      H       1.0661340000    -1.9932110000     1.8366910000
   25      C       0.0000000000     0.0000000000     0.0000000000
   26      S       0.1583830000     0.8853760000     1.5107320000
   27      C       0.4308760000     2.4369510000     0.7276290000
   28      C       0.1576820000     0.8944300000    -1.0646650000
   29      C       0.3973510000     2.2623840000    -0.6782870000
   30      C       0.1477830000     0.8287650000    -2.4861500000
   31      C       0.3672910000     2.0744060000    -3.1069160000
   32      S       0.5806330000     3.3035330000    -1.9657350000
   33      C       0.4160830000     2.3242040000    -4.5599720000
   34      O       0.2569210000     1.4043670000    -5.3502770000
   35      O       0.6420940000     3.5873380000    -5.0043750000
   36      F      -0.0418280000    -0.2691130000    -3.2462900000
   37      C       0.7143770000     3.9388270000    -6.3349760000
   38      H       0.9068440000     5.0268980000    -6.3702680000
   39      H      -0.2306610000     3.7100990000    -6.8756090000
   40      H       1.5319180000     3.3986810000    -6.8618780000
   41      H       0.5906990000     3.3429840000     1.3215100000
   42      H       0.8662720000    -9.1464710000    -0.2025900000
   43      H      -0.6821650000    -9.1505700000     0.7075390000
   44      H       0.9310160000    -1.4441580000    -0.5472930000
 ----------------------------------------------------------------

   11   -2755.3232251669      7.08e-07  Convergence criterion met
 Total energy in the final basis set =    -2755.3232251669
        RIMP2         total energy =     -2760.4155461308 a.u.

                    Orbital Energies (a.u.)
 --------------------------------------------------------------

 Alpha MOs
 -- Occupied --
-92.0152 -91.9931 -91.9765 -91.9601 -26.3349 -20.6111 -20.5880 -20.5875
-20.5479 -11.4086 -11.3788 -11.3243 -11.3098 -11.3092 -11.2972 -11.2929
-11.2881 -11.2858 -11.2843 -11.2839 -11.2836 -11.2833 -11.2773 -11.2757
-11.2724 -11.2618 -11.2595 -11.2514 -11.2408  -9.0136  -8.9972  -8.9791
 -8.9626  -6.6944  -6.6938  -6.6933  -6.6785  -6.6778  -6.6764  -6.6602
 -6.6593  -6.6579  -6.6439  -6.6429  -6.6419  -1.6494  -1.4707  -1.4111
 -1.4098  -1.3657  -1.2383  -1.2097  -1.1772  -1.1431  -1.1006  -1.0507
 -1.0469  -1.0288  -1.0086  -0.9996  -0.9714  -0.9600  -0.9492  -0.9405
 -0.8945  -0.8731  -0.8627  -0.8122  -0.7931  -0.7861  -0.7776  -0.7666
 -0.7621  -0.7339  -0.7191  -0.7172  -0.6981  -0.6941  -0.6855  -0.6778
 -0.6755  -0.6715  -0.6562  -0.6491  -0.6354  -0.6301  -0.6216  -0.6155
 -0.6107  -0.6050  -0.5964  -0.5917  -0.5791  -0.5666  -0.5617  -0.5588
 -0.5501  -0.5323  -0.5283  -0.5209  -0.5137  -0.5086  -0.5045  -0.4998
 -0.4861  -0.4830  -0.4802  -0.4683  -0.4612  -0.4607  -0.4594  -0.4473
 -0.4310  -0.3993  -0.3849  -0.3716  -0.3509  -0.2928  -0.2846  -0.2189

          Ground-State Mulliken Net Atomic Charges

     Atom                 Charge (a.u.)
  ----------------------------------------
      1 C                    -0.070784
      2 C                    -0.247779
      3 S                    -0.131469
      4 C                    -0.048007
      5 H                     0.195156
      6 C                    -0.049486
      7 C                     0.221473
      8 C                     0.232761
      9 C                    -0.085215
     10 C                    -0.044605
     11 O                    -0.334983
     12 O                    -0.344051
     13 C                    -0.082496
     14 H                     0.120099
     15 H                     0.091995
     16 H                     0.092936
     17 C                    -0.087619
     18 H                     0.123688
     19 H                     0.094094
     20 H                     0.090116
     21 C                    -0.286699
     22 S                    -0.068195
     23 C                     0.089566
     24 H                     0.202595
     25 C                    -0.029957
     26 S                     0.088769
     27 C                    -0.261993
     28 C                    -0.115343
     29 C                    -0.008066
     30 C                     0.387905
     31 C                    -0.150100
     32 S                     0.032977
     33 C                     0.459747
     34 O                    -0.454947
     35 O                    -0.298541
     36 F                    -0.208987
     37 C                    -0.055100
     38 H                     0.116387
     39 H                     0.084134
     40 H                     0.084007
     41 H                     0.213707
     42 H                     0.119139
     43 H                     0.116731
     44 H                     0.206438
  ----------------------------------------
  Sum of atomic charges =     0.000000

                    Cartesian Multipole Moments
 -----------------------------------------------------------------
    Charge (ESU x 10^10)
                -0.0000
    Dipole Moment (Debye)
         X       0.9346      Y       1.8430      Z       2.7400
       Tot       3.4319
    Quadrupole Moments (Debye-Ang)
        XX    -200.4445     XY       4.5394     YY    -169.9438
        XZ       1.8470     YZ      -6.1253     ZZ    -189.3749

 Total job time:  329.71s(wall), 10506.54s(cpu)
        *  Thank you very much for using Q-Chem.  Have a nice day.  *
