 Q-Chem 5.4, Q-Chem, Inc., Pleasanton, CA (2021)
 Q-Chem 5.4.0 for Intel X86 EM64T Linux

User input:
--------------------------------------------------------------
$molecule
0 1
C	0.267851	-8.519741	0.047927
C	-0.801461	-7.635967	0.056157
S	1.822194	-7.651740	0.029285
C	-0.415201	-6.261894	0.054516
H	-1.851431	-7.954738	0.063290
C	1.012650	-6.079985	0.054687
C	1.584194	-4.798382	0.028030
C	-1.309433	-5.153542	0.031399
C	-0.737539	-3.869626	0.000427
C	0.691828	-3.688927	0.003462
O	-2.631211	-5.481075	0.061128
O	2.911907	-4.479871	-0.003021
C	3.854716	-5.356026	0.602710
H	4.803517	-4.790496	0.670671
H	4.034285	-6.268513	-0.006913
H	3.535185	-5.658187	1.623507
C	-3.610841	-4.546999	-0.375708
H	-4.562544	-5.107564	-0.441115
H	-3.364029	-4.131473	-1.376277
H	-3.743566	-3.712085	0.346107
C	1.074491	-2.314326	-0.000458
S	-1.548848	-2.295487	0.013144
C	0.000000	-1.435180	0.000000
H	2.123688	-1.993211	-0.004953
C	0.000000	0.000000	0.000000
S	0.080615	0.895811	1.510732
C	0.216842	2.465231	0.727629
C	0.079127	0.904769	-1.064665
C	0.198659	2.288406	-0.678287
C	0.074988	0.838492	-2.486150
C	0.185097	2.098524	-3.106916
S	0.290501	3.341568	-1.965735
C	0.211932	2.351623	-4.559972
O	0.133545	1.421416	-5.350277
O	0.326994	3.629649	-5.004375
F	-0.018214	-0.271734	-3.246290
C	0.368367	3.986101	-6.334976
H	0.465270	5.086806	-6.370268
H	-0.553140	3.675878	-6.875609
H	1.229874	3.519263	-6.861878
H	0.297091	3.381746	1.321510
H	0.257688	-9.146471	-0.851509
H	0.271664	-9.150570	0.944542
H	-0.008462	-1.444158	-1.079930
$end

$rem
JOBTYPE		SP
EXCHANGE	HF
CORRELATION	pRIMP2
BASIS		cc-pvtz
METHOD		rimp2
AUX_BASIS	rimp2-cc-pvtz
SOLVENT_METHOD	PCM
PURECART	11111
SYMMETRY	false
MEM_TOTAL	110000
SCF_CONVERGENCE = 6
THRESH=10
GUI = 2
$end

$solvent
dielectric 4.90
$end
--------------------------------------------------------------

             Standard Nuclear Orientation (Angstroms)
    I     Atom           X                Y                Z
 ----------------------------------------------------------------
    1      C       0.2678510000    -8.5197410000     0.0479270000
    2      C      -0.8014610000    -7.6359670000     0.0561570000
    3      S       1.8221940000    -7.6517400000     0.0292850000
    4      C      -0.4152010000    -6.2618940000     0.0545160000
    5      H      -1.8514310000    -7.9547380000     0.0632900000
    6      C       1.0126500000    -6.0799850000     0.0546870000
    7      C       1.5841940000    -4.7983820000     0.0280300000
    8      C      -1.3094330000    -5.1535420000     0.0313990000
    9      C      -0.7375390000    -3.8696260000     0.0004270000
   10      C       0.6918280000    -3.6889270000     0.0034620000
   11      O      -2.6312110000    -5.4810750000     0.0611280000
   12      O       2.9119070000    -4.4798710000    -0.0030210000
   13      C       3.8547160000    -5.3560260000     0.6027100000
   14      H       4.8035170000    -4.7904960000     0.6706710000
   15      H       4.0342850000    -6.2685130000    -0.0069130000
   16      H       3.5351850000    -5.6581870000     1.6235070000
   17      C      -3.6108410000    -4.5469990000    -0.3757080000
   18      H      -4.5625440000    -5.1075640000    -0.4411150000
   19      H      -3.3640290000    -4.1314730000    -1.3762770000
   20      H      -3.7435660000    -3.7120850000     0.3461070000
   21      C       1.0744910000    -2.3143260000    -0.0004580000
   22      S      -1.5488480000    -2.2954870000     0.0131440000
   23      C       0.0000000000    -1.4351800000     0.0000000000
   24      H       2.1236880000    -1.9932110000    -0.0049530000
   25      C       0.0000000000     0.0000000000     0.0000000000
   26      S       0.0806150000     0.8958110000     1.5107320000
   27      C       0.2168420000     2.4652310000     0.7276290000
   28      C       0.0791270000     0.9047690000    -1.0646650000
   29      C       0.1986590000     2.2884060000    -0.6782870000
   30      C       0.0749880000     0.8384920000    -2.4861500000
   31      C       0.1850970000     2.0985240000    -3.1069160000
   32      S       0.2905010000     3.3415680000    -1.9657350000
   33      C       0.2119320000     2.3516230000    -4.5599720000
   34      O       0.1335450000     1.4214160000    -5.3502770000
   35      O       0.3269940000     3.6296490000    -5.0043750000
   36      F      -0.0182140000    -0.2717340000    -3.2462900000
   37      C       0.3683670000     3.9861010000    -6.3349760000
   38      H       0.4652700000     5.0868060000    -6.3702680000
   39      H      -0.5531400000     3.6758780000    -6.8756090000
   40      H       1.2298740000     3.5192630000    -6.8618780000
   41      H       0.2970910000     3.3817460000     1.3215100000
   42      H       0.2576880000    -9.1464710000    -0.8515090000
   43      H       0.2716640000    -9.1505700000     0.9445420000
   44      H      -0.0084620000    -1.4441580000    -1.0799300000
 ----------------------------------------------------------------

   11   -2755.3290128417      6.91e-07  Convergence criterion met
 Total energy in the final basis set =    -2755.3290128417
        RIMP2         total energy =     -2760.4200763902 a.u.

                    Orbital Energies (a.u.)
 --------------------------------------------------------------

 Alpha MOs
 -- Occupied --
-92.0129 -91.9969 -91.9771 -91.9580 -26.3391 -20.6136 -20.5870 -20.5866
-20.5523 -11.4124 -11.3797 -11.3127 -11.3089 -11.3069 -11.3012 -11.2979
-11.2966 -11.2894 -11.2869 -11.2840 -11.2827 -11.2826 -11.2803 -11.2728
-11.2724 -11.2580 -11.2578 -11.2495 -11.2367  -9.0115  -9.0009  -8.9793
 -8.9606  -6.6922  -6.6916  -6.6912  -6.6822  -6.6815  -6.6802  -6.6604
 -6.6595  -6.6582  -6.6419  -6.6410  -6.6399  -1.6523  -1.4735  -1.4100
 -1.4087  -1.3690  -1.2392  -1.2083  -1.1749  -1.1435  -1.0999  -1.0522
 -1.0456  -1.0297  -1.0089  -0.9974  -0.9729  -0.9595  -0.9485  -0.9409
 -0.8930  -0.8746  -0.8629  -0.8096  -0.7941  -0.7849  -0.7813  -0.7704
 -0.7627  -0.7338  -0.7202  -0.7196  -0.6977  -0.6922  -0.6876  -0.6799
 -0.6762  -0.6740  -0.6552  -0.6483  -0.6317  -0.6284  -0.6199  -0.6147
 -0.6109  -0.6079  -0.5966  -0.5930  -0.5839  -0.5654  -0.5577  -0.5542
 -0.5491  -0.5332  -0.5287  -0.5222  -0.5128  -0.5074  -0.5030  -0.5011
 -0.4875  -0.4855  -0.4771  -0.4694  -0.4632  -0.4626  -0.4603  -0.4459
 -0.4219  -0.4048  -0.3853  -0.3699  -0.3500  -0.2928  -0.2893  -0.2209

          Ground-State Mulliken Net Atomic Charges

     Atom                 Charge (a.u.)
  ----------------------------------------
      1 C                    -0.070165
      2 C                    -0.259136
      3 S                    -0.135437
      4 C                    -0.044413
      5 H                     0.193532
      6 C                    -0.052475
      7 C                     0.227008
      8 C                     0.228685
      9 C                    -0.083196
     10 C                    -0.062520
     11 O                    -0.335138
     12 O                    -0.343249
     13 C                    -0.082437
     14 H                     0.119929
     15 H                     0.091991
     16 H                     0.092511
     17 C                    -0.086578
     18 H                     0.122795
     19 H                     0.093134
     20 H                     0.089962
     21 C                    -0.232430
     22 S                    -0.069669
     23 C                     0.053508
     24 H                     0.205268
     25 C                    -0.095464
     26 S                     0.098820
     27 C                    -0.229840
     28 C                    -0.080155
     29 C                    -0.008196
     30 C                     0.377516
     31 C                    -0.129131
     32 S                     0.041401
     33 C                     0.459438
     34 O                    -0.448060
     35 O                    -0.297277
     36 F                    -0.214845
     37 C                    -0.055189
     38 H                     0.117034
     39 H                     0.084978
     40 H                     0.084868
     41 H                     0.215292
     42 H                     0.117428
     43 H                     0.114885
     44 H                     0.185017
  ----------------------------------------
  Sum of atomic charges =     0.000000

                    Cartesian Multipole Moments
 -----------------------------------------------------------------
    Charge (ESU x 10^10)
                -0.0000
    Dipole Moment (Debye)
         X       0.2143      Y       3.7677      Z       2.4696
       Tot       4.5100
    Quadrupole Moments (Debye-Ang)
        XX    -184.8455     XY       5.2454     YY    -174.0237
        XZ       4.6659     YZ     -11.3320     ZZ    -203.8165

 Total job time:  331.20s(wall), 10929.99s(cpu)
        *  Thank you very much for using Q-Chem.  Have a nice day.  *
