 Q-Chem 5.4, Q-Chem, Inc., Pleasanton, CA (2021)
 Q-Chem 5.4.0 for Intel X86 EM64T Linux

User input:
--------------------------------------------------------------
$molecule
0 1
C	0.135457	-8.519741	0.235993
C	-0.558188	-7.635967	-0.577858
S	1.148850	-7.651740	1.414705
C	-0.308648	-6.261894	-0.283020
H	-1.238560	-7.954738	-1.377597
C	0.609026	-6.079985	0.810887
C	0.996828	-4.798382	1.231581
C	-0.865740	-5.153542	-0.982901
C	-0.474408	-3.869626	-0.564713
C	0.442046	-3.688927	0.532196
O	-1.738137	-5.481075	-1.976332
O	1.874052	-4.479871	2.228709
C	2.016062	-5.356026	3.340298
H	2.573877	-4.790496	4.110807
H	2.598484	-6.268513	3.085998
H	1.028695	-5.658187	3.751679
C	-2.033195	-4.546999	-3.007565
H	-2.594833	-5.107564	-3.778655
H	-1.108067	-4.131473	-3.461650
H	-2.671451	-3.712085	-2.645264
C	0.691020	-2.314326	0.822814
S	-1.005649	-2.295487	-1.178037
C	0.000000	-1.435180	0.000000
H	1.368875	-1.993211	1.623656
C	0.000000	0.000000	0.000000
S	0.309721	0.844422	1.510732
C	0.847502	2.325108	0.727629
C	0.310602	0.853460	-1.064665
C	0.784173	2.159014	-0.678287
C	0.289451	0.790512	-2.486150
C	0.721927	1.979112	-3.106916
S	1.145464	3.152519	-1.965735
C	0.813355	2.216642	-4.559972
O	0.496884	1.338418	-5.350277
O	1.255274	3.421340	-5.004375
F	-0.087923	-0.257761	-3.246290
C	1.387494	3.754937	-6.334976
H	1.765978	4.793056	-6.370268
H	0.417095	3.693789	-6.875609
H	2.098820	3.081033	-6.861878
H	1.162229	3.189623	1.321510
H	0.817932	-9.146471	-0.349939
H	-0.548939	-9.150570	0.815247
H	0.821835	-1.444158	-0.700647
$end

$rem
JOBTYPE		SP
EXCHANGE	HF
CORRELATION	pRIMP2
BASIS		cc-pvtz
METHOD		rimp2
AUX_BASIS	rimp2-cc-pvtz
SOLVENT_METHOD	PCM
PURECART	11111
SYMMETRY	false
MEM_TOTAL	110000
SCF_CONVERGENCE = 6
THRESH=10
GUI = 2
$end

$solvent
dielectric 4.90
$end
--------------------------------------------------------------

             Standard Nuclear Orientation (Angstroms)
    I     Atom           X                Y                Z
 ----------------------------------------------------------------
    1      C       0.1354570000    -8.5197410000     0.2359930000
    2      C      -0.5581880000    -7.6359670000    -0.5778580000
    3      S       1.1488500000    -7.6517400000     1.4147050000
    4      C      -0.3086480000    -6.2618940000    -0.2830200000
    5      H      -1.2385600000    -7.9547380000    -1.3775970000
    6      C       0.6090260000    -6.0799850000     0.8108870000
    7      C       0.9968280000    -4.7983820000     1.2315810000
    8      C      -0.8657400000    -5.1535420000    -0.9829010000
    9      C      -0.4744080000    -3.8696260000    -0.5647130000
   10      C       0.4420460000    -3.6889270000     0.5321960000
   11      O      -1.7381370000    -5.4810750000    -1.9763320000
   12      O       1.8740520000    -4.4798710000     2.2287090000
   13      C       2.0160620000    -5.3560260000     3.3402980000
   14      H       2.5738770000    -4.7904960000     4.1108070000
   15      H       2.5984840000    -6.2685130000     3.0859980000
   16      H       1.0286950000    -5.6581870000     3.7516790000
   17      C      -2.0331950000    -4.5469990000    -3.0075650000
   18      H      -2.5948330000    -5.1075640000    -3.7786550000
   19      H      -1.1080670000    -4.1314730000    -3.4616500000
   20      H      -2.6714510000    -3.7120850000    -2.6452640000
   21      C       0.6910200000    -2.3143260000     0.8228140000
   22      S      -1.0056490000    -2.2954870000    -1.1780370000
   23      C       0.0000000000    -1.4351800000     0.0000000000
   24      H       1.3688750000    -1.9932110000     1.6236560000
   25      C       0.0000000000     0.0000000000     0.0000000000
   26      S       0.3097210000     0.8444220000     1.5107320000
   27      C       0.8475020000     2.3251080000     0.7276290000
   28      C       0.3106020000     0.8534600000    -1.0646650000
   29      C       0.7841730000     2.1590140000    -0.6782870000
   30      C       0.2894510000     0.7905120000    -2.4861500000
   31      C       0.7219270000     1.9791120000    -3.1069160000
   32      S       1.1454640000     3.1525190000    -1.9657350000
   33      C       0.8133550000     2.2166420000    -4.5599720000
   34      O       0.4968840000     1.3384180000    -5.3502770000
   35      O       1.2552740000     3.4213400000    -5.0043750000
   36      F      -0.0879230000    -0.2577610000    -3.2462900000
   37      C       1.3874940000     3.7549370000    -6.3349760000
   38      H       1.7659780000     4.7930560000    -6.3702680000
   39      H       0.4170950000     3.6937890000    -6.8756090000
   40      H       2.0988200000     3.0810330000    -6.8618780000
   41      H       1.1622290000     3.1896230000     1.3215100000
   42      H       0.8179320000    -9.1464710000    -0.3499390000
   43      H      -0.5489390000    -9.1505700000     0.8152470000
   44      H       0.8218350000    -1.4441580000    -0.7006470000
 ----------------------------------------------------------------

   11   -2755.3182508447      7.21e-07  Convergence criterion met
 Total energy in the final basis set =    -2755.3182508447
        RIMP2         total energy =     -2760.4128803103 a.u.

                    Orbital Energies (a.u.)
 --------------------------------------------------------------

 Alpha MOs
 -- Occupied --
-92.0162 -91.9950 -91.9756 -91.9591 -26.3352 -20.6119 -20.5877 -20.5867
-20.5494 -11.4099 -11.3785 -11.3195 -11.3094 -11.3076 -11.2979 -11.2958
-11.2890 -11.2886 -11.2839 -11.2835 -11.2833 -11.2829 -11.2794 -11.2744
-11.2726 -11.2600 -11.2586 -11.2504 -11.2386  -9.0145  -8.9990  -8.9781
 -8.9617  -6.6953  -6.6947  -6.6942  -6.6803  -6.6796  -6.6783  -6.6592
 -6.6582  -6.6569  -6.6429  -6.6420  -6.6410  -1.6491  -1.4716  -1.4104
 -1.4092  -1.3668  -1.2394  -1.2091  -1.1763  -1.1437  -1.1000  -1.0513
 -1.0462  -1.0294  -1.0082  -0.9986  -0.9721  -0.9596  -0.9487  -0.9407
 -0.8936  -0.8736  -0.8619  -0.8117  -0.7924  -0.7858  -0.7782  -0.7666
 -0.7620  -0.7334  -0.7189  -0.7172  -0.6980  -0.6933  -0.6863  -0.6785
 -0.6759  -0.6720  -0.6555  -0.6486  -0.6334  -0.6297  -0.6207  -0.6151
 -0.6105  -0.6060  -0.5964  -0.5930  -0.5791  -0.5658  -0.5599  -0.5580
 -0.5511  -0.5314  -0.5284  -0.5208  -0.5133  -0.5081  -0.5042  -0.5000
 -0.4871  -0.4844  -0.4788  -0.4676  -0.4613  -0.4610  -0.4603  -0.4465
 -0.4300  -0.3989  -0.3844  -0.3705  -0.3509  -0.2928  -0.2858  -0.2183

          Ground-State Mulliken Net Atomic Charges

     Atom                 Charge (a.u.)
  ----------------------------------------
      1 C                    -0.070408
      2 C                    -0.254398
      3 S                    -0.133450
      4 C                    -0.046395
      5 H                     0.194376
      6 C                    -0.050241
      7 C                     0.220598
      8 C                     0.232224
      9 C                    -0.082780
     10 C                    -0.044939
     11 O                    -0.335420
     12 O                    -0.343983
     13 C                    -0.082541
     14 H                     0.119898
     15 H                     0.092157
     16 H                     0.092767
     17 C                    -0.087431
     18 H                     0.123174
     19 H                     0.093839
     20 H                     0.089877
     21 C                    -0.280471
     22 S                    -0.065263
     23 C                     0.058553
     24 H                     0.206831
     25 C                    -0.033529
     26 S                     0.094749
     27 C                    -0.249518
     28 C                    -0.103698
     29 C                    -0.004260
     30 C                     0.370473
     31 C                    -0.141782
     32 S                     0.040128
     33 C                     0.458269
     34 O                    -0.452297
     35 O                    -0.298315
     36 F                    -0.208662
     37 C                    -0.054958
     38 H                     0.116571
     39 H                     0.084432
     40 H                     0.084234
     41 H                     0.214284
     42 H                     0.118289
     43 H                     0.115755
     44 H                     0.203262
  ----------------------------------------
  Sum of atomic charges =     0.000000

                    Cartesian Multipole Moments
 -----------------------------------------------------------------
    Charge (ESU x 10^10)
                -0.0000
    Dipole Moment (Debye)
         X       1.4576      Y       2.5432      Z       2.6825
       Tot       3.9734
    Quadrupole Moments (Debye-Ang)
        XX    -197.3854     XY       7.3468     YY    -173.9565
        XZ       2.6300     YZ      -6.7029     ZZ    -190.5360

 Total job time:  338.43s(wall), 10619.90s(cpu)
        *  Thank you very much for using Q-Chem.  Have a nice day.  *
