 Q-Chem 5.4, Q-Chem, Inc., Pleasanton, CA (2021)
 Q-Chem 5.4.0 for Intel X86 EM64T Linux

User input:
--------------------------------------------------------------
$molecule
0 1
C	-0.000687	-8.519741	0.272104
C	-0.194476	-7.635967	-0.779533
S	0.287581	-7.651740	1.799596
C	-0.125787	-6.261894	-0.399427
H	-0.383826	-7.954738	-1.812314
C	0.121989	-6.079985	1.006762
C	0.247488	-4.798382	1.564994
C	-0.258303	-5.153542	-1.284087
C	-0.128493	-3.869626	-0.726260
C	0.116725	-3.688927	0.681918
O	-0.517104	-5.481075	-2.580622
O	0.508622	-4.479871	2.867144
C	0.075811	-5.356026	3.900814
H	0.173640	-4.790496	4.847002
H	0.707354	-6.268513	3.971794
H	-0.984963	-5.658187	3.763397
C	-0.257016	-4.546999	-3.621225
H	-0.357864	-5.107564	-4.569828
H	0.771211	-4.131473	-3.551910
H	-0.990913	-3.712085	-3.626592
C	0.187034	-2.314326	1.058088
S	-0.281899	-2.295487	-1.523035
C	-0.000000	-1.435180	-0.000000
H	0.373653	-1.993211	2.090565
C	0.000000	0.000000	0.000000
S	0.579852	0.687566	1.510732
C	1.591625	1.895024	0.727629
C	0.583771	0.695758	-1.064665
C	1.475308	1.760606	-0.678287
C	0.542366	0.643841	-2.486150
C	1.355286	1.612843	-3.106916
S	2.154609	2.570627	-1.965735
C	1.522440	1.804778	-4.559972
O	0.924684	1.087757	-5.350277
O	2.349739	2.785679	-5.004375
F	-0.170780	-0.212144	-3.246290
C	2.588082	3.053936	-6.334976
H	3.298799	3.899999	-6.370268
H	1.655291	3.328371	-6.875609
H	3.026021	2.177385	-6.861878
H	2.183053	2.599759	1.321510
H	0.883319	-9.146471	0.105910
H	-0.883019	-9.150570	0.431555
H	1.062054	-1.444158	-0.195861
$end

$rem
JOBTYPE		SP
EXCHANGE	HF
CORRELATION	pRIMP2
BASIS		cc-pvtz
METHOD		rimp2
AUX_BASIS	rimp2-cc-pvtz
SOLVENT_METHOD	PCM
PURECART	11111
SYMMETRY	false
MEM_TOTAL	110000
SCF_CONVERGENCE = 6
THRESH=10
GUI = 2
$end

$solvent
dielectric 4.90
$end
--------------------------------------------------------------

             Standard Nuclear Orientation (Angstroms)
    I     Atom           X                Y                Z
 ----------------------------------------------------------------
    1      C      -0.0006870000    -8.5197410000     0.2721040000
    2      C      -0.1944760000    -7.6359670000    -0.7795330000
    3      S       0.2875810000    -7.6517400000     1.7995960000
    4      C      -0.1257870000    -6.2618940000    -0.3994270000
    5      H      -0.3838260000    -7.9547380000    -1.8123140000
    6      C       0.1219890000    -6.0799850000     1.0067620000
    7      C       0.2474880000    -4.7983820000     1.5649940000
    8      C      -0.2583030000    -5.1535420000    -1.2840870000
    9      C      -0.1284930000    -3.8696260000    -0.7262600000
   10      C       0.1167250000    -3.6889270000     0.6819180000
   11      O      -0.5171040000    -5.4810750000    -2.5806220000
   12      O       0.5086220000    -4.4798710000     2.8671440000
   13      C       0.0758110000    -5.3560260000     3.9008140000
   14      H       0.1736400000    -4.7904960000     4.8470020000
   15      H       0.7073540000    -6.2685130000     3.9717940000
   16      H      -0.9849630000    -5.6581870000     3.7633970000
   17      C      -0.2570160000    -4.5469990000    -3.6212250000
   18      H      -0.3578640000    -5.1075640000    -4.5698280000
   19      H       0.7712110000    -4.1314730000    -3.5519100000
   20      H      -0.9909130000    -3.7120850000    -3.6265920000
   21      C       0.1870340000    -2.3143260000     1.0580880000
   22      S      -0.2818990000    -2.2954870000    -1.5230350000
   23      C       0.0000000000    -1.4351800000     0.0000000000
   24      H       0.3736530000    -1.9932110000     2.0905650000
   25      C       0.0000000000     0.0000000000     0.0000000000
   26      S       0.5798520000     0.6875660000     1.5107320000
   27      C       1.5916250000     1.8950240000     0.7276290000
   28      C       0.5837710000     0.6957580000    -1.0646650000
   29      C       1.4753080000     1.7606060000    -0.6782870000
   30      C       0.5423660000     0.6438410000    -2.4861500000
   31      C       1.3552860000     1.6128430000    -3.1069160000
   32      S       2.1546090000     2.5706270000    -1.9657350000
   33      C       1.5224400000     1.8047780000    -4.5599720000
   34      O       0.9246840000     1.0877570000    -5.3502770000
   35      O       2.3497390000     2.7856790000    -5.0043750000
   36      F      -0.1707800000    -0.2121440000    -3.2462900000
   37      C       2.5880820000     3.0539360000    -6.3349760000
   38      H       3.2987990000     3.8999990000    -6.3702680000
   39      H       1.6552910000     3.3283710000    -6.8756090000
   40      H       3.0260210000     2.1773850000    -6.8618780000
   41      H       2.1830530000     2.5997590000     1.3215100000
   42      H       0.8833190000    -9.1464710000     0.1059100000
   43      H      -0.8830190000    -9.1505700000     0.4315550000
   44      H       1.0620540000    -1.4441580000    -0.1958610000
 ----------------------------------------------------------------

   11   -2755.2928851196      5.96e-07  Convergence criterion met
 Total energy in the final basis set =    -2755.2928851196
        RIMP2         total energy =     -2760.3968233215 a.u.

                    Orbital Energies (a.u.)
 --------------------------------------------------------------

 Alpha MOs
 -- Occupied --
-92.0138 -91.9953 -91.9737 -91.9600 -26.3349 -20.6117 -20.5877 -20.5876
-20.5489 -11.4095 -11.3785 -11.3149 -11.3097 -11.3092 -11.2987 -11.2953
-11.2929 -11.2884 -11.2844 -11.2834 -11.2834 -11.2810 -11.2781 -11.2752
-11.2692 -11.2604 -11.2593 -11.2516 -11.2417  -9.0127  -8.9993  -8.9765
 -8.9625  -6.6935  -6.6928  -6.6924  -6.6806  -6.6799  -6.6786  -6.6574
 -6.6566  -6.6552  -6.6438  -6.6428  -6.6418  -1.6505  -1.4713  -1.4109
 -1.4095  -1.3665  -1.2430  -1.2084  -1.1779  -1.1448  -1.0990  -1.0524
 -1.0464  -1.0306  -1.0068  -0.9991  -0.9726  -0.9593  -0.9494  -0.9407
 -0.8941  -0.8732  -0.8604  -0.8133  -0.7956  -0.7860  -0.7763  -0.7653
 -0.7609  -0.7332  -0.7216  -0.7173  -0.6988  -0.6952  -0.6855  -0.6784
 -0.6748  -0.6733  -0.6558  -0.6488  -0.6357  -0.6289  -0.6218  -0.6153
 -0.6110  -0.6059  -0.5980  -0.5943  -0.5750  -0.5672  -0.5627  -0.5587
 -0.5490  -0.5321  -0.5299  -0.5208  -0.5131  -0.5083  -0.5042  -0.5000
 -0.4849  -0.4835  -0.4783  -0.4635  -0.4610  -0.4600  -0.4577  -0.4475
 -0.4311  -0.3994  -0.3825  -0.3717  -0.3514  -0.2943  -0.2846  -0.2167

          Ground-State Mulliken Net Atomic Charges

     Atom                 Charge (a.u.)
  ----------------------------------------
      1 C                    -0.071064
      2 C                    -0.245126
      3 S                    -0.131971
      4 C                    -0.048823
      5 H                     0.195612
      6 C                    -0.046487
      7 C                     0.217640
      8 C                     0.231609
      9 C                    -0.075283
     10 C                    -0.031124
     11 O                    -0.334584
     12 O                    -0.344030
     13 C                    -0.082779
     14 H                     0.119937
     15 H                     0.091988
     16 H                     0.093007
     17 C                    -0.087702
     18 H                     0.123838
     19 H                     0.092839
     20 H                     0.092178
     21 C                    -0.309596
     22 S                    -0.091720
     23 C                     0.079470
     24 H                     0.199293
     25 C                    -0.012852
     26 S                     0.089488
     27 C                    -0.241371
     28 C                    -0.110219
     29 C                    -0.017522
     30 C                     0.360190
     31 C                    -0.138652
     32 S                     0.045289
     33 C                     0.457383
     34 O                    -0.453005
     35 O                    -0.298692
     36 F                    -0.207845
     37 C                    -0.054769
     38 H                     0.116520
     39 H                     0.084398
     40 H                     0.084043
     41 H                     0.215769
     42 H                     0.119427
     43 H                     0.117136
     44 H                     0.208163
  ----------------------------------------
  Sum of atomic charges =     0.000000

                    Cartesian Multipole Moments
 -----------------------------------------------------------------
    Charge (ESU x 10^10)
                -0.0000
    Dipole Moment (Debye)
         X       2.6917      Y       1.5056      Z       2.8447
       Tot       4.1957
    Quadrupole Moments (Debye-Ang)
        XX    -194.7873     XY       8.4698     YY    -173.9824
        XZ      -9.5661     YZ      -3.3317     ZZ    -188.4733

 Total job time:  339.00s(wall), 11301.09s(cpu)
        *  Thank you very much for using Q-Chem.  Have a nice day.  *
