 Q-Chem 5.4, Q-Chem, Inc., Pleasanton, CA (2021)
 Q-Chem 5.4.0 for Intel X86 EM64T Linux

User input:
--------------------------------------------------------------
$molecule
0 1
C	-0.174379	-8.519741	-0.208886
C	0.650052	-7.635967	0.472151
S	-1.377058	-7.651740	-1.193717
C	0.353105	-6.261894	0.225125
H	1.458961	-7.954738	1.141594
C	-0.740583	-6.079985	-0.692811
C	-1.195546	-4.798382	-1.039773
C	1.023267	-5.153542	0.817634
C	0.565262	-3.869626	0.473754
C	-0.527745	-3.688927	-0.447350
O	2.054917	-5.481075	1.644483
O	-2.232592	-4.479871	-1.869424
C	-2.565470	-5.356026	-2.939466
H	-3.248608	-4.790496	-3.601405
H	-3.094885	-6.268513	-2.587892
H	-1.664539	-5.658187	-3.516052
C	2.524564	-4.546999	2.608813
H	3.211568	-5.107564	3.270661
H	1.692342	-4.131473	3.216646
H	3.090211	-3.712085	2.141184
C	-0.823402	-2.314326	-0.690319
S	1.194935	-2.295487	0.985511
C	-0.000000	-1.435180	-0.000000
H	-1.630024	-1.993211	-1.361286
C	0.000000	0.000000	0.000000
S	0.451648	0.777811	1.510732
C	1.238377	2.142617	0.727629
C	0.454085	0.786559	-1.064665
C	1.147169	1.990043	-0.678287
C	0.422325	0.728240	-2.486150
C	1.054629	1.823683	-3.106916
S	1.675491	2.905718	-1.965735
C	1.185914	2.041729	-4.559972
O	0.721749	1.231802	-5.350277
O	1.830313	3.151386	-5.004375
F	-0.131347	-0.238577	-3.246290
C	2.018453	3.456956	-6.334976
H	2.571455	4.413580	-6.370268
H	1.052178	3.565244	-6.875609
H	2.601950	2.669768	-6.861878
H	1.698444	2.939346	1.321510
H	-0.744739	-9.146471	0.486655
H	0.399033	-9.150570	-0.898184
H	-0.687683	-1.444158	0.832713
$end

$rem
JOBTYPE		SP
EXCHANGE	HF
CORRELATION	pRIMP2
BASIS		cc-pvtz
METHOD		rimp2
AUX_BASIS	rimp2-cc-pvtz
SOLVENT_METHOD	PCM
PURECART	11111
SYMMETRY	false
MEM_TOTAL	110000
SCF_CONVERGENCE = 6
THRESH=10
GUI = 2
$end

$solvent
dielectric 4.90
$end
--------------------------------------------------------------

             Standard Nuclear Orientation (Angstroms)
    I     Atom           X                Y                Z
 ----------------------------------------------------------------
    1      C      -0.1743790000    -8.5197410000    -0.2088860000
    2      C       0.6500520000    -7.6359670000     0.4721510000
    3      S      -1.3770580000    -7.6517400000    -1.1937170000
    4      C       0.3531050000    -6.2618940000     0.2251250000
    5      H       1.4589610000    -7.9547380000     1.1415940000
    6      C      -0.7405830000    -6.0799850000    -0.6928110000
    7      C      -1.1955460000    -4.7983820000    -1.0397730000
    8      C       1.0232670000    -5.1535420000     0.8176340000
    9      C       0.5652620000    -3.8696260000     0.4737540000
   10      C      -0.5277450000    -3.6889270000    -0.4473500000
   11      O       2.0549170000    -5.4810750000     1.6444830000
   12      O      -2.2325920000    -4.4798710000    -1.8694240000
   13      C      -2.5654700000    -5.3560260000    -2.9394660000
   14      H      -3.2486080000    -4.7904960000    -3.6014050000
   15      H      -3.0948850000    -6.2685130000    -2.5878920000
   16      H      -1.6645390000    -5.6581870000    -3.5160520000
   17      C       2.5245640000    -4.5469990000     2.6088130000
   18      H       3.2115680000    -5.1075640000     3.2706610000
   19      H       1.6923420000    -4.1314730000     3.2166460000
   20      H       3.0902110000    -3.7120850000     2.1411840000
   21      C      -0.8234020000    -2.3143260000    -0.6903190000
   22      S       1.1949350000    -2.2954870000     0.9855110000
   23      C       0.0000000000    -1.4351800000     0.0000000000
   24      H      -1.6300240000    -1.9932110000    -1.3612860000
   25      C       0.0000000000     0.0000000000     0.0000000000
   26      S       0.4516480000     0.7778110000     1.5107320000
   27      C       1.2383770000     2.1426170000     0.7276290000
   28      C       0.4540850000     0.7865590000    -1.0646650000
   29      C       1.1471690000     1.9900430000    -0.6782870000
   30      C       0.4223250000     0.7282400000    -2.4861500000
   31      C       1.0546290000     1.8236830000    -3.1069160000
   32      S       1.6754910000     2.9057180000    -1.9657350000
   33      C       1.1859140000     2.0417290000    -4.5599720000
   34      O       0.7217490000     1.2318020000    -5.3502770000
   35      O       1.8303130000     3.1513860000    -5.0043750000
   36      F      -0.1313470000    -0.2385770000    -3.2462900000
   37      C       2.0184530000     3.4569560000    -6.3349760000
   38      H       2.5714550000     4.4135800000    -6.3702680000
   39      H       1.0521780000     3.5652440000    -6.8756090000
   40      H       2.6019500000     2.6697680000    -6.8618780000
   41      H       1.6984440000     2.9393460000     1.3215100000
   42      H      -0.7447390000    -9.1464710000     0.4866550000
   43      H       0.3990330000    -9.1505700000    -0.8981840000
   44      H      -0.6876830000    -1.4441580000     0.8327130000
 ----------------------------------------------------------------

   11   -2755.3086181782      7.45e-07  Convergence criterion met
 Total energy in the final basis set =    -2755.3086181782
        RIMP2         total energy =     -2760.4055443092 a.u.

                    Orbital Energies (a.u.)
 --------------------------------------------------------------

 Alpha MOs
 -- Occupied --
-92.0178 -91.9973 -91.9782 -91.9569 -26.3362 -20.6134 -20.5862 -20.5861
-20.5522 -11.4122 -11.3779 -11.3082 -11.3057 -11.3056 -11.3017 -11.3013
-11.2981 -11.2892 -11.2844 -11.2828 -11.2822 -11.2816 -11.2790 -11.2723
-11.2712 -11.2572 -11.2557 -11.2483 -11.2342  -9.0164  -9.0012  -8.9805
 -8.9595  -6.6971  -6.6966  -6.6961  -6.6825  -6.6818  -6.6805  -6.6615
 -6.6606  -6.6593  -6.6408  -6.6398  -6.6388  -1.6492  -1.4732  -1.4096
 -1.4079  -1.3688  -1.2398  -1.2085  -1.1744  -1.1446  -1.0982  -1.0511
 -1.0452  -1.0314  -1.0081  -0.9970  -0.9734  -0.9595  -0.9479  -0.9398
 -0.8932  -0.8726  -0.8631  -0.8073  -0.7962  -0.7849  -0.7772  -0.7723
 -0.7638  -0.7323  -0.7218  -0.7175  -0.6967  -0.6931  -0.6815  -0.6797
 -0.6737  -0.6645  -0.6557  -0.6478  -0.6345  -0.6292  -0.6188  -0.6137
 -0.6110  -0.6080  -0.5973  -0.5926  -0.5771  -0.5663  -0.5580  -0.5532
 -0.5458  -0.5367  -0.5304  -0.5228  -0.5133  -0.5072  -0.5052  -0.4998
 -0.4870  -0.4850  -0.4752  -0.4733  -0.4632  -0.4623  -0.4584  -0.4450
 -0.4261  -0.3995  -0.3844  -0.3690  -0.3512  -0.2943  -0.2867  -0.2175

          Ground-State Mulliken Net Atomic Charges

     Atom                 Charge (a.u.)
  ----------------------------------------
      1 C                    -0.069697
      2 C                    -0.267985
      3 S                    -0.137668
      4 C                    -0.041880
      5 H                     0.192340
      6 C                    -0.052831
      7 C                     0.222010
      8 C                     0.220679
      9 C                    -0.078125
     10 C                    -0.050540
     11 O                    -0.335086
     12 O                    -0.343374
     13 C                    -0.082211
     14 H                     0.120293
     15 H                     0.091377
     16 H                     0.093141
     17 C                    -0.087268
     18 H                     0.123418
     19 H                     0.091557
     20 H                     0.089613
     21 C                    -0.259213
     22 S                    -0.070126
     23 C                     0.038622
     24 H                     0.205330
     25 C                    -0.092614
     26 S                     0.095633
     27 C                    -0.210429
     28 C                    -0.037483
     29 C                    -0.013571
     30 C                     0.362434
     31 C                    -0.138488
     32 S                     0.045703
     33 C                     0.457655
     34 O                    -0.447108
     35 O                    -0.297578
     36 F                    -0.211330
     37 C                    -0.054944
     38 H                     0.116928
     39 H                     0.084779
     40 H                     0.085034
     41 H                     0.217418
     42 H                     0.116158
     43 H                     0.114075
     44 H                     0.195350
  ----------------------------------------
  Sum of atomic charges =     0.000000

                    Cartesian Multipole Moments
 -----------------------------------------------------------------
    Charge (ESU x 10^10)
                 0.0000
    Dipole Moment (Debye)
         X       1.7332      Y       4.0064      Z       3.6072
       Tot       5.6628
    Quadrupole Moments (Debye-Ang)
        XX    -192.3788     XY       4.5903     YY    -181.7405
        XZ       2.5396     YZ     -11.7552     ZZ    -191.7065

 Total job time:  324.59s(wall), 10655.18s(cpu)
        *  Thank you very much for using Q-Chem.  Have a nice day.  *
