 Q-Chem 5.4, Q-Chem, Inc., Pleasanton, CA (2021)
 Q-Chem 5.4.0 for Intel X86 EM64T Linux

User input:
--------------------------------------------------------------
$molecule
0 1
C	-0.093711	-8.519741	0.255459
C	0.083869	-7.635967	-0.799036
S	-0.345260	-7.651740	1.789425
C	0.018411	-6.261894	-0.418360
H	0.259169	-7.954738	-1.834294
C	-0.229701	-6.079985	0.987769
C	-0.302697	-4.798382	1.555260
C	0.196459	-5.153542	-1.294992
C	0.127651	-3.869626	-0.726408
C	-0.123544	-3.688927	0.680716
O	0.396706	-5.481075	-2.601852
O	-0.502673	-4.479871	2.868193
C	-1.262918	-5.356026	3.691495
H	-1.494604	-4.790496	4.614080
H	-0.693738	-6.268513	3.974195
H	-2.212720	-5.658187	3.199559
C	0.997016	-4.546999	-3.490743
H	1.226691	-5.107564	-4.416630
H	1.939526	-4.131473	-3.073934
H	0.309214	-3.712085	-3.746794
C	-0.186133	-2.314326	1.058247
S	0.256010	-2.295487	-1.527599
C	0.000000	-1.435180	0.000000
H	-0.363896	-1.993211	2.092285
C	0.000000	0.000000	0.000000
S	0.780044	0.447780	1.510732
C	2.143774	1.236372	0.727629
C	0.786529	0.454137	-1.064665
C	1.988499	1.149844	-0.678287
C	0.729864	0.419512	-2.486150
C	1.825177	1.052041	-3.106916
S	2.903877	1.678680	-1.965735
C	2.047896	1.175232	-4.559972
O	1.240953	0.705897	-5.350277
O	3.160791	1.814024	-5.004375
F	-0.233039	-0.140940	-3.246290
C	3.476510	1.984585	-6.334976
H	4.433735	2.536545	-6.370268
H	2.693835	2.561503	-6.875609
H	3.588239	1.011113	-6.861878
H	2.940569	1.696327	1.321510
H	0.793825	-9.146471	0.401636
H	-0.977367	-9.150570	0.103519
H	1.064992	-1.444158	0.179195
$end

$rem
JOBTYPE		SP
EXCHANGE	HF
CORRELATION	pRIMP2
BASIS		cc-pvtz
METHOD		rimp2
AUX_BASIS	rimp2-cc-pvtz
SOLVENT_METHOD	PCM
PURECART	11111
SYMMETRY	false
MEM_TOTAL	110000
SCF_CONVERGENCE = 6
THRESH=10
GUI = 2
$end

$solvent
dielectric 4.90
$end
--------------------------------------------------------------

             Standard Nuclear Orientation (Angstroms)
    I     Atom           X                Y                Z
 ----------------------------------------------------------------
    1      C      -0.0937110000    -8.5197410000     0.2554590000
    2      C       0.0838690000    -7.6359670000    -0.7990360000
    3      S      -0.3452600000    -7.6517400000     1.7894250000
    4      C       0.0184110000    -6.2618940000    -0.4183600000
    5      H       0.2591690000    -7.9547380000    -1.8342940000
    6      C      -0.2297010000    -6.0799850000     0.9877690000
    7      C      -0.3026970000    -4.7983820000     1.5552600000
    8      C       0.1964590000    -5.1535420000    -1.2949920000
    9      C       0.1276510000    -3.8696260000    -0.7264080000
   10      C      -0.1235440000    -3.6889270000     0.6807160000
   11      O       0.3967060000    -5.4810750000    -2.6018520000
   12      O      -0.5026730000    -4.4798710000     2.8681930000
   13      C      -1.2629180000    -5.3560260000     3.6914950000
   14      H      -1.4946040000    -4.7904960000     4.6140800000
   15      H      -0.6937380000    -6.2685130000     3.9741950000
   16      H      -2.2127200000    -5.6581870000     3.1995590000
   17      C       0.9970160000    -4.5469990000    -3.4907430000
   18      H       1.2266910000    -5.1075640000    -4.4166300000
   19      H       1.9395260000    -4.1314730000    -3.0739340000
   20      H       0.3092140000    -3.7120850000    -3.7467940000
   21      C      -0.1861330000    -2.3143260000     1.0582470000
   22      S       0.2560100000    -2.2954870000    -1.5275990000
   23      C       0.0000000000    -1.4351800000     0.0000000000
   24      H      -0.3638960000    -1.9932110000     2.0922850000
   25      C       0.0000000000     0.0000000000     0.0000000000
   26      S       0.7800440000     0.4477800000     1.5107320000
   27      C       2.1437740000     1.2363720000     0.7276290000
   28      C       0.7865290000     0.4541370000    -1.0646650000
   29      C       1.9884990000     1.1498440000    -0.6782870000
   30      C       0.7298640000     0.4195120000    -2.4861500000
   31      C       1.8251770000     1.0520410000    -3.1069160000
   32      S       2.9038770000     1.6786800000    -1.9657350000
   33      C       2.0478960000     1.1752320000    -4.5599720000
   34      O       1.2409530000     0.7058970000    -5.3502770000
   35      O       3.1607910000     1.8140240000    -5.0043750000
   36      F      -0.2330390000    -0.1409400000    -3.2462900000
   37      C       3.4765100000     1.9845850000    -6.3349760000
   38      H       4.4337350000     2.5365450000    -6.3702680000
   39      H       2.6938350000     2.5615030000    -6.8756090000
   40      H       3.5882390000     1.0111130000    -6.8618780000
   41      H       2.9405690000     1.6963270000     1.3215100000
   42      H       0.7938250000    -9.1464710000     0.4016360000
   43      H      -0.9773670000    -9.1505700000     0.1035190000
   44      H       1.0649920000    -1.4441580000     0.1791950000
 ----------------------------------------------------------------

   11   -2755.2503353718      8.43e-07  Convergence criterion met
 Total energy in the final basis set =    -2755.2503353718
        RIMP2         total energy =     -2760.3691975685 a.u.

                    Orbital Energies (a.u.)
 --------------------------------------------------------------

 Alpha MOs
 -- Occupied --
-92.0078 -92.0002 -91.9718 -91.9596 -26.3349 -20.6137 -20.5878 -20.5872
-20.5526 -11.4126 -11.3787 -11.3144 -11.3099 -11.3085 -11.3027 -11.3012
-11.2934 -11.2895 -11.2870 -11.2835 -11.2830 -11.2802 -11.2797 -11.2745
-11.2646 -11.2591 -11.2588 -11.2516 -11.2422  -9.0081  -9.0040  -8.9748
 -8.9622  -6.6887  -6.6879  -6.6876  -6.6853  -6.6846  -6.6833  -6.6558
 -6.6550  -6.6536  -6.6434  -6.6425  -6.6415  -1.6497  -1.4736  -1.4110
 -1.4090  -1.3692  -1.2519  -1.2074  -1.1788  -1.1472  -1.0981  -1.0562
 -1.0457  -1.0344  -1.0059  -0.9977  -0.9747  -0.9587  -0.9502  -0.9417
 -0.8937  -0.8755  -0.8566  -0.8141  -0.7972  -0.7861  -0.7772  -0.7665
 -0.7610  -0.7332  -0.7231  -0.7159  -0.6993  -0.6959  -0.6851  -0.6800
 -0.6763  -0.6742  -0.6556  -0.6485  -0.6361  -0.6279  -0.6217  -0.6153
 -0.6109  -0.6086  -0.6028  -0.5941  -0.5758  -0.5677  -0.5615  -0.5587
 -0.5451  -0.5331  -0.5311  -0.5215  -0.5134  -0.5079  -0.5042  -0.5012
 -0.4868  -0.4830  -0.4771  -0.4639  -0.4629  -0.4602  -0.4553  -0.4472
 -0.4260  -0.4003  -0.3781  -0.3718  -0.3514  -0.2999  -0.2837  -0.2152

          Ground-State Mulliken Net Atomic Charges

     Atom                 Charge (a.u.)
  ----------------------------------------
      1 C                    -0.071387
      2 C                    -0.243084
      3 S                    -0.132457
      4 C                    -0.051847
      5 H                     0.195770
      6 C                    -0.047359
      7 C                     0.217181
      8 C                     0.232556
      9 C                    -0.072932
     10 C                    -0.023188
     11 O                    -0.334079
     12 O                    -0.343340
     13 C                    -0.082892
     14 H                     0.119875
     15 H                     0.091654
     16 H                     0.093055
     17 C                    -0.088727
     18 H                     0.124032
     19 H                     0.091364
     20 H                     0.094289
     21 C                    -0.318463
     22 S                    -0.107568
     23 C                     0.111966
     24 H                     0.197502
     25 C                    -0.113694
     26 S                     0.083163
     27 C                    -0.182305
     28 C                    -0.041695
     29 C                    -0.031803
     30 C                     0.339550
     31 C                    -0.126236
     32 S                     0.058661
     33 C                     0.459107
     34 O                    -0.446700
     35 O                    -0.297952
     36 F                    -0.210653
     37 C                    -0.054825
     38 H                     0.116976
     39 H                     0.085177
     40 H                     0.084628
     41 H                     0.218832
     42 H                     0.119477
     43 H                     0.117417
     44 H                     0.170953
  ----------------------------------------
  Sum of atomic charges =     0.000000

                    Cartesian Multipole Moments
 -----------------------------------------------------------------
    Charge (ESU x 10^10)
                -0.0000
    Dipole Moment (Debye)
         X       4.5373      Y       1.2569      Z       2.6592
       Tot       5.4073
    Quadrupole Moments (Debye-Ang)
        XX    -183.6306     XY       7.6713     YY    -178.1109
        XZ     -17.7284     YZ      -0.9523     ZZ    -190.4637

 Total job time:  339.42s(wall), 11000.48s(cpu)
        *  Thank you very much for using Q-Chem.  Have a nice day.  *
