 Q-Chem 5.4, Q-Chem, Inc., Pleasanton, CA (2021)
 Q-Chem 5.4.0 for Intel X86 EM64T Linux

User input:
--------------------------------------------------------------
$molecule
0 1
C	0.235306	-8.519741	0.136647
C	-0.772334	-7.635967	-0.221346
S	1.702286	-7.651740	0.650746
C	-0.408807	-6.261894	-0.090779
H	-1.761423	-7.954738	-0.573754
C	0.932876	-6.079985	0.397735
C	1.479069	-4.798382	0.568166
C	-1.241204	-5.153542	-0.418347
C	-0.693206	-3.869626	-0.251852
C	0.648921	-3.688927	0.239872
O	-2.493437	-5.481075	-0.842486
O	2.737331	-4.479871	0.993092
C	3.416110	-5.356026	1.884752
H	4.284447	-4.790496	2.273124
H	3.793352	-6.268513	1.373310
H	2.766716	-5.658187	2.734702
C	-3.264581	-4.546999	-1.588030
H	-4.136519	-5.107564	-1.974995
H	-2.690439	-4.131473	-2.443843
H	-3.636177	-3.712085	-0.955140
C	1.009848	-2.314326	0.367068
S	-1.459936	-2.295487	-0.517386
C	-0.000000	-1.435180	-0.000000
H	1.997308	-1.993211	0.721689
C	0.000000	0.000000	0.000000
S	0.158383	0.885376	1.510732
C	0.430876	2.436951	0.727629
C	0.157682	0.894430	-1.064665
C	0.397351	2.262384	-0.678287
C	0.147783	0.828765	-2.486150
C	0.367291	2.074406	-3.106916
S	0.580633	3.303533	-1.965735
C	0.416083	2.324204	-4.559972
O	0.256921	1.404367	-5.350277
O	0.642094	3.587338	-5.004375
F	-0.041828	-0.269113	-3.246290
C	0.714377	3.938827	-6.334976
H	0.906844	5.026898	-6.370268
H	-0.230661	3.710099	-6.875609
H	1.531918	3.398681	-6.861878
H	0.590699	3.342984	1.321510
H	0.533380	-9.146471	-0.712022
H	-0.067771	-9.150570	0.980494
H	0.361406	-1.444158	-1.017696
$end

$rem
JOBTYPE		SP
EXCHANGE	HF
CORRELATION	pRIMP2
BASIS		cc-pvtz
METHOD		rimp2
AUX_BASIS	rimp2-cc-pvtz
SOLVENT_METHOD	PCM
PURECART	11111
SYMMETRY	false
MEM_TOTAL	110000
SCF_CONVERGENCE = 6
THRESH=10
GUI = 2
$end

$solvent
dielectric 4.90
$end
--------------------------------------------------------------

             Standard Nuclear Orientation (Angstroms)
    I     Atom           X                Y                Z
 ----------------------------------------------------------------
    1      C       0.2353060000    -8.5197410000     0.1366470000
    2      C      -0.7723340000    -7.6359670000    -0.2213460000
    3      S       1.7022860000    -7.6517400000     0.6507460000
    4      C      -0.4088070000    -6.2618940000    -0.0907790000
    5      H      -1.7614230000    -7.9547380000    -0.5737540000
    6      C       0.9328760000    -6.0799850000     0.3977350000
    7      C       1.4790690000    -4.7983820000     0.5681660000
    8      C      -1.2412040000    -5.1535420000    -0.4183470000
    9      C      -0.6932060000    -3.8696260000    -0.2518520000
   10      C       0.6489210000    -3.6889270000     0.2398720000
   11      O      -2.4934370000    -5.4810750000    -0.8424860000
   12      O       2.7373310000    -4.4798710000     0.9930920000
   13      C       3.4161100000    -5.3560260000     1.8847520000
   14      H       4.2844470000    -4.7904960000     2.2731240000
   15      H       3.7933520000    -6.2685130000     1.3733100000
   16      H       2.7667160000    -5.6581870000     2.7347020000
   17      C      -3.2645810000    -4.5469990000    -1.5880300000
   18      H      -4.1365190000    -5.1075640000    -1.9749950000
   19      H      -2.6904390000    -4.1314730000    -2.4438430000
   20      H      -3.6361770000    -3.7120850000    -0.9551400000
   21      C       1.0098480000    -2.3143260000     0.3670680000
   22      S      -1.4599360000    -2.2954870000    -0.5173860000
   23      C       0.0000000000    -1.4351800000     0.0000000000
   24      H       1.9973080000    -1.9932110000     0.7216890000
   25      C       0.0000000000     0.0000000000     0.0000000000
   26      S       0.1583830000     0.8853760000     1.5107320000
   27      C       0.4308760000     2.4369510000     0.7276290000
   28      C       0.1576820000     0.8944300000    -1.0646650000
   29      C       0.3973510000     2.2623840000    -0.6782870000
   30      C       0.1477830000     0.8287650000    -2.4861500000
   31      C       0.3672910000     2.0744060000    -3.1069160000
   32      S       0.5806330000     3.3035330000    -1.9657350000
   33      C       0.4160830000     2.3242040000    -4.5599720000
   34      O       0.2569210000     1.4043670000    -5.3502770000
   35      O       0.6420940000     3.5873380000    -5.0043750000
   36      F      -0.0418280000    -0.2691130000    -3.2462900000
   37      C       0.7143770000     3.9388270000    -6.3349760000
   38      H       0.9068440000     5.0268980000    -6.3702680000
   39      H      -0.2306610000     3.7100990000    -6.8756090000
   40      H       1.5319180000     3.3986810000    -6.8618780000
   41      H       0.5906990000     3.3429840000     1.3215100000
   42      H       0.5333800000    -9.1464710000    -0.7120220000
   43      H      -0.0677710000    -9.1505700000     0.9804940000
   44      H       0.3614060000    -1.4441580000    -1.0176960000
 ----------------------------------------------------------------

   11   -2755.3270772915      7.16e-07  Convergence criterion met
 Total energy in the final basis set =    -2755.3270772915
        RIMP2         total energy =     -2760.4189582249 a.u.

                    Orbital Energies (a.u.)
 --------------------------------------------------------------

 Alpha MOs
 -- Occupied --
-92.0140 -91.9967 -91.9765 -91.9584 -26.3385 -20.6133 -20.5873 -20.5865
-20.5518 -11.4120 -11.3794 -11.3139 -11.3091 -11.3071 -11.3003 -11.2979
-11.2953 -11.2892 -11.2853 -11.2837 -11.2830 -11.2826 -11.2810 -11.2734
-11.2726 -11.2586 -11.2582 -11.2498 -11.2373  -9.0125  -9.0007  -8.9788
 -8.9610  -6.6932  -6.6926  -6.6922  -6.6819  -6.6813  -6.6799  -6.6599
 -6.6590  -6.6577  -6.6422  -6.6413  -6.6403  -1.6516  -1.4731  -1.4101
 -1.4089  -1.3686  -1.2393  -1.2085  -1.1753  -1.1436  -1.1001  -1.0521
 -1.0458  -1.0297  -1.0088  -0.9977  -0.9728  -0.9595  -0.9486  -0.9410
 -0.8931  -0.8745  -0.8628  -0.8106  -0.7932  -0.7853  -0.7811  -0.7690
 -0.7629  -0.7337  -0.7196  -0.7194  -0.6977  -0.6923  -0.6876  -0.6797
 -0.6763  -0.6735  -0.6552  -0.6484  -0.6309  -0.6295  -0.6201  -0.6149
 -0.6107  -0.6075  -0.5963  -0.5936  -0.5830  -0.5651  -0.5580  -0.5555
 -0.5510  -0.5321  -0.5282  -0.5215  -0.5131  -0.5076  -0.5035  -0.5007
 -0.4881  -0.4855  -0.4780  -0.4689  -0.4628  -0.4623  -0.4603  -0.4459
 -0.4246  -0.4026  -0.3854  -0.3701  -0.3502  -0.2929  -0.2886  -0.2205

          Ground-State Mulliken Net Atomic Charges

     Atom                 Charge (a.u.)
  ----------------------------------------
      1 C                    -0.070347
      2 C                    -0.257618
      3 S                    -0.134658
      4 C                    -0.045659
      5 H                     0.193704
      6 C                    -0.051258
      7 C                     0.223274
      8 C                     0.231424
      9 C                    -0.084050
     10 C                    -0.057924
     11 O                    -0.335440
     12 O                    -0.343663
     13 C                    -0.082502
     14 H                     0.119892
     15 H                     0.092021
     16 H                     0.092669
     17 C                    -0.086682
     18 H                     0.122766
     19 H                     0.093721
     20 H                     0.089742
     21 C                    -0.237955
     22 S                    -0.068886
     23 C                     0.046568
     24 H                     0.208260
     25 C                    -0.080524
     26 S                     0.099558
     27 C                    -0.235100
     28 C                    -0.086564
     29 C                    -0.006234
     30 C                     0.373345
     31 C                    -0.131642
     32 S                     0.042045
     33 C                     0.459020
     34 O                    -0.448710
     35 O                    -0.297455
     36 F                    -0.214062
     37 C                    -0.055055
     38 H                     0.116915
     39 H                     0.084834
     40 H                     0.084758
     41 H                     0.214997
     42 H                     0.117740
     43 H                     0.115161
     44 H                     0.189573
  ----------------------------------------
  Sum of atomic charges =     0.000000

                    Cartesian Multipole Moments
 -----------------------------------------------------------------
    Charge (ESU x 10^10)
                -0.0000
    Dipole Moment (Debye)
         X       0.7113      Y       3.5138      Z       2.5068
       Tot       4.3745
    Quadrupole Moments (Debye-Ang)
        XX    -189.8381     XY       6.3389     YY    -173.6560
        XZ       7.0984     YZ      -9.7799     ZZ    -198.6022

 Total job time:  329.89s(wall), 10536.97s(cpu)
        *  Thank you very much for using Q-Chem.  Have a nice day.  *
