 Q-Chem 5.4, Q-Chem, Inc., Pleasanton, CA (2021)
 Q-Chem 5.4.0 for Intel X86 EM64T Linux

User input:
--------------------------------------------------------------
$molecule
0 1
C	-0.255929	-8.519741	0.092419
C	0.666007	-7.635967	-0.449364
S	-1.592708	-7.651740	0.885736
C	0.332317	-6.261894	-0.254813
H	1.571741	-7.954738	-0.980526
C	-0.904324	-6.079985	0.458965
C	-1.385968	-4.798382	0.767823
C	1.118303	-5.153542	-0.681909
C	0.638514	-3.869626	-0.369139
C	-0.600871	-3.688927	0.342916
O	2.248132	-5.481075	-1.368544
O	-2.520275	-4.479871	1.458570
C	-3.639637	-5.356026	1.405396
H	-4.495304	-4.790496	1.820940
H	-3.490336	-6.268513	2.023129
H	-3.873314	-5.658187	0.361595
C	3.314934	-4.546999	-1.480048
H	4.171837	-5.107564	-1.899255
H	3.601473	-4.131473	-0.490123
H	3.068969	-3.712085	-2.171521
C	-0.930308	-2.314326	0.537642
S	1.334769	-2.295487	-0.785807
C	0.000000	-1.435180	0.000000
H	-1.836691	-1.993211	1.066134
C	0.000000	0.000000	0.000000
S	0.780044	0.447780	1.510732
C	2.143774	1.236372	0.727629
C	0.786529	0.454137	-1.064665
C	1.988499	1.149844	-0.678287
C	0.729864	0.419512	-2.486150
C	1.825177	1.052041	-3.106916
S	2.903877	1.678680	-1.965735
C	2.047896	1.175232	-4.559972
O	1.240953	0.705897	-5.350277
O	3.160791	1.814024	-5.004375
F	-0.233039	-0.140940	-3.246290
C	3.476510	1.984585	-6.334976
H	4.433735	2.536545	-6.370268
H	2.693835	2.561503	-6.875609
H	3.588239	1.011113	-6.861878
H	2.940569	1.696327	1.321510
H	0.202590	-9.146471	0.866272
H	-0.707539	-9.150570	-0.682165
H	0.547293	-1.444158	0.931016
$end

$rem
JOBTYPE		SP
EXCHANGE	HF
CORRELATION	pRIMP2
BASIS		cc-pvtz
METHOD		rimp2
AUX_BASIS	rimp2-cc-pvtz
SOLVENT_METHOD	PCM
PURECART	11111
SYMMETRY	false
MEM_TOTAL	110000
SCF_CONVERGENCE = 6
THRESH=10
GUI = 2
$end

$solvent
dielectric 4.90
$end
--------------------------------------------------------------

             Standard Nuclear Orientation (Angstroms)
    I     Atom           X                Y                Z
 ----------------------------------------------------------------
    1      C      -0.2559290000    -8.5197410000     0.0924190000
    2      C       0.6660070000    -7.6359670000    -0.4493640000
    3      S      -1.5927080000    -7.6517400000     0.8857360000
    4      C       0.3323170000    -6.2618940000    -0.2548130000
    5      H       1.5717410000    -7.9547380000    -0.9805260000
    6      C      -0.9043240000    -6.0799850000     0.4589650000
    7      C      -1.3859680000    -4.7983820000     0.7678230000
    8      C       1.1183030000    -5.1535420000    -0.6819090000
    9      C       0.6385140000    -3.8696260000    -0.3691390000
   10      C      -0.6008710000    -3.6889270000     0.3429160000
   11      O       2.2481320000    -5.4810750000    -1.3685440000
   12      O      -2.5202750000    -4.4798710000     1.4585700000
   13      C      -3.6396370000    -5.3560260000     1.4053960000
   14      H      -4.4953040000    -4.7904960000     1.8209400000
   15      H      -3.4903360000    -6.2685130000     2.0231290000
   16      H      -3.8733140000    -5.6581870000     0.3615950000
   17      C       3.3149340000    -4.5469990000    -1.4800480000
   18      H       4.1718370000    -5.1075640000    -1.8992550000
   19      H       3.6014730000    -4.1314730000    -0.4901230000
   20      H       3.0689690000    -3.7120850000    -2.1715210000
   21      C      -0.9303080000    -2.3143260000     0.5376420000
   22      S       1.3347690000    -2.2954870000    -0.7858070000
   23      C       0.0000000000    -1.4351800000     0.0000000000
   24      H      -1.8366910000    -1.9932110000     1.0661340000
   25      C       0.0000000000     0.0000000000     0.0000000000
   26      S       0.7800440000     0.4477800000     1.5107320000
   27      C       2.1437740000     1.2363720000     0.7276290000
   28      C       0.7865290000     0.4541370000    -1.0646650000
   29      C       1.9884990000     1.1498440000    -0.6782870000
   30      C       0.7298640000     0.4195120000    -2.4861500000
   31      C       1.8251770000     1.0520410000    -3.1069160000
   32      S       2.9038770000     1.6786800000    -1.9657350000
   33      C       2.0478960000     1.1752320000    -4.5599720000
   34      O       1.2409530000     0.7058970000    -5.3502770000
   35      O       3.1607910000     1.8140240000    -5.0043750000
   36      F      -0.2330390000    -0.1409400000    -3.2462900000
   37      C       3.4765100000     1.9845850000    -6.3349760000
   38      H       4.4337350000     2.5365450000    -6.3702680000
   39      H       2.6938350000     2.5615030000    -6.8756090000
   40      H       3.5882390000     1.0111130000    -6.8618780000
   41      H       2.9405690000     1.6963270000     1.3215100000
   42      H       0.2025900000    -9.1464710000     0.8662720000
   43      H      -0.7075390000    -9.1505700000    -0.6821650000
   44      H       0.5472930000    -1.4441580000     0.9310160000
 ----------------------------------------------------------------

   11   -2755.2417467393      9.97e-07  Convergence criterion met
 Total energy in the final basis set =    -2755.2417467393
        RIMP2         total energy =     -2760.3555297038 a.u.

                    Orbital Energies (a.u.)
 --------------------------------------------------------------

 Alpha MOs
 -- Occupied --
-92.0126 -92.0073 -91.9743 -91.9537 -26.3359 -20.6174 -20.5853 -20.5831
-20.5593 -11.4183 -11.3782 -11.3288 -11.3162 -11.3066 -11.3020 -11.3004
-11.2985 -11.2912 -11.2828 -11.2812 -11.2797 -11.2786 -11.2694 -11.2681
-11.2662 -11.2542 -11.2484 -11.2450 -11.2265  -9.0132  -9.0108  -8.9768
 -8.9563  -6.6937  -6.6927  -6.6926  -6.6920  -6.6914  -6.6901  -6.6579
 -6.6570  -6.6557  -6.6376  -6.6367  -6.6356  -1.6489  -1.4777  -1.4075
 -1.4061  -1.3741  -1.2537  -1.2079  -1.1738  -1.1476  -1.0960  -1.0571
 -1.0418  -1.0384  -1.0060  -0.9936  -0.9783  -0.9591  -0.9464  -0.9400
 -0.8903  -0.8793  -0.8558  -0.8127  -0.7971  -0.7848  -0.7791  -0.7713
 -0.7606  -0.7353  -0.7203  -0.7173  -0.6987  -0.6935  -0.6830  -0.6795
 -0.6783  -0.6682  -0.6538  -0.6464  -0.6355  -0.6282  -0.6156  -0.6138
 -0.6132  -0.6100  -0.6059  -0.5903  -0.5766  -0.5676  -0.5593  -0.5534
 -0.5429  -0.5331  -0.5319  -0.5221  -0.5107  -0.5074  -0.5052  -0.4977
 -0.4928  -0.4815  -0.4714  -0.4693  -0.4654  -0.4627  -0.4565  -0.4428
 -0.4217  -0.4005  -0.3800  -0.3687  -0.3483  -0.3026  -0.2853  -0.2109

          Ground-State Mulliken Net Atomic Charges

     Atom                 Charge (a.u.)
  ----------------------------------------
      1 C                    -0.068490
      2 C                    -0.289130
      3 S                    -0.145886
      4 C                    -0.041233
      5 H                     0.189453
      6 C                    -0.055306
      7 C                     0.223524
      8 C                     0.216286
      9 C                    -0.067691
     10 C                    -0.043895
     11 O                    -0.335808
     12 O                    -0.343608
     13 C                    -0.082383
     14 H                     0.119043
     15 H                     0.091769
     16 H                     0.092947
     17 C                    -0.087874
     18 H                     0.122981
     19 H                     0.090135
     20 H                     0.089171
     21 C                    -0.302130
     22 S                    -0.118670
     23 C                     0.102501
     24 H                     0.203274
     25 C                    -0.176182
     26 S                     0.102580
     27 C                    -0.131255
     28 C                    -0.058825
     29 C                    -0.035225
     30 C                     0.395313
     31 C                    -0.119796
     32 S                     0.074645
     33 C                     0.459245
     34 O                    -0.434590
     35 O                    -0.296037
     36 F                    -0.210467
     37 C                    -0.054727
     38 H                     0.117792
     39 H                     0.086218
     40 H                     0.086289
     41 H                     0.222198
     42 H                     0.113109
     43 H                     0.111061
     44 H                     0.189673
  ----------------------------------------
  Sum of atomic charges =     0.000000

                    Cartesian Multipole Moments
 -----------------------------------------------------------------
    Charge (ESU x 10^10)
                -0.0000
    Dipole Moment (Debye)
         X       5.4030      Y       5.1336      Z       2.8145
       Tot       7.9667
    Quadrupole Moments (Debye-Ang)
        XX    -168.3680     XY       6.7387     YY    -201.8887
        XZ     -14.6545     YZ      -4.9154     ZZ    -200.2037

 Total job time:  335.90s(wall), 10932.25s(cpu)
        *  Thank you very much for using Q-Chem.  Have a nice day.  *
