 Q-Chem 5.4, Q-Chem, Inc., Pleasanton, CA (2021)
 Q-Chem 5.4.0 for Intel X86 EM64T Linux

User input:
--------------------------------------------------------------
$molecule
0 1
C	0.047927	-8.519741	-0.267851
C	0.056157	-7.635967	0.801461
S	0.029285	-7.651740	-1.822194
C	0.054516	-6.261894	0.415201
H	0.063290	-7.954738	1.851431
C	0.054687	-6.079985	-1.012650
C	0.028030	-4.798382	-1.584194
C	0.031399	-5.153542	1.309433
C	0.000427	-3.869626	0.737539
C	0.003462	-3.688927	-0.691828
O	0.061128	-5.481075	2.631211
O	-0.003021	-4.479871	-2.911907
C	0.602710	-5.356026	-3.854716
H	0.670671	-4.790496	-4.803517
H	-0.006913	-6.268513	-4.034285
H	1.623507	-5.658187	-3.535185
C	-0.375708	-4.546999	3.610841
H	-0.441115	-5.107564	4.562544
H	-1.376277	-4.131473	3.364029
H	0.346107	-3.712085	3.743566
C	-0.000458	-2.314326	-1.074491
S	0.013144	-2.295487	1.548848
C	0.000000	-1.435180	0.000000
H	-0.004953	-1.993211	-2.123688
C	0.000000	0.000000	0.000000
S	0.002233	0.899428	1.510732
C	0.001157	2.474749	0.727629
C	-0.000030	0.908223	-1.064665
C	-0.001545	2.297013	-0.678287
C	0.001624	0.841837	-2.486150
C	0.001494	2.106670	-3.106916
S	-0.001841	3.354171	-1.965735
C	0.006168	2.361146	-4.559972
O	0.009152	1.427646	-5.350277
O	0.009405	3.644337	-5.004375
F	0.005539	-0.272288	-3.246290
C	0.019554	4.003038	-6.334976
H	0.020155	5.108000	-6.370268
H	-0.871409	3.613681	-6.875609
H	0.918470	3.613062	-6.861878
H	0.001222	3.394771	1.321510
H	-0.851509	-9.146471	-0.257688
H	0.944542	-9.150570	-0.271664
H	-1.079930	-1.444158	0.008462
$end

$rem
JOBTYPE		SP
EXCHANGE	HF
CORRELATION	pRIMP2
BASIS		cc-pvtz
METHOD		rimp2
AUX_BASIS	rimp2-cc-pvtz
SOLVENT_METHOD	PCM
PURECART	11111
SYMMETRY	false
MEM_TOTAL	110000
SCF_CONVERGENCE = 6
THRESH=10
GUI = 2
$end

$solvent
dielectric 4.90
$end
--------------------------------------------------------------

             Standard Nuclear Orientation (Angstroms)
    I     Atom           X                Y                Z
 ----------------------------------------------------------------
    1      C       0.0479270000    -8.5197410000    -0.2678510000
    2      C       0.0561570000    -7.6359670000     0.8014610000
    3      S       0.0292850000    -7.6517400000    -1.8221940000
    4      C       0.0545160000    -6.2618940000     0.4152010000
    5      H       0.0632900000    -7.9547380000     1.8514310000
    6      C       0.0546870000    -6.0799850000    -1.0126500000
    7      C       0.0280300000    -4.7983820000    -1.5841940000
    8      C       0.0313990000    -5.1535420000     1.3094330000
    9      C       0.0004270000    -3.8696260000     0.7375390000
   10      C       0.0034620000    -3.6889270000    -0.6918280000
   11      O       0.0611280000    -5.4810750000     2.6312110000
   12      O      -0.0030210000    -4.4798710000    -2.9119070000
   13      C       0.6027100000    -5.3560260000    -3.8547160000
   14      H       0.6706710000    -4.7904960000    -4.8035170000
   15      H      -0.0069130000    -6.2685130000    -4.0342850000
   16      H       1.6235070000    -5.6581870000    -3.5351850000
   17      C      -0.3757080000    -4.5469990000     3.6108410000
   18      H      -0.4411150000    -5.1075640000     4.5625440000
   19      H      -1.3762770000    -4.1314730000     3.3640290000
   20      H       0.3461070000    -3.7120850000     3.7435660000
   21      C      -0.0004580000    -2.3143260000    -1.0744910000
   22      S       0.0131440000    -2.2954870000     1.5488480000
   23      C       0.0000000000    -1.4351800000     0.0000000000
   24      H      -0.0049530000    -1.9932110000    -2.1236880000
   25      C       0.0000000000     0.0000000000     0.0000000000
   26      S       0.0022330000     0.8994280000     1.5107320000
   27      C       0.0011570000     2.4747490000     0.7276290000
   28      C      -0.0000300000     0.9082230000    -1.0646650000
   29      C      -0.0015450000     2.2970130000    -0.6782870000
   30      C       0.0016240000     0.8418370000    -2.4861500000
   31      C       0.0014940000     2.1066700000    -3.1069160000
   32      S      -0.0018410000     3.3541710000    -1.9657350000
   33      C       0.0061680000     2.3611460000    -4.5599720000
   34      O       0.0091520000     1.4276460000    -5.3502770000
   35      O       0.0094050000     3.6443370000    -5.0043750000
   36      F       0.0055390000    -0.2722880000    -3.2462900000
   37      C       0.0195540000     4.0030380000    -6.3349760000
   38      H       0.0201550000     5.1080000000    -6.3702680000
   39      H      -0.8714090000     3.6136810000    -6.8756090000
   40      H       0.9184700000     3.6130620000    -6.8618780000
   41      H       0.0012220000     3.3947710000     1.3215100000
   42      H      -0.8515090000    -9.1464710000    -0.2576880000
   43      H       0.9445420000    -9.1505700000    -0.2716640000
   44      H      -1.0799300000    -1.4441580000     0.0084620000
 ----------------------------------------------------------------

   11   -2755.3261874808      6.77e-07  Convergence criterion met
 Total energy in the final basis set =    -2755.3261874808
        RIMP2         total energy =     -2760.4162599110 a.u.

                    Orbital Energies (a.u.)
 --------------------------------------------------------------

 Alpha MOs
 -- Occupied --
-92.0148 -91.9918 -91.9840 -91.9605 -26.3402 -20.6106 -20.5907 -20.5873
-20.5469 -11.4078 -11.3802 -11.3280 -11.3137 -11.3102 -11.2966 -11.2911
-11.2888 -11.2878 -11.2869 -11.2861 -11.2824 -11.2808 -11.2760 -11.2751
-11.2691 -11.2622 -11.2609 -11.2523 -11.2436  -9.0134  -8.9959  -8.9862
 -8.9630  -6.6943  -6.6936  -6.6931  -6.6772  -6.6765  -6.6752  -6.6674
 -6.6665  -6.6652  -6.6443  -6.6433  -6.6423  -1.6549  -1.4701  -1.4139
 -1.4093  -1.3650  -1.2380  -1.2113  -1.1785  -1.1435  -1.1016  -1.0502
 -1.0490  -1.0284  -1.0111  -1.0008  -0.9714  -0.9602  -0.9509  -0.9409
 -0.8966  -0.8732  -0.8635  -0.8119  -0.7977  -0.7883  -0.7756  -0.7707
 -0.7638  -0.7341  -0.7229  -0.7215  -0.6995  -0.6965  -0.6847  -0.6775
 -0.6725  -0.6716  -0.6583  -0.6497  -0.6401  -0.6310  -0.6226  -0.6163
 -0.6082  -0.6046  -0.5955  -0.5907  -0.5777  -0.5722  -0.5605  -0.5505
 -0.5496  -0.5370  -0.5333  -0.5227  -0.5153  -0.5101  -0.5070  -0.5019
 -0.4848  -0.4835  -0.4804  -0.4696  -0.4634  -0.4603  -0.4576  -0.4487
 -0.4346  -0.3983  -0.3891  -0.3730  -0.3508  -0.2944  -0.2836  -0.2195

          Ground-State Mulliken Net Atomic Charges

     Atom                 Charge (a.u.)
  ----------------------------------------
      1 C                    -0.071043
      2 C                    -0.241927
      3 S                    -0.129934
      4 C                    -0.052303
      5 H                     0.195767
      6 C                    -0.049040
      7 C                     0.230818
      8 C                     0.240840
      9 C                    -0.080748
     10 C                    -0.029741
     11 O                    -0.333008
     12 O                    -0.343367
     13 C                    -0.083459
     14 H                     0.122128
     15 H                     0.092238
     16 H                     0.092692
     17 C                    -0.089133
     18 H                     0.125586
     19 H                     0.093775
     20 H                     0.090620
     21 C                    -0.352345
     22 S                    -0.094202
     23 C                     0.135212
     24 H                     0.220588
     25 C                    -0.099852
     26 S                     0.072074
     27 C                    -0.274970
     28 C                    -0.050979
     29 C                    -0.015223
     30 C                     0.418903
     31 C                    -0.152199
     32 S                     0.025730
     33 C                     0.464734
     34 O                    -0.457341
     35 O                    -0.298681
     36 F                    -0.219487
     37 C                    -0.055294
     38 H                     0.116401
     39 H                     0.084012
     40 H                     0.083954
     41 H                     0.215045
     42 H                     0.119820
     43 H                     0.117615
     44 H                     0.215725
  ----------------------------------------
  Sum of atomic charges =     0.000000

                    Cartesian Multipole Moments
 -----------------------------------------------------------------
    Charge (ESU x 10^10)
                 0.0000
    Dipole Moment (Debye)
         X      -0.6990      Y       1.0263      Z       3.8437
       Tot       4.0393
    Quadrupole Moments (Debye-Ang)
        XX    -199.6511     XY       0.0704     YY    -165.6887
        XZ      -5.7652     YZ     -14.4900     ZZ    -191.1334

 Total job time:  334.59s(wall), 11013.01s(cpu)
        *  Thank you very much for using Q-Chem.  Have a nice day.  *
