 Q-Chem 5.4, Q-Chem, Inc., Pleasanton, CA (2021)
 Q-Chem 5.4.0 for Intel X86 EM64T Linux

User input:
--------------------------------------------------------------
$molecule
0 1
C	-0.136647	-8.519741	0.235306
C	0.221346	-7.635967	-0.772334
S	-0.650746	-7.651740	1.702286
C	0.090779	-6.261894	-0.408807
H	0.573754	-7.954738	-1.761423
C	-0.397735	-6.079985	0.932876
C	-0.568166	-4.798382	1.479069
C	0.418347	-5.153542	-1.241204
C	0.251852	-3.869626	-0.693206
C	-0.239872	-3.688927	0.648921
O	0.842486	-5.481075	-2.493437
O	-0.993092	-4.479871	2.737331
C	-1.884752	-5.356026	3.416110
H	-2.273124	-4.790496	4.284447
H	-1.373310	-6.268513	3.793352
H	-2.734702	-5.658187	2.766716
C	1.588030	-4.546999	-3.264581
H	1.974995	-5.107564	-4.136519
H	2.443843	-4.131473	-2.690439
H	0.955140	-3.712085	-3.636177
C	-0.367068	-2.314326	1.009848
S	0.517386	-2.295487	-1.459936
C	-0.000000	-1.435180	-0.000000
H	-0.721689	-1.993211	1.997308
C	0.000000	0.000000	0.000000
S	0.690437	0.576430	1.510732
C	1.896512	1.589852	0.727629
C	0.695720	0.583817	-1.064665
C	1.758621	1.477674	-0.678287
C	0.645928	0.539878	-2.486150
C	1.614763	1.352997	-3.106916
S	2.568261	2.157430	-1.965735
C	1.812707	1.512991	-4.559972
O	1.099523	0.910662	-5.350277
O	2.797769	2.335330	-5.004375
F	-0.205024	-0.179266	-3.246290
C	3.079074	2.558124	-6.334976
H	3.925910	3.267919	-6.370268
H	2.208109	2.990367	-6.875609
H	3.358147	1.618843	-6.861878
H	2.601331	2.181180	1.321510
H	0.712022	-9.146471	0.533380
H	-0.980494	-9.150570	-0.067771
H	1.017696	-1.444158	0.361406
$end

$rem
JOBTYPE		SP
EXCHANGE	HF
CORRELATION	pRIMP2
BASIS		cc-pvtz
METHOD		rimp2
AUX_BASIS	rimp2-cc-pvtz
SOLVENT_METHOD	PCM
PURECART	11111
SYMMETRY	false
MEM_TOTAL	110000
SCF_CONVERGENCE = 6
THRESH=10
GUI = 2
$end

$solvent
dielectric 4.90
$end
--------------------------------------------------------------

             Standard Nuclear Orientation (Angstroms)
    I     Atom           X                Y                Z
 ----------------------------------------------------------------
    1      C      -0.1366470000    -8.5197410000     0.2353060000
    2      C       0.2213460000    -7.6359670000    -0.7723340000
    3      S      -0.6507460000    -7.6517400000     1.7022860000
    4      C       0.0907790000    -6.2618940000    -0.4088070000
    5      H       0.5737540000    -7.9547380000    -1.7614230000
    6      C      -0.3977350000    -6.0799850000     0.9328760000
    7      C      -0.5681660000    -4.7983820000     1.4790690000
    8      C       0.4183470000    -5.1535420000    -1.2412040000
    9      C       0.2518520000    -3.8696260000    -0.6932060000
   10      C      -0.2398720000    -3.6889270000     0.6489210000
   11      O       0.8424860000    -5.4810750000    -2.4934370000
   12      O      -0.9930920000    -4.4798710000     2.7373310000
   13      C      -1.8847520000    -5.3560260000     3.4161100000
   14      H      -2.2731240000    -4.7904960000     4.2844470000
   15      H      -1.3733100000    -6.2685130000     3.7933520000
   16      H      -2.7347020000    -5.6581870000     2.7667160000
   17      C       1.5880300000    -4.5469990000    -3.2645810000
   18      H       1.9749950000    -5.1075640000    -4.1365190000
   19      H       2.4438430000    -4.1314730000    -2.6904390000
   20      H       0.9551400000    -3.7120850000    -3.6361770000
   21      C      -0.3670680000    -2.3143260000     1.0098480000
   22      S       0.5173860000    -2.2954870000    -1.4599360000
   23      C       0.0000000000    -1.4351800000     0.0000000000
   24      H      -0.7216890000    -1.9932110000     1.9973080000
   25      C       0.0000000000     0.0000000000     0.0000000000
   26      S       0.6904370000     0.5764300000     1.5107320000
   27      C       1.8965120000     1.5898520000     0.7276290000
   28      C       0.6957200000     0.5838170000    -1.0646650000
   29      C       1.7586210000     1.4776740000    -0.6782870000
   30      C       0.6459280000     0.5398780000    -2.4861500000
   31      C       1.6147630000     1.3529970000    -3.1069160000
   32      S       2.5682610000     2.1574300000    -1.9657350000
   33      C       1.8127070000     1.5129910000    -4.5599720000
   34      O       1.0995230000     0.9106620000    -5.3502770000
   35      O       2.7977690000     2.3353300000    -5.0043750000
   36      F      -0.2050240000    -0.1792660000    -3.2462900000
   37      C       3.0790740000     2.5581240000    -6.3349760000
   38      H       3.9259100000     3.2679190000    -6.3702680000
   39      H       2.2081090000     2.9903670000    -6.8756090000
   40      H       3.3581470000     1.6188430000    -6.8618780000
   41      H       2.6013310000     2.1811800000     1.3215100000
   42      H       0.7120220000    -9.1464710000     0.5333800000
   43      H      -0.9804940000    -9.1505700000    -0.0677710000
   44      H       1.0176960000    -1.4441580000     0.3614060000
 ----------------------------------------------------------------

   11   -2755.2745088729      5.75e-07  Convergence criterion met
 Total energy in the final basis set =    -2755.2745088729
        RIMP2         total energy =     -2760.3840587190 a.u.

                    Orbital Energies (a.u.)
 --------------------------------------------------------------

 Alpha MOs
 -- Occupied --
-92.0070 -91.9970 -91.9740 -91.9599 -26.3345 -20.6131 -20.5877 -20.5874
-20.5515 -11.4117 -11.3789 -11.3097 -11.3089 -11.3045 -11.3040 -11.3005
-11.2989 -11.2891 -11.2846 -11.2838 -11.2832 -11.2815 -11.2804 -11.2751
-11.2664 -11.2602 -11.2593 -11.2516 -11.2418  -9.0071  -9.0010  -8.9767
 -8.9625  -6.6879  -6.6871  -6.6867  -6.6823  -6.6816  -6.6803  -6.6577
 -6.6569  -6.6555  -6.6437  -6.6428  -6.6417  -1.6490  -1.4729  -1.4110
 -1.4093  -1.3684  -1.2468  -1.2080  -1.1783  -1.1462  -1.0984  -1.0543
 -1.0460  -1.0332  -1.0066  -0.9982  -0.9736  -0.9593  -0.9499  -0.9413
 -0.8940  -0.8732  -0.8593  -0.8127  -0.7959  -0.7858  -0.7764  -0.7668
 -0.7636  -0.7332  -0.7221  -0.7162  -0.6971  -0.6959  -0.6842  -0.6794
 -0.6742  -0.6725  -0.6560  -0.6488  -0.6369  -0.6277  -0.6218  -0.6155
 -0.6113  -0.6076  -0.5996  -0.5944  -0.5772  -0.5672  -0.5625  -0.5589
 -0.5459  -0.5333  -0.5303  -0.5212  -0.5135  -0.5081  -0.5040  -0.5013
 -0.4862  -0.4831  -0.4778  -0.4636  -0.4624  -0.4611  -0.4592  -0.4475
 -0.4266  -0.4006  -0.3811  -0.3726  -0.3514  -0.2970  -0.2837  -0.2159

          Ground-State Mulliken Net Atomic Charges

     Atom                 Charge (a.u.)
  ----------------------------------------
      1 C                    -0.071210
      2 C                    -0.245158
      3 S                    -0.131639
      4 C                    -0.052635
      5 H                     0.195528
      6 C                    -0.047009
      7 C                     0.215933
      8 C                     0.231113
      9 C                    -0.074173
     10 C                    -0.014154
     11 O                    -0.334264
     12 O                    -0.343338
     13 C                    -0.082767
     14 H                     0.119958
     15 H                     0.091648
     16 H                     0.093140
     17 C                    -0.089610
     18 H                     0.124241
     19 H                     0.091725
     20 H                     0.093773
     21 C                    -0.341379
     22 S                    -0.100568
     23 C                     0.123012
     24 H                     0.199824
     25 C                    -0.041444
     26 S                     0.074183
     27 C                    -0.208404
     28 C                    -0.099244
     29 C                    -0.020749
     30 C                     0.345129
     31 C                    -0.134234
     32 S                     0.049146
     33 C                     0.458694
     34 O                    -0.448067
     35 O                    -0.297992
     36 F                    -0.208493
     37 C                    -0.054676
     38 H                     0.116852
     39 H                     0.084902
     40 H                     0.084513
     41 H                     0.216945
     42 H                     0.119352
     43 H                     0.117217
     44 H                     0.194383
  ----------------------------------------
  Sum of atomic charges =     0.000000

                    Cartesian Multipole Moments
 -----------------------------------------------------------------
    Charge (ESU x 10^10)
                -0.0000
    Dipole Moment (Debye)
         X       3.6680      Y       1.4826      Z       2.8085
       Tot       4.8518
    Quadrupole Moments (Debye-Ang)
        XX    -184.3591     XY       7.1019     YY    -175.8633
        XZ     -17.6732     YZ      -2.7636     ZZ    -194.2105

 Total job time:  337.57s(wall), 10719.69s(cpu)
        *  Thank you very much for using Q-Chem.  Have a nice day.  *
