 Q-Chem 5.4, Q-Chem, Inc., Pleasanton, CA (2021)
 Q-Chem 5.4.0 for Intel X86 EM64T Linux

User input:
--------------------------------------------------------------
$molecule
0 1
C	0.272104	-8.519741	0.000687
C	-0.779533	-7.635967	0.194476
S	1.799596	-7.651740	-0.287581
C	-0.399427	-6.261894	0.125787
H	-1.812314	-7.954738	0.383826
C	1.006762	-6.079985	-0.121989
C	1.564994	-4.798382	-0.247488
C	-1.284087	-5.153542	0.258303
C	-0.726260	-3.869626	0.128493
C	0.681918	-3.688927	-0.116725
O	-2.580622	-5.481075	0.517104
O	2.867144	-4.479871	-0.508622
C	3.900814	-5.356026	-0.075811
H	4.847002	-4.790496	-0.173640
H	3.971794	-6.268513	-0.707354
H	3.763397	-5.658187	0.984963
C	-3.621225	-4.546999	0.257016
H	-4.569828	-5.107564	0.357864
H	-3.551910	-4.131473	-0.771211
H	-3.626592	-3.712085	0.990913
C	1.058088	-2.314326	-0.187034
S	-1.523035	-2.295487	0.281899
C	0.000000	-1.435180	0.000000
H	2.090565	-1.993211	-0.373653
C	0.000000	0.000000	0.000000
S	0.780044	0.447780	1.510732
C	2.143774	1.236372	0.727629
C	0.786529	0.454137	-1.064665
C	1.988499	1.149844	-0.678287
C	0.729864	0.419512	-2.486150
C	1.825177	1.052041	-3.106916
S	2.903877	1.678680	-1.965735
C	2.047896	1.175232	-4.559972
O	1.240953	0.705897	-5.350277
O	3.160791	1.814024	-5.004375
F	-0.233039	-0.140940	-3.246290
C	3.476510	1.984585	-6.334976
H	4.433735	2.536545	-6.370268
H	2.693835	2.561503	-6.875609
H	3.588239	1.011113	-6.861878
H	2.940569	1.696327	1.321510
H	0.105910	-9.146471	-0.883319
H	0.431555	-9.150570	0.883019
H	-0.195861	-1.444158	-1.062054
$end

$rem
JOBTYPE		SP
EXCHANGE	HF
CORRELATION	pRIMP2
BASIS		cc-pvtz
METHOD		rimp2
AUX_BASIS	rimp2-cc-pvtz
SOLVENT_METHOD	PCM
PURECART	11111
SYMMETRY	false
MEM_TOTAL	110000
SCF_CONVERGENCE = 6
THRESH=10
GUI = 2
$end

$solvent
dielectric 4.90
$end
--------------------------------------------------------------

             Standard Nuclear Orientation (Angstroms)
    I     Atom           X                Y                Z
 ----------------------------------------------------------------
    1      C       0.2721040000    -8.5197410000     0.0006870000
    2      C      -0.7795330000    -7.6359670000     0.1944760000
    3      S       1.7995960000    -7.6517400000    -0.2875810000
    4      C      -0.3994270000    -6.2618940000     0.1257870000
    5      H      -1.8123140000    -7.9547380000     0.3838260000
    6      C       1.0067620000    -6.0799850000    -0.1219890000
    7      C       1.5649940000    -4.7983820000    -0.2474880000
    8      C      -1.2840870000    -5.1535420000     0.2583030000
    9      C      -0.7262600000    -3.8696260000     0.1284930000
   10      C       0.6819180000    -3.6889270000    -0.1167250000
   11      O      -2.5806220000    -5.4810750000     0.5171040000
   12      O       2.8671440000    -4.4798710000    -0.5086220000
   13      C       3.9008140000    -5.3560260000    -0.0758110000
   14      H       4.8470020000    -4.7904960000    -0.1736400000
   15      H       3.9717940000    -6.2685130000    -0.7073540000
   16      H       3.7633970000    -5.6581870000     0.9849630000
   17      C      -3.6212250000    -4.5469990000     0.2570160000
   18      H      -4.5698280000    -5.1075640000     0.3578640000
   19      H      -3.5519100000    -4.1314730000    -0.7712110000
   20      H      -3.6265920000    -3.7120850000     0.9909130000
   21      C       1.0580880000    -2.3143260000    -0.1870340000
   22      S      -1.5230350000    -2.2954870000     0.2818990000
   23      C       0.0000000000    -1.4351800000     0.0000000000
   24      H       2.0905650000    -1.9932110000    -0.3736530000
   25      C       0.0000000000     0.0000000000     0.0000000000
   26      S       0.7800440000     0.4477800000     1.5107320000
   27      C       2.1437740000     1.2363720000     0.7276290000
   28      C       0.7865290000     0.4541370000    -1.0646650000
   29      C       1.9884990000     1.1498440000    -0.6782870000
   30      C       0.7298640000     0.4195120000    -2.4861500000
   31      C       1.8251770000     1.0520410000    -3.1069160000
   32      S       2.9038770000     1.6786800000    -1.9657350000
   33      C       2.0478960000     1.1752320000    -4.5599720000
   34      O       1.2409530000     0.7058970000    -5.3502770000
   35      O       3.1607910000     1.8140240000    -5.0043750000
   36      F      -0.2330390000    -0.1409400000    -3.2462900000
   37      C       3.4765100000     1.9845850000    -6.3349760000
   38      H       4.4337350000     2.5365450000    -6.3702680000
   39      H       2.6938350000     2.5615030000    -6.8756090000
   40      H       3.5882390000     1.0111130000    -6.8618780000
   41      H       2.9405690000     1.6963270000     1.3215100000
   42      H       0.1059100000    -9.1464710000    -0.8833190000
   43      H       0.4315550000    -9.1505700000     0.8830190000
   44      H      -0.1958610000    -1.4441580000    -1.0620540000
 ----------------------------------------------------------------

   11   -2755.2641204802      7.39e-07  Convergence criterion met
 Total energy in the final basis set =    -2755.2641204802
        RIMP2         total energy =     -2760.3737853304 a.u.

                    Orbital Energies (a.u.)
 --------------------------------------------------------------

 Alpha MOs
 -- Occupied --
-92.0123 -92.0095 -91.9666 -91.9562 -26.3388 -20.6177 -20.5862 -20.5831
-20.5596 -11.4187 -11.3791 -11.3288 -11.3164 -11.3072 -11.3029 -11.3012
-11.2980 -11.2914 -11.2824 -11.2813 -11.2779 -11.2730 -11.2716 -11.2702
-11.2681 -11.2554 -11.2539 -11.2474 -11.2321  -9.0129  -9.0118  -8.9691
 -8.9588  -6.6941  -6.6935  -6.6923  -6.6922  -6.6914  -6.6913  -6.6501
 -6.6493  -6.6481  -6.6401  -6.6392  -6.6381  -1.6519  -1.4780  -1.4083
 -1.4061  -1.3744  -1.2511  -1.2054  -1.1743  -1.1473  -1.0984  -1.0572
 -1.0424  -1.0351  -1.0057  -0.9937  -0.9772  -0.9589  -0.9476  -0.9408
 -0.8902  -0.8797  -0.8566  -0.8103  -0.7987  -0.7842  -0.7821  -0.7704
 -0.7582  -0.7337  -0.7218  -0.7171  -0.6982  -0.6931  -0.6864  -0.6833
 -0.6800  -0.6750  -0.6534  -0.6466  -0.6335  -0.6261  -0.6179  -0.6147
 -0.6135  -0.6100  -0.6047  -0.5939  -0.5771  -0.5659  -0.5564  -0.5544
 -0.5461  -0.5335  -0.5246  -0.5228  -0.5108  -0.5064  -0.5046  -0.4989
 -0.4928  -0.4830  -0.4697  -0.4664  -0.4657  -0.4637  -0.4544  -0.4425
 -0.4152  -0.4000  -0.3802  -0.3678  -0.3494  -0.3073  -0.2855  -0.2168

          Ground-State Mulliken Net Atomic Charges

     Atom                 Charge (a.u.)
  ----------------------------------------
      1 C                    -0.069283
      2 C                    -0.272322
      3 S                    -0.140012
      4 C                    -0.040104
      5 H                     0.191931
      6 C                    -0.051245
      7 C                     0.221657
      8 C                     0.218899
      9 C                    -0.075018
     10 C                    -0.050336
     11 O                    -0.336731
     12 O                    -0.344680
     13 C                    -0.082725
     14 H                     0.118847
     15 H                     0.092311
     16 H                     0.092518
     17 C                    -0.086404
     18 H                     0.122054
     19 H                     0.091698
     20 H                     0.090273
     21 C                    -0.276022
     22 S                    -0.112392
     23 C                     0.084201
     24 H                     0.207433
     25 C                    -0.201085
     26 S                     0.112726
     27 C                    -0.136049
     28 C                    -0.050748
     29 C                    -0.031153
     30 C                     0.361380
     31 C                    -0.111240
     32 S                     0.082229
     33 C                     0.458213
     34 O                    -0.435618
     35 O                    -0.296143
     36 F                    -0.210201
     37 C                    -0.054708
     38 H                     0.117873
     39 H                     0.086202
     40 H                     0.086288
     41 H                     0.221801
     42 H                     0.115817
     43 H                     0.113229
     44 H                     0.176637
  ----------------------------------------
  Sum of atomic charges =     0.000000

                    Cartesian Multipole Moments
 -----------------------------------------------------------------
    Charge (ESU x 10^10)
                 0.0000
    Dipole Moment (Debye)
         X       5.2929      Y       4.2830      Z       1.7792
       Tot       7.0373
    Quadrupole Moments (Debye-Ang)
        XX    -168.1697     XY      12.4117     YY    -192.5233
        XZ      -8.6643     YZ      -7.1770     ZZ    -200.9313

 Total job time:  342.49s(wall), 11181.04s(cpu)
        *  Thank you very much for using Q-Chem.  Have a nice day.  *
