 Q-Chem 5.4, Q-Chem, Inc., Pleasanton, CA (2021)
 Q-Chem 5.4.0 for Intel X86 EM64T Linux

User input:
--------------------------------------------------------------
$molecule
0 1
C	0.136647	-8.519741	-0.235306
C	-0.221346	-7.635967	0.772334
S	0.650746	-7.651740	-1.702286
C	-0.090779	-6.261894	0.408807
H	-0.573754	-7.954738	1.761423
C	0.397735	-6.079985	-0.932876
C	0.568166	-4.798382	-1.479069
C	-0.418347	-5.153542	1.241204
C	-0.251852	-3.869626	0.693206
C	0.239872	-3.688927	-0.648921
O	-0.842486	-5.481075	2.493437
O	0.993092	-4.479871	-2.737331
C	1.884752	-5.356026	-3.416110
H	2.273124	-4.790496	-4.284447
H	1.373310	-6.268513	-3.793352
H	2.734702	-5.658187	-2.766716
C	-1.588030	-4.546999	3.264581
H	-1.974995	-5.107564	4.136519
H	-2.443843	-4.131473	2.690439
H	-0.955140	-3.712085	3.636177
C	0.367068	-2.314326	-1.009848
S	-0.517386	-2.295487	1.459936
C	0.000000	-1.435180	0.000000
H	0.721689	-1.993211	-1.997308
C	0.000000	0.000000	0.000000
S	0.780044	0.447780	1.510732
C	2.143774	1.236372	0.727629
C	0.786529	0.454137	-1.064665
C	1.988499	1.149844	-0.678287
C	0.729864	0.419512	-2.486150
C	1.825177	1.052041	-3.106916
S	2.903877	1.678680	-1.965735
C	2.047896	1.175232	-4.559972
O	1.240953	0.705897	-5.350277
O	3.160791	1.814024	-5.004375
F	-0.233039	-0.140940	-3.246290
C	3.476510	1.984585	-6.334976
H	4.433735	2.536545	-6.370268
H	2.693835	2.561503	-6.875609
H	3.588239	1.011113	-6.861878
H	2.940569	1.696327	1.321510
H	-0.712022	-9.146471	-0.533380
H	0.980494	-9.150570	0.067771
H	-1.017696	-1.444158	-0.361406
$end

$rem
JOBTYPE		SP
EXCHANGE	HF
CORRELATION	pRIMP2
BASIS		cc-pvtz
METHOD		rimp2
AUX_BASIS	rimp2-cc-pvtz
SOLVENT_METHOD	PCM
PURECART	11111
SYMMETRY	false
MEM_TOTAL	110000
SCF_CONVERGENCE = 6
THRESH=10
GUI = 2
$end

$solvent
dielectric 4.90
$end
--------------------------------------------------------------

             Standard Nuclear Orientation (Angstroms)
    I     Atom           X                Y                Z
 ----------------------------------------------------------------
    1      C       0.1366470000    -8.5197410000    -0.2353060000
    2      C      -0.2213460000    -7.6359670000     0.7723340000
    3      S       0.6507460000    -7.6517400000    -1.7022860000
    4      C      -0.0907790000    -6.2618940000     0.4088070000
    5      H      -0.5737540000    -7.9547380000     1.7614230000
    6      C       0.3977350000    -6.0799850000    -0.9328760000
    7      C       0.5681660000    -4.7983820000    -1.4790690000
    8      C      -0.4183470000    -5.1535420000     1.2412040000
    9      C      -0.2518520000    -3.8696260000     0.6932060000
   10      C       0.2398720000    -3.6889270000    -0.6489210000
   11      O      -0.8424860000    -5.4810750000     2.4934370000
   12      O       0.9930920000    -4.4798710000    -2.7373310000
   13      C       1.8847520000    -5.3560260000    -3.4161100000
   14      H       2.2731240000    -4.7904960000    -4.2844470000
   15      H       1.3733100000    -6.2685130000    -3.7933520000
   16      H       2.7347020000    -5.6581870000    -2.7667160000
   17      C      -1.5880300000    -4.5469990000     3.2645810000
   18      H      -1.9749950000    -5.1075640000     4.1365190000
   19      H      -2.4438430000    -4.1314730000     2.6904390000
   20      H      -0.9551400000    -3.7120850000     3.6361770000
   21      C       0.3670680000    -2.3143260000    -1.0098480000
   22      S      -0.5173860000    -2.2954870000     1.4599360000
   23      C       0.0000000000    -1.4351800000     0.0000000000
   24      H       0.7216890000    -1.9932110000    -1.9973080000
   25      C       0.0000000000     0.0000000000     0.0000000000
   26      S       0.7800440000     0.4477800000     1.5107320000
   27      C       2.1437740000     1.2363720000     0.7276290000
   28      C       0.7865290000     0.4541370000    -1.0646650000
   29      C       1.9884990000     1.1498440000    -0.6782870000
   30      C       0.7298640000     0.4195120000    -2.4861500000
   31      C       1.8251770000     1.0520410000    -3.1069160000
   32      S       2.9038770000     1.6786800000    -1.9657350000
   33      C       2.0478960000     1.1752320000    -4.5599720000
   34      O       1.2409530000     0.7058970000    -5.3502770000
   35      O       3.1607910000     1.8140240000    -5.0043750000
   36      F      -0.2330390000    -0.1409400000    -3.2462900000
   37      C       3.4765100000     1.9845850000    -6.3349760000
   38      H       4.4337350000     2.5365450000    -6.3702680000
   39      H       2.6938350000     2.5615030000    -6.8756090000
   40      H       3.5882390000     1.0111130000    -6.8618780000
   41      H       2.9405690000     1.6963270000     1.3215100000
   42      H      -0.7120220000    -9.1464710000    -0.5333800000
   43      H       0.9804940000    -9.1505700000     0.0677710000
   44      H      -1.0176960000    -1.4441580000    -0.3614060000
 ----------------------------------------------------------------

   11   -2755.2455648606      8.00e-07  Convergence criterion met
 Total energy in the final basis set =    -2755.2455648606
        RIMP2         total energy =     -2760.3634759717 a.u.

                    Orbital Energies (a.u.)
 --------------------------------------------------------------

 Alpha MOs
 -- Occupied --
-92.0124 -92.0073 -91.9763 -91.9549 -26.3392 -20.6163 -20.5858 -20.5851
-20.5572 -11.4166 -11.3782 -11.3218 -11.3116 -11.3078 -11.3039 -11.3024
-11.2939 -11.2909 -11.2836 -11.2818 -11.2815 -11.2781 -11.2742 -11.2723
-11.2677 -11.2556 -11.2514 -11.2466 -11.2303  -9.0120  -9.0107  -8.9786
 -8.9576  -6.6926  -6.6919  -6.6916  -6.6915  -6.6912  -6.6900  -6.6597
 -6.6589  -6.6577  -6.6388  -6.6379  -6.6369  -1.6528  -1.4765  -1.4086
 -1.4074  -1.3727  -1.2490  -1.2076  -1.1738  -1.1469  -1.0978  -1.0565
 -1.0445  -1.0339  -1.0066  -0.9966  -0.9759  -0.9602  -0.9473  -0.9407
 -0.8933  -0.8775  -0.8580  -0.8075  -0.8007  -0.7861  -0.7763  -0.7746
 -0.7592  -0.7350  -0.7249  -0.7170  -0.6975  -0.6944  -0.6835  -0.6820
 -0.6790  -0.6696  -0.6554  -0.6473  -0.6399  -0.6269  -0.6171  -0.6131
 -0.6119  -0.6109  -0.6042  -0.5928  -0.5781  -0.5683  -0.5575  -0.5558
 -0.5391  -0.5347  -0.5284  -0.5225  -0.5120  -0.5105  -0.5062  -0.4998
 -0.4902  -0.4809  -0.4714  -0.4688  -0.4648  -0.4604  -0.4539  -0.4435
 -0.4281  -0.3911  -0.3853  -0.3665  -0.3483  -0.3012  -0.2855  -0.2108

          Ground-State Mulliken Net Atomic Charges

     Atom                 Charge (a.u.)
  ----------------------------------------
      1 C                    -0.068844
      2 C                    -0.279446
      3 S                    -0.143405
      4 C                    -0.042361
      5 H                     0.190818
      6 C                    -0.056101
      7 C                     0.232944
      8 C                     0.227648
      9 C                    -0.073583
     10 C                    -0.057140
     11 O                    -0.335288
     12 O                    -0.344672
     13 C                    -0.083141
     14 H                     0.120205
     15 H                     0.092705
     16 H                     0.092176
     17 C                    -0.087325
     18 H                     0.123704
     19 H                     0.092262
     20 H                     0.088701
     21 C                    -0.269498
     22 S                    -0.108219
     23 C                     0.075842
     24 H                     0.200097
     25 C                    -0.173991
     26 S                     0.121875
     27 C                    -0.161841
     28 C                    -0.043076
     29 C                    -0.027703
     30 C                     0.343619
     31 C                    -0.121972
     32 S                     0.078289
     33 C                     0.461072
     34 O                    -0.440643
     35 O                    -0.296858
     36 F                    -0.217568
     37 C                    -0.054772
     38 H                     0.117614
     39 H                     0.085820
     40 H                     0.085609
     41 H                     0.219823
     42 H                     0.114772
     43 H                     0.112257
     44 H                     0.209594
  ----------------------------------------
  Sum of atomic charges =     0.000000

                    Cartesian Multipole Moments
 -----------------------------------------------------------------
    Charge (ESU x 10^10)
                 0.0000
    Dipole Moment (Debye)
         X       4.3116      Y       4.0950      Z       2.5656
       Tot       6.4762
    Quadrupole Moments (Debye-Ang)
        XX    -178.8401     XY      10.2460     YY    -195.9726
        XZ     -19.8715     YZ      -9.6800     ZZ    -191.7296

 Total job time:  336.03s(wall), 10853.62s(cpu)
        *  Thank you very much for using Q-Chem.  Have a nice day.  *
