 Q-Chem 5.4, Q-Chem, Inc., Pleasanton, CA (2021)
 Q-Chem 5.4.0 for Intel X86 EM64T Linux

User input:
--------------------------------------------------------------
$molecule
0 1
C	0.208002	-8.519741	0.175432
C	-0.722164	-7.635967	-0.352097
S	1.563424	-7.651740	0.936458
C	-0.386833	-6.261894	-0.160388
H	-1.635031	-7.954738	-0.870905
C	0.849637	-6.079985	0.553685
C	1.357938	-4.798382	0.816372
C	-1.149702	-5.153542	-0.627524
C	-0.638941	-3.869626	-0.368399
C	0.597409	-3.688927	0.348912
O	-2.309260	-5.481075	-1.262667
O	2.523296	-4.479871	1.453338
C	3.036927	-5.356026	2.449320
H	3.824632	-4.790496	2.982577
H	3.497250	-6.268513	2.011155
H	2.249807	-5.658187	3.173591
C	-2.939226	-4.546999	-2.130793
H	-3.730721	-5.107564	-2.663289
H	-2.225196	-4.131473	-2.873906
H	-3.415077	-3.712085	-1.572045
C	0.930765	-2.314326	0.536849
S	-1.347913	-2.295487	-0.763041
C	-0.000000	-1.435180	-0.000000
H	1.841645	-1.993211	1.057554
C	0.000000	0.000000	0.000000
S	0.690437	0.576430	1.510732
C	1.896512	1.589852	0.727629
C	0.695720	0.583817	-1.064665
C	1.758621	1.477674	-0.678287
C	0.645928	0.539878	-2.486150
C	1.614763	1.352997	-3.106916
S	2.568261	2.157430	-1.965735
C	1.812707	1.512991	-4.559972
O	1.099523	0.910662	-5.350277
O	2.797769	2.335330	-5.004375
F	-0.205024	-0.179266	-3.246290
C	3.079074	2.558124	-6.334976
H	3.925910	3.267919	-6.370268
H	2.208109	2.990367	-6.875609
H	3.358147	1.618843	-6.861878
H	2.601331	2.181180	1.321510
H	0.648918	-9.146471	-0.608584
H	-0.237003	-9.150570	0.953830
H	0.532637	-1.444158	-0.939477
$end

$rem
JOBTYPE		SP
EXCHANGE	HF
CORRELATION	pRIMP2
BASIS		cc-pvtz
METHOD		rimp2
AUX_BASIS	rimp2-cc-pvtz
SOLVENT_METHOD	PCM
PURECART	11111
SYMMETRY	false
MEM_TOTAL	110000
SCF_CONVERGENCE = 6
THRESH=10
GUI = 2
$end

$solvent
dielectric 4.90
$end
--------------------------------------------------------------

             Standard Nuclear Orientation (Angstroms)
    I     Atom           X                Y                Z
 ----------------------------------------------------------------
    1      C       0.2080020000    -8.5197410000     0.1754320000
    2      C      -0.7221640000    -7.6359670000    -0.3520970000
    3      S       1.5634240000    -7.6517400000     0.9364580000
    4      C      -0.3868330000    -6.2618940000    -0.1603880000
    5      H      -1.6350310000    -7.9547380000    -0.8709050000
    6      C       0.8496370000    -6.0799850000     0.5536850000
    7      C       1.3579380000    -4.7983820000     0.8163720000
    8      C      -1.1497020000    -5.1535420000    -0.6275240000
    9      C      -0.6389410000    -3.8696260000    -0.3683990000
   10      C       0.5974090000    -3.6889270000     0.3489120000
   11      O      -2.3092600000    -5.4810750000    -1.2626670000
   12      O       2.5232960000    -4.4798710000     1.4533380000
   13      C       3.0369270000    -5.3560260000     2.4493200000
   14      H       3.8246320000    -4.7904960000     2.9825770000
   15      H       3.4972500000    -6.2685130000     2.0111550000
   16      H       2.2498070000    -5.6581870000     3.1735910000
   17      C      -2.9392260000    -4.5469990000    -2.1307930000
   18      H      -3.7307210000    -5.1075640000    -2.6632890000
   19      H      -2.2251960000    -4.1314730000    -2.8739060000
   20      H      -3.4150770000    -3.7120850000    -1.5720450000
   21      C       0.9307650000    -2.3143260000     0.5368490000
   22      S      -1.3479130000    -2.2954870000    -0.7630410000
   23      C       0.0000000000    -1.4351800000     0.0000000000
   24      H       1.8416450000    -1.9932110000     1.0575540000
   25      C       0.0000000000     0.0000000000     0.0000000000
   26      S       0.6904370000     0.5764300000     1.5107320000
   27      C       1.8965120000     1.5898520000     0.7276290000
   28      C       0.6957200000     0.5838170000    -1.0646650000
   29      C       1.7586210000     1.4776740000    -0.6782870000
   30      C       0.6459280000     0.5398780000    -2.4861500000
   31      C       1.6147630000     1.3529970000    -3.1069160000
   32      S       2.5682610000     2.1574300000    -1.9657350000
   33      C       1.8127070000     1.5129910000    -4.5599720000
   34      O       1.0995230000     0.9106620000    -5.3502770000
   35      O       2.7977690000     2.3353300000    -5.0043750000
   36      F      -0.2050240000    -0.1792660000    -3.2462900000
   37      C       3.0790740000     2.5581240000    -6.3349760000
   38      H       3.9259100000     3.2679190000    -6.3702680000
   39      H       2.2081090000     2.9903670000    -6.8756090000
   40      H       3.3581470000     1.6188430000    -6.8618780000
   41      H       2.6013310000     2.1811800000     1.3215100000
   42      H       0.6489180000    -9.1464710000    -0.6085840000
   43      H      -0.2370030000    -9.1505700000     0.9538300000
   44      H       0.5326370000    -1.4441580000    -0.9394770000
 ----------------------------------------------------------------

   11   -2755.2733339759      7.63e-07  Convergence criterion met
 Total energy in the final basis set =    -2755.2733339759
        RIMP2         total energy =     -2760.3821705870 a.u.

                    Orbital Energies (a.u.)
 --------------------------------------------------------------

 Alpha MOs
 -- Occupied --
-92.0177 -92.0053 -91.9682 -91.9561 -26.3369 -20.6160 -20.5865 -20.5831
-20.5566 -11.4161 -11.3783 -11.3153 -11.3102 -11.3076 -11.3015 -11.3014
-11.2907 -11.2906 -11.2895 -11.2825 -11.2813 -11.2792 -11.2745 -11.2714
-11.2700 -11.2555 -11.2538 -11.2473 -11.2315  -9.0164  -9.0089  -8.9708
 -8.9587  -6.6970  -6.6962  -6.6961  -6.6900  -6.6894  -6.6882  -6.6519
 -6.6510  -6.6497  -6.6400  -6.6391  -6.6380  -1.6503  -1.4761  -1.4086
 -1.4062  -1.3722  -1.2478  -1.2064  -1.1741  -1.1463  -1.0981  -1.0556
 -1.0429  -1.0337  -1.0058  -0.9946  -0.9761  -0.9583  -0.9472  -0.9406
 -0.8903  -0.8783  -0.8573  -0.8119  -0.7956  -0.7847  -0.7805  -0.7669
 -0.7590  -0.7323  -0.7201  -0.7184  -0.6978  -0.6916  -0.6891  -0.6819
 -0.6775  -0.6752  -0.6533  -0.6467  -0.6293  -0.6288  -0.6177  -0.6145
 -0.6112  -0.6095  -0.6020  -0.5944  -0.5767  -0.5630  -0.5563  -0.5551
 -0.5526  -0.5323  -0.5259  -0.5209  -0.5108  -0.5060  -0.5053  -0.4982
 -0.4914  -0.4853  -0.4729  -0.4666  -0.4651  -0.4628  -0.4557  -0.4432
 -0.4262  -0.3956  -0.3811  -0.3673  -0.3494  -0.3002  -0.2856  -0.2150

          Ground-State Mulliken Net Atomic Charges

     Atom                 Charge (a.u.)
  ----------------------------------------
      1 C                    -0.069185
      2 C                    -0.274434
      3 S                    -0.140472
      4 C                    -0.039975
      5 H                     0.191733
      6 C                    -0.053533
      7 C                     0.224080
      8 C                     0.216562
      9 C                    -0.068128
     10 C                    -0.060033
     11 O                    -0.336633
     12 O                    -0.344579
     13 C                    -0.082439
     14 H                     0.118958
     15 H                     0.092142
     16 H                     0.092705
     17 C                    -0.086507
     18 H                     0.121727
     19 H                     0.092271
     20 H                     0.089751
     21 C                    -0.265936
     22 S                    -0.095910
     23 C                     0.062016
     24 H                     0.206226
     25 C                    -0.130454
     26 S                     0.114395
     27 C                    -0.185492
     28 C                    -0.045708
     29 C                    -0.013405
     30 C                     0.334529
     31 C                    -0.121996
     32 S                     0.070536
     33 C                     0.458219
     34 O                    -0.440562
     35 O                    -0.296944
     36 F                    -0.209636
     37 C                    -0.054617
     38 H                     0.117484
     39 H                     0.085590
     40 H                     0.085657
     41 H                     0.219378
     42 H                     0.115525
     43 H                     0.112944
     44 H                     0.194147
  ----------------------------------------
  Sum of atomic charges =     0.000000

                    Cartesian Multipole Moments
 -----------------------------------------------------------------
    Charge (ESU x 10^10)
                 0.0000
    Dipole Moment (Debye)
         X       4.3336      Y       4.5310      Z       2.2629
       Tot       6.6656
    Quadrupole Moments (Debye-Ang)
        XX    -182.6905     XY      12.2430     YY    -190.9329
        XZ      -0.8057     YZ      -6.4849     ZZ    -192.4942

 Total job time:  330.05s(wall), 10655.47s(cpu)
        *  Thank you very much for using Q-Chem.  Have a nice day.  *
