 Q-Chem 5.4, Q-Chem, Inc., Pleasanton, CA (2021)
 Q-Chem 5.4.0 for Intel X86 EM64T Linux

User input:
--------------------------------------------------------------
$molecule
0 1
C	0.268090	-8.519741	-0.046574
C	-0.733920	-7.635967	0.326886
S	1.722318	-7.651740	-0.595708
C	-0.371516	-6.261894	0.193236
H	-1.718130	-7.954738	0.692700
C	0.970283	-6.079985	-0.294958
C	1.498243	-4.798382	-0.515487
C	-1.219725	-5.153542	0.477358
C	-0.692914	-3.869626	0.252655
C	0.651289	-3.688927	-0.233366
O	-2.451623	-5.481075	0.957369
O	2.735264	-4.479871	-0.998769
C	3.828387	-5.356026	-0.752029
H	4.743213	-4.790496	-1.012675
H	3.788623	-6.268513	-1.386303
H	3.877260	-5.658187	0.316492
C	-3.521580	-4.546999	0.881930
H	-4.438260	-5.107564	1.145969
H	-3.631868	-4.131473	-0.142712
H	-3.399425	-3.712085	1.605610
C	1.009535	-2.314326	-0.367928
S	-1.450945	-2.295487	0.542088
C	-0.000000	-1.435180	-0.000000
H	1.993920	-1.993211	-0.730999
C	0.000000	0.000000	0.000000
S	0.579852	0.687566	1.510732
C	1.591625	1.895024	0.727629
C	0.583771	0.695758	-1.064665
C	1.475308	1.760606	-0.678287
C	0.542366	0.643841	-2.486150
C	1.355286	1.612843	-3.106916
S	2.154609	2.570627	-1.965735
C	1.522440	1.804778	-4.559972
O	0.924684	1.087757	-5.350277
O	2.349739	2.785679	-5.004375
F	-0.170780	-0.212144	-3.246290
C	2.588082	3.053936	-6.334976
H	3.298799	3.899999	-6.370268
H	1.655291	3.328371	-6.875609
H	3.026021	2.177385	-6.861878
H	2.183053	2.599759	1.321510
H	-0.049086	-9.146471	-0.888291
H	0.578334	-9.150570	0.794665
H	-0.377309	-1.444158	-1.011908
$end

$rem
JOBTYPE		SP
EXCHANGE	HF
CORRELATION	pRIMP2
BASIS		cc-pvtz
METHOD		rimp2
AUX_BASIS	rimp2-cc-pvtz
SOLVENT_METHOD	PCM
PURECART	11111
SYMMETRY	false
MEM_TOTAL	110000
SCF_CONVERGENCE = 6
THRESH=10
GUI = 2
$end

$solvent
dielectric 4.90
$end
--------------------------------------------------------------

             Standard Nuclear Orientation (Angstroms)
    I     Atom           X                Y                Z
 ----------------------------------------------------------------
    1      C       0.2680900000    -8.5197410000    -0.0465740000
    2      C      -0.7339200000    -7.6359670000     0.3268860000
    3      S       1.7223180000    -7.6517400000    -0.5957080000
    4      C      -0.3715160000    -6.2618940000     0.1932360000
    5      H      -1.7181300000    -7.9547380000     0.6927000000
    6      C       0.9702830000    -6.0799850000    -0.2949580000
    7      C       1.4982430000    -4.7983820000    -0.5154870000
    8      C      -1.2197250000    -5.1535420000     0.4773580000
    9      C      -0.6929140000    -3.8696260000     0.2526550000
   10      C       0.6512890000    -3.6889270000    -0.2333660000
   11      O      -2.4516230000    -5.4810750000     0.9573690000
   12      O       2.7352640000    -4.4798710000    -0.9987690000
   13      C       3.8283870000    -5.3560260000    -0.7520290000
   14      H       4.7432130000    -4.7904960000    -1.0126750000
   15      H       3.7886230000    -6.2685130000    -1.3863030000
   16      H       3.8772600000    -5.6581870000     0.3164920000
   17      C      -3.5215800000    -4.5469990000     0.8819300000
   18      H      -4.4382600000    -5.1075640000     1.1459690000
   19      H      -3.6318680000    -4.1314730000    -0.1427120000
   20      H      -3.3994250000    -3.7120850000     1.6056100000
   21      C       1.0095350000    -2.3143260000    -0.3679280000
   22      S      -1.4509450000    -2.2954870000     0.5420880000
   23      C       0.0000000000    -1.4351800000     0.0000000000
   24      H       1.9939200000    -1.9932110000    -0.7309990000
   25      C       0.0000000000     0.0000000000     0.0000000000
   26      S       0.5798520000     0.6875660000     1.5107320000
   27      C       1.5916250000     1.8950240000     0.7276290000
   28      C       0.5837710000     0.6957580000    -1.0646650000
   29      C       1.4753080000     1.7606060000    -0.6782870000
   30      C       0.5423660000     0.6438410000    -2.4861500000
   31      C       1.3552860000     1.6128430000    -3.1069160000
   32      S       2.1546090000     2.5706270000    -1.9657350000
   33      C       1.5224400000     1.8047780000    -4.5599720000
   34      O       0.9246840000     1.0877570000    -5.3502770000
   35      O       2.3497390000     2.7856790000    -5.0043750000
   36      F      -0.1707800000    -0.2121440000    -3.2462900000
   37      C       2.5880820000     3.0539360000    -6.3349760000
   38      H       3.2987990000     3.8999990000    -6.3702680000
   39      H       1.6552910000     3.3283710000    -6.8756090000
   40      H       3.0260210000     2.1773850000    -6.8618780000
   41      H       2.1830530000     2.5997590000     1.3215100000
   42      H      -0.0490860000    -9.1464710000    -0.8882910000
   43      H       0.5783340000    -9.1505700000     0.7946650000
   44      H      -0.3773090000    -1.4441580000    -1.0119080000
 ----------------------------------------------------------------

   11   -2755.3016914408      6.67e-07  Convergence criterion met
 Total energy in the final basis set =    -2755.3016914408
        RIMP2         total energy =     -2760.4023327719 a.u.

                    Orbital Energies (a.u.)
 --------------------------------------------------------------

 Alpha MOs
 -- Occupied --
-92.0119 -92.0020 -91.9731 -91.9571 -26.3388 -20.6153 -20.5866 -20.5852
-20.5553 -11.4150 -11.3795 -11.3105 -11.3082 -11.3074 -11.3044 -11.3001
-11.2959 -11.2917 -11.2903 -11.2831 -11.2824 -11.2808 -11.2766 -11.2715
-11.2713 -11.2568 -11.2560 -11.2484 -11.2344  -9.0109  -9.0058  -8.9754
 -8.9597  -6.6916  -6.6908  -6.6906  -6.6870  -6.6864  -6.6851  -6.6565
 -6.6556  -6.6544  -6.6409  -6.6400  -6.6390  -1.6519  -1.4754  -1.4090
 -1.4079  -1.3713  -1.2435  -1.2068  -1.1742  -1.1452  -1.0988  -1.0543
 -1.0443  -1.0317  -1.0073  -0.9959  -0.9746  -0.9590  -0.9481  -0.9412
 -0.8919  -0.8762  -0.8602  -0.8087  -0.7961  -0.7839  -0.7812  -0.7720
 -0.7605  -0.7334  -0.7208  -0.7185  -0.6974  -0.6929  -0.6864  -0.6814
 -0.6771  -0.6743  -0.6545  -0.6476  -0.6333  -0.6263  -0.6189  -0.6143
 -0.6107  -0.6101  -0.6006  -0.5942  -0.5810  -0.5662  -0.5564  -0.5555
 -0.5459  -0.5324  -0.5277  -0.5226  -0.5117  -0.5066  -0.5042  -0.5005
 -0.4897  -0.4841  -0.4716  -0.4681  -0.4649  -0.4638  -0.4582  -0.4446
 -0.4195  -0.4034  -0.3830  -0.3687  -0.3505  -0.2981  -0.2877  -0.2185

          Ground-State Mulliken Net Atomic Charges

     Atom                 Charge (a.u.)
  ----------------------------------------
      1 C                    -0.069880
      2 C                    -0.266202
      3 S                    -0.137464
      4 C                    -0.043520
      5 H                     0.192580
      6 C                    -0.052818
      7 C                     0.223616
      8 C                     0.225785
      9 C                    -0.077174
     10 C                    -0.040110
     11 O                    -0.335809
     12 O                    -0.343659
     13 C                    -0.082545
     14 H                     0.119506
     15 H                     0.092229
     16 H                     0.092489
     17 C                    -0.086641
     18 H                     0.122826
     19 H                     0.092214
     20 H                     0.089924
     21 C                    -0.283698
     22 S                    -0.086183
     23 C                     0.067022
     24 H                     0.207267
     25 C                    -0.090597
     26 S                     0.104787
     27 C                    -0.191634
     28 C                    -0.119670
     29 C                    -0.006403
     30 C                     0.379124
     31 C                    -0.128965
     32 S                     0.059180
     33 C                     0.458871
     34 O                    -0.442785
     35 O                    -0.297028
     36 F                    -0.212921
     37 C                    -0.054711
     38 H                     0.117335
     39 H                     0.085470
     40 H                     0.085420
     41 H                     0.217596
     42 H                     0.116576
     43 H                     0.114043
     44 H                     0.186557
  ----------------------------------------
  Sum of atomic charges =     0.000000

                    Cartesian Multipole Moments
 -----------------------------------------------------------------
    Charge (ESU x 10^10)
                 0.0000
    Dipole Moment (Debye)
         X       2.8532      Y       4.2070      Z       2.2121
       Tot       5.5437
    Quadrupole Moments (Debye-Ang)
        XX    -175.6400     XY      12.3412     YY    -183.2108
        XZ      -8.1646     YZ     -10.4085     ZZ    -204.0928

 Total job time:  355.99s(wall), 10821.68s(cpu)
        *  Thank you very much for using Q-Chem.  Have a nice day.  *
