 Q-Chem 5.4, Q-Chem, Inc., Pleasanton, CA (2021)
 Q-Chem 5.4.0 for Intel X86 EM64T Linux

User input:
--------------------------------------------------------------
$molecule
0 1
C	-0.272104	-8.519741	-0.000687
C	0.779533	-7.635967	-0.194476
S	-1.799596	-7.651740	0.287581
C	0.399427	-6.261894	-0.125787
H	1.812314	-7.954738	-0.383826
C	-1.006762	-6.079985	0.121989
C	-1.564994	-4.798382	0.247488
C	1.284087	-5.153542	-0.258303
C	0.726260	-3.869626	-0.128493
C	-0.681918	-3.688927	0.116725
O	2.580622	-5.481075	-0.517104
O	-2.867144	-4.479871	0.508622
C	-3.900814	-5.356026	0.075811
H	-4.847002	-4.790496	0.173640
H	-3.971794	-6.268513	0.707354
H	-3.763397	-5.658187	-0.984963
C	3.621225	-4.546999	-0.257016
H	4.569828	-5.107564	-0.357864
H	3.551910	-4.131473	0.771211
H	3.626592	-3.712085	-0.990913
C	-1.058088	-2.314326	0.187034
S	1.523035	-2.295487	-0.281899
C	-0.000000	-1.435180	-0.000000
H	-2.090565	-1.993211	0.373653
C	0.000000	0.000000	0.000000
S	0.579852	0.687566	1.510732
C	1.591625	1.895024	0.727629
C	0.583771	0.695758	-1.064665
C	1.475308	1.760606	-0.678287
C	0.542366	0.643841	-2.486150
C	1.355286	1.612843	-3.106916
S	2.154609	2.570627	-1.965735
C	1.522440	1.804778	-4.559972
O	0.924684	1.087757	-5.350277
O	2.349739	2.785679	-5.004375
F	-0.170780	-0.212144	-3.246290
C	2.588082	3.053936	-6.334976
H	3.298799	3.899999	-6.370268
H	1.655291	3.328371	-6.875609
H	3.026021	2.177385	-6.861878
H	2.183053	2.599759	1.321510
H	-0.105910	-9.146471	0.883319
H	-0.431555	-9.150570	-0.883019
H	0.195861	-1.444158	1.062054
$end

$rem
JOBTYPE		SP
EXCHANGE	HF
CORRELATION	pRIMP2
BASIS		cc-pvtz
METHOD		rimp2
AUX_BASIS	rimp2-cc-pvtz
SOLVENT_METHOD	PCM
PURECART	11111
SYMMETRY	false
MEM_TOTAL	110000
SCF_CONVERGENCE = 6
THRESH=10
GUI = 2
$end

$solvent
dielectric 4.90
$end
--------------------------------------------------------------

             Standard Nuclear Orientation (Angstroms)
    I     Atom           X                Y                Z
 ----------------------------------------------------------------
    1      C      -0.2721040000    -8.5197410000    -0.0006870000
    2      C       0.7795330000    -7.6359670000    -0.1944760000
    3      S      -1.7995960000    -7.6517400000     0.2875810000
    4      C       0.3994270000    -6.2618940000    -0.1257870000
    5      H       1.8123140000    -7.9547380000    -0.3838260000
    6      C      -1.0067620000    -6.0799850000     0.1219890000
    7      C      -1.5649940000    -4.7983820000     0.2474880000
    8      C       1.2840870000    -5.1535420000    -0.2583030000
    9      C       0.7262600000    -3.8696260000    -0.1284930000
   10      C      -0.6819180000    -3.6889270000     0.1167250000
   11      O       2.5806220000    -5.4810750000    -0.5171040000
   12      O      -2.8671440000    -4.4798710000     0.5086220000
   13      C      -3.9008140000    -5.3560260000     0.0758110000
   14      H      -4.8470020000    -4.7904960000     0.1736400000
   15      H      -3.9717940000    -6.2685130000     0.7073540000
   16      H      -3.7633970000    -5.6581870000    -0.9849630000
   17      C       3.6212250000    -4.5469990000    -0.2570160000
   18      H       4.5698280000    -5.1075640000    -0.3578640000
   19      H       3.5519100000    -4.1314730000     0.7712110000
   20      H       3.6265920000    -3.7120850000    -0.9909130000
   21      C      -1.0580880000    -2.3143260000     0.1870340000
   22      S       1.5230350000    -2.2954870000    -0.2818990000
   23      C       0.0000000000    -1.4351800000     0.0000000000
   24      H      -2.0905650000    -1.9932110000     0.3736530000
   25      C       0.0000000000     0.0000000000     0.0000000000
   26      S       0.5798520000     0.6875660000     1.5107320000
   27      C       1.5916250000     1.8950240000     0.7276290000
   28      C       0.5837710000     0.6957580000    -1.0646650000
   29      C       1.4753080000     1.7606060000    -0.6782870000
   30      C       0.5423660000     0.6438410000    -2.4861500000
   31      C       1.3552860000     1.6128430000    -3.1069160000
   32      S       2.1546090000     2.5706270000    -1.9657350000
   33      C       1.5224400000     1.8047780000    -4.5599720000
   34      O       0.9246840000     1.0877570000    -5.3502770000
   35      O       2.3497390000     2.7856790000    -5.0043750000
   36      F      -0.1707800000    -0.2121440000    -3.2462900000
   37      C       2.5880820000     3.0539360000    -6.3349760000
   38      H       3.2987990000     3.8999990000    -6.3702680000
   39      H       1.6552910000     3.3283710000    -6.8756090000
   40      H       3.0260210000     2.1773850000    -6.8618780000
   41      H       2.1830530000     2.5997590000     1.3215100000
   42      H      -0.1059100000    -9.1464710000     0.8833190000
   43      H      -0.4315550000    -9.1505700000    -0.8830190000
   44      H       0.1958610000    -1.4441580000     1.0620540000
 ----------------------------------------------------------------

   11   -2755.2948180954      7.56e-07  Convergence criterion met
 Total energy in the final basis set =    -2755.2948180954
        RIMP2         total energy =     -2760.3947430697 a.u.

                    Orbital Energies (a.u.)
 --------------------------------------------------------------

 Alpha MOs
 -- Occupied --
-92.0168 -92.0005 -91.9757 -91.9557 -26.3354 -20.6147 -20.5861 -20.5851
-20.5546 -11.4142 -11.3773 -11.3106 -11.3077 -11.3065 -11.3043 -11.2991
-11.2954 -11.2898 -11.2876 -11.2836 -11.2818 -11.2814 -11.2759 -11.2704
-11.2692 -11.2562 -11.2523 -11.2473 -11.2322  -9.0159  -9.0044  -8.9780
 -8.9584  -6.6966  -6.6958  -6.6954  -6.6856  -6.6849  -6.6836  -6.6591
 -6.6582  -6.6569  -6.6396  -6.6387  -6.6377  -1.6483  -1.4747  -1.4088
 -1.4076  -1.3706  -1.2431  -1.2075  -1.1739  -1.1457  -1.0970  -1.0528
 -1.0436  -1.0338  -1.0069  -0.9953  -0.9748  -0.9593  -0.9473  -0.9400
 -0.8917  -0.8744  -0.8608  -0.8093  -0.7945  -0.7834  -0.7778  -0.7742
 -0.7633  -0.7335  -0.7207  -0.7170  -0.6961  -0.6940  -0.6807  -0.6798
 -0.6752  -0.6644  -0.6549  -0.6474  -0.6324  -0.6283  -0.6178  -0.6139
 -0.6113  -0.6096  -0.5999  -0.5921  -0.5786  -0.5624  -0.5611  -0.5548
 -0.5446  -0.5348  -0.5291  -0.5214  -0.5114  -0.5061  -0.5050  -0.4996
 -0.4898  -0.4843  -0.4729  -0.4690  -0.4649  -0.4632  -0.4596  -0.4446
 -0.4210  -0.4031  -0.3835  -0.3685  -0.3497  -0.2969  -0.2877  -0.2175

          Ground-State Mulliken Net Atomic Charges

     Atom                 Charge (a.u.)
  ----------------------------------------
      1 C                    -0.069515
      2 C                    -0.272441
      3 S                    -0.140975
      4 C                    -0.041622
      5 H                     0.191662
      6 C                    -0.055329
      7 C                     0.224608
      8 C                     0.221701
      9 C                    -0.072442
     10 C                    -0.052019
     11 O                    -0.335215
     12 O                    -0.343265
     13 C                    -0.082417
     14 H                     0.119463
     15 H                     0.091715
     16 H                     0.093184
     17 C                    -0.087019
     18 H                     0.123061
     19 H                     0.091168
     20 H                     0.090042
     21 C                    -0.258458
     22 S                    -0.083327
     23 C                     0.023040
     24 H                     0.204589
     25 C                    -0.052241
     26 S                     0.106752
     27 C                    -0.193516
     28 C                    -0.123158
     29 C                    -0.000120
     30 C                     0.384551
     31 C                    -0.139265
     32 S                     0.056345
     33 C                     0.458293
     34 O                    -0.442307
     35 O                    -0.297053
     36 F                    -0.210043
     37 C                    -0.054721
     38 H                     0.117128
     39 H                     0.085349
     40 H                     0.085414
     41 H                     0.218897
     42 H                     0.115350
     43 H                     0.113320
     44 H                     0.190835
  ----------------------------------------
  Sum of atomic charges =     0.000000

                    Cartesian Multipole Moments
 -----------------------------------------------------------------
    Charge (ESU x 10^10)
                 0.0000
    Dipole Moment (Debye)
         X       3.1925      Y       4.6377      Z       3.3575
       Tot       6.5554
    Quadrupole Moments (Debye-Ang)
        XX    -176.1811     XY       5.5835     YY    -187.2497
        XZ      -4.9045     YZ      -8.2519     ZZ    -203.2548

 Total job time:  373.06s(wall), 10831.71s(cpu)
        *  Thank you very much for using Q-Chem.  Have a nice day.  *
