 Q-Chem 5.4, Q-Chem, Inc., Pleasanton, CA (2021)
 Q-Chem 5.4.0 for Intel X86 EM64T Linux

User input:
--------------------------------------------------------------
$molecule
0 1
C	0.092419	-8.519741	0.255929
C	-0.449364	-7.635967	-0.666007
S	0.885736	-7.651740	1.592708
C	-0.254813	-6.261894	-0.332317
H	-0.980526	-7.954738	-1.571741
C	0.458965	-6.079985	0.904324
C	0.767823	-4.798382	1.385968
C	-0.681909	-5.153542	-1.118303
C	-0.369139	-3.869626	-0.638514
C	0.342916	-3.688927	0.600871
O	-1.368544	-5.481075	-2.248132
O	1.458570	-4.479871	2.520275
C	1.405396	-5.356026	3.639637
H	1.820940	-4.790496	4.495304
H	2.023129	-6.268513	3.490336
H	0.361595	-5.658187	3.873314
C	-1.480048	-4.546999	-3.314934
H	-1.899255	-5.107564	-4.171837
H	-0.490123	-4.131473	-3.601473
H	-2.171521	-3.712085	-3.068969
C	0.537642	-2.314326	0.930308
S	-0.785807	-2.295487	-1.334769
C	0.000000	-1.435180	0.000000
H	1.066134	-1.993211	1.836691
C	0.000000	0.000000	0.000000
S	0.080615	0.895811	1.510732
C	0.216842	2.465231	0.727629
C	0.079127	0.904769	-1.064665
C	0.198659	2.288406	-0.678287
C	0.074988	0.838492	-2.486150
C	0.185097	2.098524	-3.106916
S	0.290501	3.341568	-1.965735
C	0.211932	2.351623	-4.559972
O	0.133545	1.421416	-5.350277
O	0.326994	3.629649	-5.004375
F	-0.018214	-0.271734	-3.246290
C	0.368367	3.986101	-6.334976
H	0.465270	5.086806	-6.370268
H	-0.553140	3.675878	-6.875609
H	1.229874	3.519263	-6.861878
H	0.297091	3.381746	1.321510
H	0.866272	-9.146471	-0.202590
H	-0.682165	-9.150570	0.707539
H	0.931016	-1.444158	-0.547293
$end

$rem
JOBTYPE		SP
EXCHANGE	HF
CORRELATION	pRIMP2
BASIS		cc-pvtz
METHOD		rimp2
AUX_BASIS	rimp2-cc-pvtz
SOLVENT_METHOD	PCM
PURECART	11111
SYMMETRY	false
MEM_TOTAL	110000
SCF_CONVERGENCE = 6
THRESH=10
GUI = 2
$end

$solvent
dielectric 4.90
$end
--------------------------------------------------------------

             Standard Nuclear Orientation (Angstroms)
    I     Atom           X                Y                Z
 ----------------------------------------------------------------
    1      C       0.0924190000    -8.5197410000     0.2559290000
    2      C      -0.4493640000    -7.6359670000    -0.6660070000
    3      S       0.8857360000    -7.6517400000     1.5927080000
    4      C      -0.2548130000    -6.2618940000    -0.3323170000
    5      H      -0.9805260000    -7.9547380000    -1.5717410000
    6      C       0.4589650000    -6.0799850000     0.9043240000
    7      C       0.7678230000    -4.7983820000     1.3859680000
    8      C      -0.6819090000    -5.1535420000    -1.1183030000
    9      C      -0.3691390000    -3.8696260000    -0.6385140000
   10      C       0.3429160000    -3.6889270000     0.6008710000
   11      O      -1.3685440000    -5.4810750000    -2.2481320000
   12      O       1.4585700000    -4.4798710000     2.5202750000
   13      C       1.4053960000    -5.3560260000     3.6396370000
   14      H       1.8209400000    -4.7904960000     4.4953040000
   15      H       2.0231290000    -6.2685130000     3.4903360000
   16      H       0.3615950000    -5.6581870000     3.8733140000
   17      C      -1.4800480000    -4.5469990000    -3.3149340000
   18      H      -1.8992550000    -5.1075640000    -4.1718370000
   19      H      -0.4901230000    -4.1314730000    -3.6014730000
   20      H      -2.1715210000    -3.7120850000    -3.0689690000
   21      C       0.5376420000    -2.3143260000     0.9303080000
   22      S      -0.7858070000    -2.2954870000    -1.3347690000
   23      C       0.0000000000    -1.4351800000     0.0000000000
   24      H       1.0661340000    -1.9932110000     1.8366910000
   25      C       0.0000000000     0.0000000000     0.0000000000
   26      S       0.0806150000     0.8958110000     1.5107320000
   27      C       0.2168420000     2.4652310000     0.7276290000
   28      C       0.0791270000     0.9047690000    -1.0646650000
   29      C       0.1986590000     2.2884060000    -0.6782870000
   30      C       0.0749880000     0.8384920000    -2.4861500000
   31      C       0.1850970000     2.0985240000    -3.1069160000
   32      S       0.2905010000     3.3415680000    -1.9657350000
   33      C       0.2119320000     2.3516230000    -4.5599720000
   34      O       0.1335450000     1.4214160000    -5.3502770000
   35      O       0.3269940000     3.6296490000    -5.0043750000
   36      F      -0.0182140000    -0.2717340000    -3.2462900000
   37      C       0.3683670000     3.9861010000    -6.3349760000
   38      H       0.4652700000     5.0868060000    -6.3702680000
   39      H      -0.5531400000     3.6758780000    -6.8756090000
   40      H       1.2298740000     3.5192630000    -6.8618780000
   41      H       0.2970910000     3.3817460000     1.3215100000
   42      H       0.8662720000    -9.1464710000    -0.2025900000
   43      H      -0.6821650000    -9.1505700000     0.7075390000
   44      H       0.9310160000    -1.4441580000    -0.5472930000
 ----------------------------------------------------------------

   11   -2755.3246069311      7.14e-07  Convergence criterion met
 Total energy in the final basis set =    -2755.3246069311
        RIMP2         total energy =     -2760.4164350344 a.u.

                    Orbital Energies (a.u.)
 --------------------------------------------------------------

 Alpha MOs
 -- Occupied --
-92.0149 -91.9929 -91.9769 -91.9601 -26.3350 -20.6111 -20.5881 -20.5877
-20.5478 -11.4086 -11.3788 -11.3246 -11.3098 -11.3093 -11.2971 -11.2928
-11.2881 -11.2858 -11.2840 -11.2840 -11.2836 -11.2835 -11.2775 -11.2758
-11.2724 -11.2620 -11.2595 -11.2515 -11.2410  -9.0133  -8.9970  -8.9795
 -8.9627  -6.6941  -6.6935  -6.6930  -6.6783  -6.6776  -6.6763  -6.6605
 -6.6596  -6.6583  -6.6439  -6.6430  -6.6420  -1.6495  -1.4706  -1.4112
 -1.4098  -1.3657  -1.2380  -1.2099  -1.1772  -1.1430  -1.1008  -1.0507
 -1.0469  -1.0288  -1.0088  -0.9997  -0.9714  -0.9600  -0.9493  -0.9405
 -0.8946  -0.8731  -0.8629  -0.8122  -0.7931  -0.7861  -0.7777  -0.7667
 -0.7622  -0.7340  -0.7191  -0.7171  -0.6981  -0.6940  -0.6854  -0.6778
 -0.6753  -0.6714  -0.6563  -0.6492  -0.6357  -0.6302  -0.6217  -0.6156
 -0.6107  -0.6050  -0.5962  -0.5916  -0.5795  -0.5665  -0.5619  -0.5589
 -0.5499  -0.5324  -0.5283  -0.5209  -0.5138  -0.5087  -0.5045  -0.4998
 -0.4861  -0.4828  -0.4806  -0.4686  -0.4613  -0.4607  -0.4594  -0.4474
 -0.4308  -0.3995  -0.3849  -0.3717  -0.3508  -0.2929  -0.2844  -0.2190

          Ground-State Mulliken Net Atomic Charges

     Atom                 Charge (a.u.)
  ----------------------------------------
      1 C                    -0.070792
      2 C                    -0.247235
      3 S                    -0.131308
      4 C                    -0.048122
      5 H                     0.195217
      6 C                    -0.049459
      7 C                     0.222896
      8 C                     0.231784
      9 C                    -0.084523
     10 C                    -0.044850
     11 O                    -0.334856
     12 O                    -0.344050
     13 C                    -0.082526
     14 H                     0.120125
     15 H                     0.092020
     16 H                     0.092952
     17 C                    -0.087696
     18 H                     0.123754
     19 H                     0.094209
     20 H                     0.090069
     21 C                    -0.286900
     22 S                    -0.070132
     23 C                     0.107632
     24 H                     0.202090
     25 C                    -0.045797
     26 S                     0.089552
     27 C                    -0.263692
     28 C                    -0.115927
     29 C                    -0.007292
     30 C                     0.390938
     31 C                    -0.151065
     32 S                     0.031283
     33 C                     0.460694
     34 O                    -0.455237
     35 O                    -0.298519
     36 F                    -0.209410
     37 C                    -0.055229
     38 H                     0.116415
     39 H                     0.084163
     40 H                     0.084015
     41 H                     0.213480
     42 H                     0.119198
     43 H                     0.116798
     44 H                     0.205333
  ----------------------------------------
  Sum of atomic charges =     0.000000

                    Cartesian Multipole Moments
 -----------------------------------------------------------------
    Charge (ESU x 10^10)
                -0.0000
    Dipole Moment (Debye)
         X       0.6906      Y       1.8139      Z       2.7330
       Tot       3.3521
    Quadrupole Moments (Debye-Ang)
        XX    -200.7748     XY       3.3507     YY    -169.3495
        XZ       2.7667     YZ      -6.2084     ZZ    -189.4148

 Total job time:  328.23s(wall), 10665.73s(cpu)
        *  Thank you very much for using Q-Chem.  Have a nice day.  *
