 Q-Chem 5.4, Q-Chem, Inc., Pleasanton, CA (2021)
 Q-Chem 5.4.0 for Intel X86 EM64T Linux

User input:
--------------------------------------------------------------
$molecule
0 1
C	0.047927	-8.519741	-0.267851
C	0.056157	-7.635967	0.801461
S	0.029285	-7.651740	-1.822194
C	0.054516	-6.261894	0.415201
H	0.063290	-7.954738	1.851431
C	0.054687	-6.079985	-1.012650
C	0.028030	-4.798382	-1.584194
C	0.031399	-5.153542	1.309433
C	0.000427	-3.869626	0.737539
C	0.003462	-3.688927	-0.691828
O	0.061128	-5.481075	2.631211
O	-0.003021	-4.479871	-2.911907
C	0.602710	-5.356026	-3.854716
H	0.670671	-4.790496	-4.803517
H	-0.006913	-6.268513	-4.034285
H	1.623507	-5.658187	-3.535185
C	-0.375708	-4.546999	3.610841
H	-0.441115	-5.107564	4.562544
H	-1.376277	-4.131473	3.364029
H	0.346107	-3.712085	3.743566
C	-0.000458	-2.314326	-1.074491
S	0.013144	-2.295487	1.548848
C	0.000000	-1.435180	0.000000
H	-0.004953	-1.993211	-2.123688
C	0.000000	0.000000	0.000000
S	0.080615	0.895811	1.510732
C	0.216842	2.465231	0.727629
C	0.079127	0.904769	-1.064665
C	0.198659	2.288406	-0.678287
C	0.074988	0.838492	-2.486150
C	0.185097	2.098524	-3.106916
S	0.290501	3.341568	-1.965735
C	0.211932	2.351623	-4.559972
O	0.133545	1.421416	-5.350277
O	0.326994	3.629649	-5.004375
F	-0.018214	-0.271734	-3.246290
C	0.368367	3.986101	-6.334976
H	0.465270	5.086806	-6.370268
H	-0.553140	3.675878	-6.875609
H	1.229874	3.519263	-6.861878
H	0.297091	3.381746	1.321510
H	-0.851509	-9.146471	-0.257688
H	0.944542	-9.150570	-0.271664
H	-1.079930	-1.444158	0.008462
$end

$rem
JOBTYPE		SP
EXCHANGE	HF
CORRELATION	pRIMP2
BASIS		cc-pvtz
METHOD		rimp2
AUX_BASIS	rimp2-cc-pvtz
SOLVENT_METHOD	PCM
PURECART	11111
SYMMETRY	false
MEM_TOTAL	110000
SCF_CONVERGENCE = 6
THRESH=10
GUI = 2
$end

$solvent
dielectric 4.90
$end
--------------------------------------------------------------

             Standard Nuclear Orientation (Angstroms)
    I     Atom           X                Y                Z
 ----------------------------------------------------------------
    1      C       0.0479270000    -8.5197410000    -0.2678510000
    2      C       0.0561570000    -7.6359670000     0.8014610000
    3      S       0.0292850000    -7.6517400000    -1.8221940000
    4      C       0.0545160000    -6.2618940000     0.4152010000
    5      H       0.0632900000    -7.9547380000     1.8514310000
    6      C       0.0546870000    -6.0799850000    -1.0126500000
    7      C       0.0280300000    -4.7983820000    -1.5841940000
    8      C       0.0313990000    -5.1535420000     1.3094330000
    9      C       0.0004270000    -3.8696260000     0.7375390000
   10      C       0.0034620000    -3.6889270000    -0.6918280000
   11      O       0.0611280000    -5.4810750000     2.6312110000
   12      O      -0.0030210000    -4.4798710000    -2.9119070000
   13      C       0.6027100000    -5.3560260000    -3.8547160000
   14      H       0.6706710000    -4.7904960000    -4.8035170000
   15      H      -0.0069130000    -6.2685130000    -4.0342850000
   16      H       1.6235070000    -5.6581870000    -3.5351850000
   17      C      -0.3757080000    -4.5469990000     3.6108410000
   18      H      -0.4411150000    -5.1075640000     4.5625440000
   19      H      -1.3762770000    -4.1314730000     3.3640290000
   20      H       0.3461070000    -3.7120850000     3.7435660000
   21      C      -0.0004580000    -2.3143260000    -1.0744910000
   22      S       0.0131440000    -2.2954870000     1.5488480000
   23      C       0.0000000000    -1.4351800000     0.0000000000
   24      H      -0.0049530000    -1.9932110000    -2.1236880000
   25      C       0.0000000000     0.0000000000     0.0000000000
   26      S       0.0806150000     0.8958110000     1.5107320000
   27      C       0.2168420000     2.4652310000     0.7276290000
   28      C       0.0791270000     0.9047690000    -1.0646650000
   29      C       0.1986590000     2.2884060000    -0.6782870000
   30      C       0.0749880000     0.8384920000    -2.4861500000
   31      C       0.1850970000     2.0985240000    -3.1069160000
   32      S       0.2905010000     3.3415680000    -1.9657350000
   33      C       0.2119320000     2.3516230000    -4.5599720000
   34      O       0.1335450000     1.4214160000    -5.3502770000
   35      O       0.3269940000     3.6296490000    -5.0043750000
   36      F      -0.0182140000    -0.2717340000    -3.2462900000
   37      C       0.3683670000     3.9861010000    -6.3349760000
   38      H       0.4652700000     5.0868060000    -6.3702680000
   39      H      -0.5531400000     3.6758780000    -6.8756090000
   40      H       1.2298740000     3.5192630000    -6.8618780000
   41      H       0.2970910000     3.3817460000     1.3215100000
   42      H      -0.8515090000    -9.1464710000    -0.2576880000
   43      H       0.9445420000    -9.1505700000    -0.2716640000
   44      H      -1.0799300000    -1.4441580000     0.0084620000
 ----------------------------------------------------------------

   11   -2755.3248644556      6.81e-07  Convergence criterion met
 Total energy in the final basis set =    -2755.3248644556
        RIMP2         total energy =     -2760.4154635217 a.u.

                    Orbital Energies (a.u.)
 --------------------------------------------------------------

 Alpha MOs
 -- Occupied --
-92.0149 -91.9919 -91.9840 -91.9603 -26.3402 -20.6106 -20.5906 -20.5873
-20.5471 -11.4080 -11.3802 -11.3273 -11.3135 -11.3102 -11.2966 -11.2914
-11.2883 -11.2878 -11.2868 -11.2861 -11.2824 -11.2814 -11.2758 -11.2754
-11.2694 -11.2620 -11.2607 -11.2522 -11.2432  -9.0135  -8.9961  -8.9863
 -8.9629  -6.6943  -6.6937  -6.6932  -6.6774  -6.6767  -6.6753  -6.6674
 -6.6665  -6.6652  -6.6441  -6.6432  -6.6422  -1.6550  -1.4702  -1.4138
 -1.4092  -1.3651  -1.2380  -1.2113  -1.1784  -1.1435  -1.1015  -1.0502
 -1.0489  -1.0284  -1.0111  -1.0007  -0.9714  -0.9601  -0.9508  -0.9409
 -0.8965  -0.8732  -0.8636  -0.8118  -0.7978  -0.7883  -0.7756  -0.7708
 -0.7638  -0.7341  -0.7229  -0.7217  -0.6994  -0.6962  -0.6847  -0.6776
 -0.6722  -0.6716  -0.6582  -0.6497  -0.6402  -0.6309  -0.6224  -0.6162
 -0.6082  -0.6047  -0.5955  -0.5909  -0.5776  -0.5721  -0.5604  -0.5510
 -0.5490  -0.5370  -0.5332  -0.5227  -0.5152  -0.5100  -0.5070  -0.5018
 -0.4846  -0.4835  -0.4806  -0.4697  -0.4632  -0.4604  -0.4577  -0.4486
 -0.4344  -0.3982  -0.3890  -0.3728  -0.3508  -0.2944  -0.2837  -0.2193

          Ground-State Mulliken Net Atomic Charges

     Atom                 Charge (a.u.)
  ----------------------------------------
      1 C                    -0.070990
      2 C                    -0.243148
      3 S                    -0.130286
      4 C                    -0.052121
      5 H                     0.195633
      6 C                    -0.049138
      7 C                     0.231077
      8 C                     0.239284
      9 C                    -0.079164
     10 C                    -0.031272
     11 O                    -0.332966
     12 O                    -0.343426
     13 C                    -0.083459
     14 H                     0.122118
     15 H                     0.092253
     16 H                     0.092681
     17 C                    -0.089151
     18 H                     0.125573
     19 H                     0.093736
     20 H                     0.090524
     21 C                    -0.346626
     22 S                    -0.094702
     23 C                     0.137991
     24 H                     0.220941
     25 C                    -0.099944
     26 S                     0.074165
     27 C                    -0.273479
     28 C                    -0.052650
     29 C                    -0.014078
     30 C                     0.411159
     31 C                    -0.150805
     32 S                     0.027062
     33 C                     0.463660
     34 O                    -0.457014
     35 O                    -0.298639
     36 F                    -0.219081
     37 C                    -0.055328
     38 H                     0.116415
     39 H                     0.084040
     40 H                     0.083992
     41 H                     0.215031
     42 H                     0.119671
     43 H                     0.117451
     44 H                     0.213009
  ----------------------------------------
  Sum of atomic charges =     0.000000

                    Cartesian Multipole Moments
 -----------------------------------------------------------------
    Charge (ESU x 10^10)
                 0.0000
    Dipole Moment (Debye)
         X      -0.4721      Y       1.1341      Z       3.8261
       Tot       4.0184
    Quadrupole Moments (Debye-Ang)
        XX    -199.5383     XY       1.2782     YY    -166.3092
        XZ      -6.6424     YZ     -14.4604     ZZ    -191.0581

 Total job time:  326.67s(wall), 10623.69s(cpu)
        *  Thank you very much for using Q-Chem.  Have a nice day.  *
