 Q-Chem 5.4, Q-Chem, Inc., Pleasanton, CA (2021)
 Q-Chem 5.4.0 for Intel X86 EM64T Linux

User input:
--------------------------------------------------------------
$molecule
0 1
C	-0.208002	-8.519741	-0.175432
C	0.722164	-7.635967	0.352097
S	-1.563424	-7.651740	-0.936458
C	0.386833	-6.261894	0.160388
H	1.635031	-7.954738	0.870905
C	-0.849637	-6.079985	-0.553685
C	-1.357938	-4.798382	-0.816372
C	1.149702	-5.153542	0.627524
C	0.638941	-3.869626	0.368399
C	-0.597409	-3.688927	-0.348912
O	2.309260	-5.481075	1.262667
O	-2.523296	-4.479871	-1.453338
C	-3.036927	-5.356026	-2.449320
H	-3.824632	-4.790496	-2.982577
H	-3.497250	-6.268513	-2.011155
H	-2.249807	-5.658187	-3.173591
C	2.939226	-4.546999	2.130793
H	3.730721	-5.107564	2.663289
H	2.225196	-4.131473	2.873906
H	3.415077	-3.712085	1.572045
C	-0.930765	-2.314326	-0.536849
S	1.347913	-2.295487	0.763041
C	-0.000000	-1.435180	-0.000000
H	-1.841645	-1.993211	-1.057554
C	0.000000	0.000000	0.000000
S	0.382139	0.814215	1.510732
C	1.046923	2.242395	0.727629
C	0.383804	0.823142	-1.064665
C	0.969360	2.082453	-0.678287
C	0.357247	0.762277	-2.486150
C	0.891671	1.908660	-3.106916
S	1.415865	3.040689	-1.965735
C	1.003453	2.137318	-4.559972
O	0.611644	1.290019	-5.350277
O	1.548687	3.298916	-5.004375
F	-0.110054	-0.249117	-3.246290
C	1.709479	3.619721	-6.334976
H	2.177001	4.620902	-6.370268
H	0.737443	3.643380	-6.875609
H	2.359363	2.886384	-6.861878
H	1.435800	3.076190	1.321510
H	-0.648918	-9.146471	0.608584
H	0.237003	-9.150570	-0.953830
H	-0.532637	-1.444158	0.939477
$end

$rem
JOBTYPE		SP
EXCHANGE	HF
CORRELATION	pRIMP2
BASIS		cc-pvtz
METHOD		rimp2
AUX_BASIS	rimp2-cc-pvtz
SOLVENT_METHOD	PCM
PURECART	11111
SYMMETRY	false
MEM_TOTAL	110000
SCF_CONVERGENCE = 6
THRESH=10
GUI = 2
$end

$solvent
dielectric 4.90
$end
--------------------------------------------------------------

             Standard Nuclear Orientation (Angstroms)
    I     Atom           X                Y                Z
 ----------------------------------------------------------------
    1      C      -0.2080020000    -8.5197410000    -0.1754320000
    2      C       0.7221640000    -7.6359670000     0.3520970000
    3      S      -1.5634240000    -7.6517400000    -0.9364580000
    4      C       0.3868330000    -6.2618940000     0.1603880000
    5      H       1.6350310000    -7.9547380000     0.8709050000
    6      C      -0.8496370000    -6.0799850000    -0.5536850000
    7      C      -1.3579380000    -4.7983820000    -0.8163720000
    8      C       1.1497020000    -5.1535420000     0.6275240000
    9      C       0.6389410000    -3.8696260000     0.3683990000
   10      C      -0.5974090000    -3.6889270000    -0.3489120000
   11      O       2.3092600000    -5.4810750000     1.2626670000
   12      O      -2.5232960000    -4.4798710000    -1.4533380000
   13      C      -3.0369270000    -5.3560260000    -2.4493200000
   14      H      -3.8246320000    -4.7904960000    -2.9825770000
   15      H      -3.4972500000    -6.2685130000    -2.0111550000
   16      H      -2.2498070000    -5.6581870000    -3.1735910000
   17      C       2.9392260000    -4.5469990000     2.1307930000
   18      H       3.7307210000    -5.1075640000     2.6632890000
   19      H       2.2251960000    -4.1314730000     2.8739060000
   20      H       3.4150770000    -3.7120850000     1.5720450000
   21      C      -0.9307650000    -2.3143260000    -0.5368490000
   22      S       1.3479130000    -2.2954870000     0.7630410000
   23      C       0.0000000000    -1.4351800000     0.0000000000
   24      H      -1.8416450000    -1.9932110000    -1.0575540000
   25      C       0.0000000000     0.0000000000     0.0000000000
   26      S       0.3821390000     0.8142150000     1.5107320000
   27      C       1.0469230000     2.2423950000     0.7276290000
   28      C       0.3838040000     0.8231420000    -1.0646650000
   29      C       0.9693600000     2.0824530000    -0.6782870000
   30      C       0.3572470000     0.7622770000    -2.4861500000
   31      C       0.8916710000     1.9086600000    -3.1069160000
   32      S       1.4158650000     3.0406890000    -1.9657350000
   33      C       1.0034530000     2.1373180000    -4.5599720000
   34      O       0.6116440000     1.2900190000    -5.3502770000
   35      O       1.5486870000     3.2989160000    -5.0043750000
   36      F      -0.1100540000    -0.2491170000    -3.2462900000
   37      C       1.7094790000     3.6197210000    -6.3349760000
   38      H       2.1770010000     4.6209020000    -6.3702680000
   39      H       0.7374430000     3.6433800000    -6.8756090000
   40      H       2.3593630000     2.8863840000    -6.8618780000
   41      H       1.4358000000     3.0761900000     1.3215100000
   42      H      -0.6489180000    -9.1464710000     0.6085840000
   43      H       0.2370030000    -9.1505700000    -0.9538300000
   44      H      -0.5326370000    -1.4441580000     0.9394770000
 ----------------------------------------------------------------

   11   -2755.3152045730      7.41e-07  Convergence criterion met
 Total energy in the final basis set =    -2755.3152045730
        RIMP2         total energy =     -2760.4096964736 a.u.

                    Orbital Energies (a.u.)
 --------------------------------------------------------------

 Alpha MOs
 -- Occupied --
-92.0185 -91.9969 -91.9778 -91.9571 -26.3359 -20.6133 -20.5863 -20.5863
-20.5520 -11.4120 -11.3777 -11.3083 -11.3068 -11.3060 -11.3009 -11.3009
-11.2979 -11.2891 -11.2844 -11.2825 -11.2823 -11.2818 -11.2795 -11.2721
-11.2715 -11.2574 -11.2561 -11.2486 -11.2349  -9.0170  -9.0009  -8.9800
 -8.9597  -6.6977  -6.6971  -6.6967  -6.6821  -6.6815  -6.6801  -6.6611
 -6.6602  -6.6589  -6.6410  -6.6400  -6.6390  -1.6488  -1.4731  -1.4097
 -1.4081  -1.3686  -1.2391  -1.2085  -1.1746  -1.1445  -1.0984  -1.0508
 -1.0452  -1.0314  -1.0082  -0.9970  -0.9732  -0.9595  -0.9480  -0.9399
 -0.8930  -0.8722  -0.8636  -0.8074  -0.7953  -0.7846  -0.7775  -0.7730
 -0.7644  -0.7326  -0.7216  -0.7171  -0.6968  -0.6928  -0.6812  -0.6795
 -0.6734  -0.6642  -0.6558  -0.6479  -0.6332  -0.6298  -0.6190  -0.6139
 -0.6112  -0.6078  -0.5969  -0.5926  -0.5787  -0.5656  -0.5582  -0.5532
 -0.5465  -0.5366  -0.5296  -0.5227  -0.5130  -0.5070  -0.5044  -0.5002
 -0.4873  -0.4855  -0.4759  -0.4727  -0.4630  -0.4622  -0.4595  -0.4452
 -0.4247  -0.4010  -0.3845  -0.3693  -0.3510  -0.2937  -0.2875  -0.2188

          Ground-State Mulliken Net Atomic Charges

     Atom                 Charge (a.u.)
  ----------------------------------------
      1 C                    -0.069882
      2 C                    -0.265653
      3 S                    -0.137063
      4 C                    -0.042214
      5 H                     0.192584
      6 C                    -0.052343
      7 C                     0.222443
      8 C                     0.221963
      9 C                    -0.076329
     10 C                    -0.049261
     11 O                    -0.334994
     12 O                    -0.343452
     13 C                    -0.082208
     14 H                     0.120068
     15 H                     0.091440
     16 H                     0.093279
     17 C                    -0.087018
     18 H                     0.123264
     19 H                     0.091576
     20 H                     0.089965
     21 C                    -0.255221
     22 S                    -0.068350
     23 C                     0.034429
     24 H                     0.205525
     25 C                    -0.078423
     26 S                     0.100072
     27 C                    -0.219103
     28 C                    -0.055203
     29 C                    -0.006216
     30 C                     0.362852
     31 C                    -0.142630
     32 S                     0.044747
     33 C                     0.457873
     34 O                    -0.447227
     35 O                    -0.297570
     36 F                    -0.211233
     37 C                    -0.054890
     38 H                     0.116854
     39 H                     0.084768
     40 H                     0.084962
     41 H                     0.217222
     42 H                     0.116441
     43 H                     0.114341
     44 H                     0.189816
  ----------------------------------------
  Sum of atomic charges =     0.000000

                    Cartesian Multipole Moments
 -----------------------------------------------------------------
    Charge (ESU x 10^10)
                -0.0000
    Dipole Moment (Debye)
         X       1.4944      Y       4.0079      Z       3.6563
       Tot       5.6272
    Quadrupole Moments (Debye-Ang)
        XX    -190.5526     XY       3.3139     YY    -179.5971
        XZ       4.4031     YZ     -11.6741     ZZ    -194.8876

 Total job time:  344.73s(wall), 10751.41s(cpu)
        *  Thank you very much for using Q-Chem.  Have a nice day.  *
