 Q-Chem 5.4, Q-Chem, Inc., Pleasanton, CA (2021)
 Q-Chem 5.4.0 for Intel X86 EM64T Linux

User input:
--------------------------------------------------------------
$molecule
0 1
C	0.235993	-8.519741	-0.135457
C	-0.577858	-7.635967	0.558188
S	1.414705	-7.651740	-1.148850
C	-0.283020	-6.261894	0.308648
H	-1.377597	-7.954738	1.238560
C	0.810887	-6.079985	-0.609026
C	1.231581	-4.798382	-0.996828
C	-0.982901	-5.153542	0.865740
C	-0.564713	-3.869626	0.474408
C	0.532196	-3.688927	-0.442046
O	-1.976332	-5.481075	1.738137
O	2.228709	-4.479871	-1.874052
C	3.340298	-5.356026	-2.016062
H	4.110807	-4.790496	-2.573877
H	3.085998	-6.268513	-2.598484
H	3.751679	-5.658187	-1.028695
C	-3.007565	-4.546999	2.033195
H	-3.778655	-5.107564	2.594833
H	-3.461650	-4.131473	1.108067
H	-2.645264	-3.712085	2.671451
C	0.822814	-2.314326	-0.691020
S	-1.178037	-2.295487	1.005649
C	0.000000	-1.435180	0.000000
H	1.623656	-1.993211	-1.368875
C	0.000000	0.000000	0.000000
S	0.780044	0.447780	1.510732
C	2.143774	1.236372	0.727629
C	0.786529	0.454137	-1.064665
C	1.988499	1.149844	-0.678287
C	0.729864	0.419512	-2.486150
C	1.825177	1.052041	-3.106916
S	2.903877	1.678680	-1.965735
C	2.047896	1.175232	-4.559972
O	1.240953	0.705897	-5.350277
O	3.160791	1.814024	-5.004375
F	-0.233039	-0.140940	-3.246290
C	3.476510	1.984585	-6.334976
H	4.433735	2.536545	-6.370268
H	2.693835	2.561503	-6.875609
H	3.588239	1.011113	-6.861878
H	2.940569	1.696327	1.321510
H	-0.349939	-9.146471	-0.817932
H	0.815247	-9.150570	0.548939
H	-0.700647	-1.444158	-0.821835
$end

$rem
JOBTYPE		SP
EXCHANGE	HF
CORRELATION	pRIMP2
BASIS		cc-pvtz
METHOD		rimp2
AUX_BASIS	rimp2-cc-pvtz
SOLVENT_METHOD	PCM
PURECART	11111
SYMMETRY	false
MEM_TOTAL	110000
SCF_CONVERGENCE = 6
THRESH=10
GUI = 2
$end

$solvent
dielectric 4.90
$end
--------------------------------------------------------------

             Standard Nuclear Orientation (Angstroms)
    I     Atom           X                Y                Z
 ----------------------------------------------------------------
    1      C       0.2359930000    -8.5197410000    -0.1354570000
    2      C      -0.5778580000    -7.6359670000     0.5581880000
    3      S       1.4147050000    -7.6517400000    -1.1488500000
    4      C      -0.2830200000    -6.2618940000     0.3086480000
    5      H      -1.3775970000    -7.9547380000     1.2385600000
    6      C       0.8108870000    -6.0799850000    -0.6090260000
    7      C       1.2315810000    -4.7983820000    -0.9968280000
    8      C      -0.9829010000    -5.1535420000     0.8657400000
    9      C      -0.5647130000    -3.8696260000     0.4744080000
   10      C       0.5321960000    -3.6889270000    -0.4420460000
   11      O      -1.9763320000    -5.4810750000     1.7381370000
   12      O       2.2287090000    -4.4798710000    -1.8740520000
   13      C       3.3402980000    -5.3560260000    -2.0160620000
   14      H       4.1108070000    -4.7904960000    -2.5738770000
   15      H       3.0859980000    -6.2685130000    -2.5984840000
   16      H       3.7516790000    -5.6581870000    -1.0286950000
   17      C      -3.0075650000    -4.5469990000     2.0331950000
   18      H      -3.7786550000    -5.1075640000     2.5948330000
   19      H      -3.4616500000    -4.1314730000     1.1080670000
   20      H      -2.6452640000    -3.7120850000     2.6714510000
   21      C       0.8228140000    -2.3143260000    -0.6910200000
   22      S      -1.1780370000    -2.2954870000     1.0056490000
   23      C       0.0000000000    -1.4351800000     0.0000000000
   24      H       1.6236560000    -1.9932110000    -1.3688750000
   25      C       0.0000000000     0.0000000000     0.0000000000
   26      S       0.7800440000     0.4477800000     1.5107320000
   27      C       2.1437740000     1.2363720000     0.7276290000
   28      C       0.7865290000     0.4541370000    -1.0646650000
   29      C       1.9884990000     1.1498440000    -0.6782870000
   30      C       0.7298640000     0.4195120000    -2.4861500000
   31      C       1.8251770000     1.0520410000    -3.1069160000
   32      S       2.9038770000     1.6786800000    -1.9657350000
   33      C       2.0478960000     1.1752320000    -4.5599720000
   34      O       1.2409530000     0.7058970000    -5.3502770000
   35      O       3.1607910000     1.8140240000    -5.0043750000
   36      F      -0.2330390000    -0.1409400000    -3.2462900000
   37      C       3.4765100000     1.9845850000    -6.3349760000
   38      H       4.4337350000     2.5365450000    -6.3702680000
   39      H       2.6938350000     2.5615030000    -6.8756090000
   40      H       3.5882390000     1.0111130000    -6.8618780000
   41      H       2.9405690000     1.6963270000     1.3215100000
   42      H      -0.3499390000    -9.1464710000    -0.8179320000
   43      H       0.8152470000    -9.1505700000     0.5489390000
   44      H      -0.7006470000    -1.4441580000    -0.8218350000
 ----------------------------------------------------------------

   11   -2755.2613603130      7.69e-07  Convergence criterion met
 Total energy in the final basis set =    -2755.2613603130
        RIMP2         total energy =     -2760.3732711208 a.u.

                    Orbital Energies (a.u.)
 --------------------------------------------------------------

 Alpha MOs
 -- Occupied --
-92.0115 -92.0093 -91.9723 -91.9553 -26.3385 -20.6174 -20.5861 -20.5838
-20.5589 -11.4181 -11.3793 -11.3271 -11.3150 -11.3075 -11.3038 -11.3021
-11.2975 -11.2914 -11.2824 -11.2820 -11.2800 -11.2751 -11.2734 -11.2712
-11.2687 -11.2553 -11.2522 -11.2467 -11.2304  -9.0127  -9.0112  -8.9745
 -8.9580  -6.6938  -6.6932  -6.6920  -6.6918  -6.6907  -6.6907  -6.6556
 -6.6548  -6.6536  -6.6392  -6.6383  -6.6373  -1.6517  -1.4777  -1.4083
 -1.4068  -1.3740  -1.2506  -1.2066  -1.1738  -1.1474  -1.0983  -1.0571
 -1.0432  -1.0348  -1.0063  -0.9951  -0.9768  -0.9597  -0.9475  -0.9410
 -0.8917  -0.8788  -0.8573  -0.8085  -0.7992  -0.7844  -0.7803  -0.7731
 -0.7584  -0.7343  -0.7223  -0.7169  -0.6980  -0.6940  -0.6849  -0.6831
 -0.6801  -0.6731  -0.6541  -0.6469  -0.6369  -0.6266  -0.6173  -0.6145
 -0.6131  -0.6107  -0.6050  -0.5933  -0.5786  -0.5675  -0.5569  -0.5551
 -0.5414  -0.5339  -0.5276  -0.5225  -0.5111  -0.5068  -0.5058  -0.4996
 -0.4922  -0.4818  -0.4696  -0.4677  -0.4653  -0.4636  -0.4547  -0.4427
 -0.4200  -0.3974  -0.3814  -0.3668  -0.3515  -0.3047  -0.2864  -0.2142

          Ground-State Mulliken Net Atomic Charges

     Atom                 Charge (a.u.)
  ----------------------------------------
      1 C                    -0.068856
      2 C                    -0.277899
      3 S                    -0.142274
      4 C                    -0.040505
      5 H                     0.191113
      6 C                    -0.054187
      7 C                     0.228065
      8 C                     0.223503
      9 C                    -0.070629
     10 C                    -0.053982
     11 O                    -0.336132
     12 O                    -0.344558
     13 C                    -0.082729
     14 H                     0.119076
     15 H                     0.092650
     16 H                     0.092299
     17 C                    -0.086790
     18 H                     0.123117
     19 H                     0.091825
     20 H                     0.089519
     21 C                    -0.283312
     22 S                    -0.108373
     23 C                     0.095508
     24 H                     0.199508
     25 C                    -0.209693
     26 S                     0.118139
     27 C                    -0.143312
     28 C                    -0.063538
     29 C                    -0.023423
     30 C                     0.377320
     31 C                    -0.118717
     32 S                     0.080471
     33 C                     0.458853
     34 O                    -0.436940
     35 O                    -0.296534
     36 F                    -0.212778
     37 C                    -0.054748
     38 H                     0.117808
     39 H                     0.086125
     40 H                     0.086142
     41 H                     0.220528
     42 H                     0.115003
     43 H                     0.112392
     44 H                     0.190946
  ----------------------------------------
  Sum of atomic charges =     0.000000

                    Cartesian Multipole Moments
 -----------------------------------------------------------------
    Charge (ESU x 10^10)
                 0.0000
    Dipole Moment (Debye)
         X       4.8595      Y       4.4034      Z       1.9452
       Tot       6.8402
    Quadrupole Moments (Debye-Ang)
        XX    -169.7594     XY      11.9203     YY    -195.1134
        XZ     -17.4350     YZ      -8.5737     ZZ    -199.6612

 Total job time:  334.73s(wall), 10846.03s(cpu)
        *  Thank you very much for using Q-Chem.  Have a nice day.  *
