 Q-Chem 5.4, Q-Chem, Inc., Pleasanton, CA (2021)
 Q-Chem 5.4.0 for Intel X86 EM64T Linux

User input:
--------------------------------------------------------------
$molecule
0 1
C	0.093711	-8.519741	-0.255459
C	-0.083869	-7.635967	0.799036
S	0.345260	-7.651740	-1.789425
C	-0.018411	-6.261894	0.418360
H	-0.259169	-7.954738	1.834294
C	0.229701	-6.079985	-0.987769
C	0.302697	-4.798382	-1.555260
C	-0.196459	-5.153542	1.294992
C	-0.127651	-3.869626	0.726408
C	0.123544	-3.688927	-0.680716
O	-0.396706	-5.481075	2.601852
O	0.502673	-4.479871	-2.868193
C	1.262918	-5.356026	-3.691495
H	1.494604	-4.790496	-4.614080
H	0.693738	-6.268513	-3.974195
H	2.212720	-5.658187	-3.199559
C	-0.997016	-4.546999	3.490743
H	-1.226691	-5.107564	4.416630
H	-1.939526	-4.131473	3.073934
H	-0.309214	-3.712085	3.746794
C	0.186133	-2.314326	-1.058247
S	-0.256010	-2.295487	1.527599
C	0.000000	-1.435180	0.000000
H	0.363896	-1.993211	-2.092285
C	0.000000	0.000000	0.000000
S	0.780044	0.447780	1.510732
C	2.143774	1.236372	0.727629
C	0.786529	0.454137	-1.064665
C	1.988499	1.149844	-0.678287
C	0.729864	0.419512	-2.486150
C	1.825177	1.052041	-3.106916
S	2.903877	1.678680	-1.965735
C	2.047896	1.175232	-4.559972
O	1.240953	0.705897	-5.350277
O	3.160791	1.814024	-5.004375
F	-0.233039	-0.140940	-3.246290
C	3.476510	1.984585	-6.334976
H	4.433735	2.536545	-6.370268
H	2.693835	2.561503	-6.875609
H	3.588239	1.011113	-6.861878
H	2.940569	1.696327	1.321510
H	-0.793825	-9.146471	-0.401636
H	0.977367	-9.150570	-0.103519
H	-1.064992	-1.444158	-0.179195
$end

$rem
JOBTYPE		SP
EXCHANGE	HF
CORRELATION	pRIMP2
BASIS		cc-pvtz
METHOD		rimp2
AUX_BASIS	rimp2-cc-pvtz
SOLVENT_METHOD	PCM
PURECART	11111
SYMMETRY	false
MEM_TOTAL	110000
SCF_CONVERGENCE = 6
THRESH=10
GUI = 2
$end

$solvent
dielectric 4.90
$end
--------------------------------------------------------------

             Standard Nuclear Orientation (Angstroms)
    I     Atom           X                Y                Z
 ----------------------------------------------------------------
    1      C       0.0937110000    -8.5197410000    -0.2554590000
    2      C      -0.0838690000    -7.6359670000     0.7990360000
    3      S       0.3452600000    -7.6517400000    -1.7894250000
    4      C      -0.0184110000    -6.2618940000     0.4183600000
    5      H      -0.2591690000    -7.9547380000     1.8342940000
    6      C       0.2297010000    -6.0799850000    -0.9877690000
    7      C       0.3026970000    -4.7983820000    -1.5552600000
    8      C      -0.1964590000    -5.1535420000     1.2949920000
    9      C      -0.1276510000    -3.8696260000     0.7264080000
   10      C       0.1235440000    -3.6889270000    -0.6807160000
   11      O      -0.3967060000    -5.4810750000     2.6018520000
   12      O       0.5026730000    -4.4798710000    -2.8681930000
   13      C       1.2629180000    -5.3560260000    -3.6914950000
   14      H       1.4946040000    -4.7904960000    -4.6140800000
   15      H       0.6937380000    -6.2685130000    -3.9741950000
   16      H       2.2127200000    -5.6581870000    -3.1995590000
   17      C      -0.9970160000    -4.5469990000     3.4907430000
   18      H      -1.2266910000    -5.1075640000     4.4166300000
   19      H      -1.9395260000    -4.1314730000     3.0739340000
   20      H      -0.3092140000    -3.7120850000     3.7467940000
   21      C       0.1861330000    -2.3143260000    -1.0582470000
   22      S      -0.2560100000    -2.2954870000     1.5275990000
   23      C       0.0000000000    -1.4351800000     0.0000000000
   24      H       0.3638960000    -1.9932110000    -2.0922850000
   25      C       0.0000000000     0.0000000000     0.0000000000
   26      S       0.7800440000     0.4477800000     1.5107320000
   27      C       2.1437740000     1.2363720000     0.7276290000
   28      C       0.7865290000     0.4541370000    -1.0646650000
   29      C       1.9884990000     1.1498440000    -0.6782870000
   30      C       0.7298640000     0.4195120000    -2.4861500000
   31      C       1.8251770000     1.0520410000    -3.1069160000
   32      S       2.9038770000     1.6786800000    -1.9657350000
   33      C       2.0478960000     1.1752320000    -4.5599720000
   34      O       1.2409530000     0.7058970000    -5.3502770000
   35      O       3.1607910000     1.8140240000    -5.0043750000
   36      F      -0.2330390000    -0.1409400000    -3.2462900000
   37      C       3.4765100000     1.9845850000    -6.3349760000
   38      H       4.4337350000     2.5365450000    -6.3702680000
   39      H       2.6938350000     2.5615030000    -6.8756090000
   40      H       3.5882390000     1.0111130000    -6.8618780000
   41      H       2.9405690000     1.6963270000     1.3215100000
   42      H      -0.7938250000    -9.1464710000    -0.4016360000
   43      H       0.9773670000    -9.1505700000    -0.1035190000
   44      H      -1.0649920000    -1.4441580000    -0.1791950000
 ----------------------------------------------------------------

   11   -2755.2407108600      8.46e-07  Convergence criterion met
 Total energy in the final basis set =    -2755.2407108600
        RIMP2         total energy =     -2760.3602206078 a.u.

                    Orbital Energies (a.u.)
 --------------------------------------------------------------

 Alpha MOs
 -- Occupied --
-92.0130 -92.0066 -91.9769 -91.9549 -26.3397 -20.6160 -20.5857 -20.5854
-20.5567 -11.4162 -11.3778 -11.3205 -11.3107 -11.3077 -11.3042 -11.3018
-11.2926 -11.2907 -11.2839 -11.2814 -11.2812 -11.2784 -11.2735 -11.2715
-11.2676 -11.2557 -11.2512 -11.2466 -11.2305  -9.0127  -9.0100  -8.9793
 -8.9575  -6.6933  -6.6923  -6.6922  -6.6912  -6.6906  -6.6893  -6.6603
 -6.6595  -6.6582  -6.6388  -6.6378  -6.6368  -1.6537  -1.4762  -1.4088
 -1.4073  -1.3723  -1.2484  -1.2076  -1.1738  -1.1466  -1.0974  -1.0562
 -1.0447  -1.0337  -1.0066  -0.9968  -0.9757  -0.9601  -0.9472  -0.9403
 -0.8936  -0.8770  -0.8581  -0.8077  -0.8013  -0.7865  -0.7754  -0.7742
 -0.7595  -0.7353  -0.7259  -0.7173  -0.6973  -0.6943  -0.6833  -0.6815
 -0.6785  -0.6682  -0.6556  -0.6473  -0.6405  -0.6270  -0.6171  -0.6127
 -0.6115  -0.6103  -0.6040  -0.5925  -0.5770  -0.5686  -0.5573  -0.5559
 -0.5391  -0.5351  -0.5287  -0.5224  -0.5140  -0.5105  -0.5061  -0.4995
 -0.4897  -0.4806  -0.4714  -0.4688  -0.4646  -0.4590  -0.4529  -0.4437
 -0.4302  -0.3899  -0.3859  -0.3665  -0.3470  -0.3005  -0.2849  -0.2100

          Ground-State Mulliken Net Atomic Charges

     Atom                 Charge (a.u.)
  ----------------------------------------
      1 C                    -0.068919
      2 C                    -0.278975
      3 S                    -0.143368
      4 C                    -0.042902
      5 H                     0.190897
      6 C                    -0.056384
      7 C                     0.232033
      8 C                     0.226902
      9 C                    -0.074558
     10 C                    -0.055756
     11 O                    -0.335051
     12 O                    -0.344610
     13 C                    -0.083399
     14 H                     0.120715
     15 H                     0.092719
     16 H                     0.092030
     17 C                    -0.087733
     18 H                     0.123869
     19 H                     0.092255
     20 H                     0.088530
     21 C                    -0.265701
     22 S                    -0.106026
     23 C                     0.059456
     24 H                     0.209754
     25 C                    -0.167143
     26 S                     0.119002
     27 C                    -0.164678
     28 C                    -0.033561
     29 C                    -0.029952
     30 C                     0.334378
     31 C                    -0.117815
     32 S                     0.076725
     33 C                     0.461043
     34 O                    -0.441579
     35 O                    -0.296931
     36 F                    -0.216654
     37 C                    -0.054765
     38 H                     0.117557
     39 H                     0.085699
     40 H                     0.085490
     41 H                     0.219806
     42 H                     0.114846
     43 H                     0.112366
     44 H                     0.210387
  ----------------------------------------
  Sum of atomic charges =     0.000000

                    Cartesian Multipole Moments
 -----------------------------------------------------------------
    Charge (ESU x 10^10)
                 0.0000
    Dipole Moment (Debye)
         X       4.2266      Y       3.9984      Z       2.7793
       Tot       6.4480
    Quadrupole Moments (Debye-Ang)
        XX    -181.9070     XY       9.5149     YY    -195.9019
        XZ     -18.4989     YZ      -9.8544     ZZ    -188.8965

 Total job time:  336.48s(wall), 10918.87s(cpu)
        *  Thank you very much for using Q-Chem.  Have a nice day.  *
