 Q-Chem 5.4, Q-Chem, Inc., Pleasanton, CA (2021)
 Q-Chem 5.4.0 for Intel X86 EM64T Linux

User input:
--------------------------------------------------------------
$molecule
0 1
C	0.208886	-8.519741	-0.174379
C	-0.472151	-7.635967	0.650052
S	1.193717	-7.651740	-1.377058
C	-0.225125	-6.261894	0.353105
H	-1.141594	-7.954738	1.458961
C	0.692811	-6.079985	-0.740583
C	1.039773	-4.798382	-1.195546
C	-0.817634	-5.153542	1.023267
C	-0.473754	-3.869626	0.565262
C	0.447350	-3.688927	-0.527745
O	-1.644483	-5.481075	2.054917
O	1.869424	-4.479871	-2.232592
C	2.939466	-5.356026	-2.565470
H	3.601405	-4.790496	-3.248608
H	2.587892	-6.268513	-3.094885
H	3.516052	-5.658187	-1.664539
C	-2.608813	-4.546999	2.524564
H	-3.270661	-5.107564	3.211568
H	-3.216646	-4.131473	1.692342
H	-2.141184	-3.712085	3.090211
C	0.690319	-2.314326	-0.823402
S	-0.985511	-2.295487	1.194935
C	-0.000000	-1.435180	-0.000000
H	1.361286	-1.993211	-1.630024
C	0.000000	0.000000	0.000000
S	0.158383	0.885376	1.510732
C	0.430876	2.436951	0.727629
C	0.157682	0.894430	-1.064665
C	0.397351	2.262384	-0.678287
C	0.147783	0.828765	-2.486150
C	0.367291	2.074406	-3.106916
S	0.580633	3.303533	-1.965735
C	0.416083	2.324204	-4.559972
O	0.256921	1.404367	-5.350277
O	0.642094	3.587338	-5.004375
F	-0.041828	-0.269113	-3.246290
C	0.714377	3.938827	-6.334976
H	0.906844	5.026898	-6.370268
H	-0.230661	3.710099	-6.875609
H	1.531918	3.398681	-6.861878
H	0.590699	3.342984	1.321510
H	-0.486655	-9.146471	-0.744739
H	0.898184	-9.150570	0.399033
H	-0.832713	-1.444158	-0.687683
$end

$rem
JOBTYPE		SP
EXCHANGE	HF
CORRELATION	pRIMP2
BASIS		cc-pvtz
METHOD		rimp2
AUX_BASIS	rimp2-cc-pvtz
SOLVENT_METHOD	PCM
PURECART	11111
SYMMETRY	false
MEM_TOTAL	110000
SCF_CONVERGENCE = 6
THRESH=10
GUI = 2
$end

$solvent
dielectric 4.90
$end
--------------------------------------------------------------

             Standard Nuclear Orientation (Angstroms)
    I     Atom           X                Y                Z
 ----------------------------------------------------------------
    1      C       0.2088860000    -8.5197410000    -0.1743790000
    2      C      -0.4721510000    -7.6359670000     0.6500520000
    3      S       1.1937170000    -7.6517400000    -1.3770580000
    4      C      -0.2251250000    -6.2618940000     0.3531050000
    5      H      -1.1415940000    -7.9547380000     1.4589610000
    6      C       0.6928110000    -6.0799850000    -0.7405830000
    7      C       1.0397730000    -4.7983820000    -1.1955460000
    8      C      -0.8176340000    -5.1535420000     1.0232670000
    9      C      -0.4737540000    -3.8696260000     0.5652620000
   10      C       0.4473500000    -3.6889270000    -0.5277450000
   11      O      -1.6444830000    -5.4810750000     2.0549170000
   12      O       1.8694240000    -4.4798710000    -2.2325920000
   13      C       2.9394660000    -5.3560260000    -2.5654700000
   14      H       3.6014050000    -4.7904960000    -3.2486080000
   15      H       2.5878920000    -6.2685130000    -3.0948850000
   16      H       3.5160520000    -5.6581870000    -1.6645390000
   17      C      -2.6088130000    -4.5469990000     2.5245640000
   18      H      -3.2706610000    -5.1075640000     3.2115680000
   19      H      -3.2166460000    -4.1314730000     1.6923420000
   20      H      -2.1411840000    -3.7120850000     3.0902110000
   21      C       0.6903190000    -2.3143260000    -0.8234020000
   22      S      -0.9855110000    -2.2954870000     1.1949350000
   23      C       0.0000000000    -1.4351800000     0.0000000000
   24      H       1.3612860000    -1.9932110000    -1.6300240000
   25      C       0.0000000000     0.0000000000     0.0000000000
   26      S       0.1583830000     0.8853760000     1.5107320000
   27      C       0.4308760000     2.4369510000     0.7276290000
   28      C       0.1576820000     0.8944300000    -1.0646650000
   29      C       0.3973510000     2.2623840000    -0.6782870000
   30      C       0.1477830000     0.8287650000    -2.4861500000
   31      C       0.3672910000     2.0744060000    -3.1069160000
   32      S       0.5806330000     3.3035330000    -1.9657350000
   33      C       0.4160830000     2.3242040000    -4.5599720000
   34      O       0.2569210000     1.4043670000    -5.3502770000
   35      O       0.6420940000     3.5873380000    -5.0043750000
   36      F      -0.0418280000    -0.2691130000    -3.2462900000
   37      C       0.7143770000     3.9388270000    -6.3349760000
   38      H       0.9068440000     5.0268980000    -6.3702680000
   39      H      -0.2306610000     3.7100990000    -6.8756090000
   40      H       1.5319180000     3.3986810000    -6.8618780000
   41      H       0.5906990000     3.3429840000     1.3215100000
   42      H      -0.4866550000    -9.1464710000    -0.7447390000
   43      H       0.8981840000    -9.1505700000     0.3990330000
   44      H      -0.8327130000    -1.4441580000    -0.6876830000
 ----------------------------------------------------------------

   11   -2755.3264371894      7.29e-07  Convergence criterion met
 Total energy in the final basis set =    -2755.3264371894
        RIMP2         total energy =     -2760.4181508106 a.u.

                    Orbital Energies (a.u.)
 --------------------------------------------------------------

 Alpha MOs
 -- Occupied --
-92.0147 -91.9946 -91.9818 -91.9591 -26.3384 -20.6120 -20.5887 -20.5872
-20.5494 -11.4099 -11.3795 -11.3210 -11.3102 -11.3097 -11.2977 -11.2957
-11.2885 -11.2882 -11.2857 -11.2851 -11.2849 -11.2826 -11.2807 -11.2743
-11.2736 -11.2603 -11.2594 -11.2507 -11.2395  -9.0132  -8.9986  -8.9839
 -8.9617  -6.6940  -6.6933  -6.6929  -6.6799  -6.6792  -6.6779  -6.6651
 -6.6642  -6.6629  -6.6429  -6.6420  -6.6410  -1.6515  -1.4716  -1.4120
 -1.4091  -1.3668  -1.2387  -1.2104  -1.1766  -1.1436  -1.1010  -1.0511
 -1.0476  -1.0287  -1.0100  -0.9996  -0.9719  -0.9603  -0.9497  -0.9411
 -0.8952  -0.8740  -0.8627  -0.8086  -0.7950  -0.7869  -0.7774  -0.7723
 -0.7625  -0.7343  -0.7204  -0.7189  -0.6988  -0.6941  -0.6861  -0.6786
 -0.6755  -0.6722  -0.6569  -0.6491  -0.6374  -0.6286  -0.6210  -0.6154
 -0.6109  -0.6061  -0.5952  -0.5930  -0.5810  -0.5691  -0.5596  -0.5528
 -0.5471  -0.5364  -0.5304  -0.5231  -0.5135  -0.5084  -0.5055  -0.5025
 -0.4859  -0.4846  -0.4778  -0.4706  -0.4628  -0.4613  -0.4604  -0.4476
 -0.4294  -0.4000  -0.3871  -0.3714  -0.3509  -0.2937  -0.2865  -0.2195

          Ground-State Mulliken Net Atomic Charges

     Atom                 Charge (a.u.)
  ----------------------------------------
      1 C                    -0.070655
      2 C                    -0.252678
      3 S                    -0.132731
      4 C                    -0.048648
      5 H                     0.194285
      6 C                    -0.051917
      7 C                     0.221796
      8 C                     0.234436
      9 C                    -0.079827
     10 C                    -0.036035
     11 O                    -0.334245
     12 O                    -0.342418
     13 C                    -0.082879
     14 H                     0.120766
     15 H                     0.092162
     16 H                     0.092532
     17 C                    -0.087232
     18 H                     0.124267
     19 H                     0.093373
     20 H                     0.090136
     21 C                    -0.300405
     22 S                    -0.082440
     23 C                     0.117582
     24 H                     0.204661
     25 C                    -0.088658
     26 S                     0.100795
     27 C                    -0.257031
     28 C                    -0.090339
     29 C                    -0.005092
     30 C                     0.396882
     31 C                    -0.149491
     32 S                     0.035235
     33 C                     0.462582
     34 O                    -0.452824
     35 O                    -0.298197
     36 F                    -0.216101
     37 C                    -0.055084
     38 H                     0.116588
     39 H                     0.084475
     40 H                     0.084351
     41 H                     0.213768
     42 H                     0.118446
     43 H                     0.116036
     44 H                     0.199769
  ----------------------------------------
  Sum of atomic charges =     0.000000

                    Cartesian Multipole Moments
 -----------------------------------------------------------------
    Charge (ESU x 10^10)
                 0.0000
    Dipole Moment (Debye)
         X      -0.0740      Y       2.4133      Z       3.0790
       Tot       3.9128
    Quadrupole Moments (Debye-Ang)
        XX    -187.2926     XY       5.3590     YY    -171.0894
        XZ     -10.3634     YZ     -13.5866     ZZ    -202.0721

 Total job time:  329.08s(wall), 10452.55s(cpu)
        *  Thank you very much for using Q-Chem.  Have a nice day.  *
