 Q-Chem 5.4, Q-Chem, Inc., Pleasanton, CA (2021)
 Q-Chem 5.4.0 for Intel X86 EM64T Linux

User input:
--------------------------------------------------------------
$molecule
0 1
C	-0.126876	-3.887800	0.713264
C	0.113784	-3.701456	-0.651267
C	0.188043	-2.345170	-1.068787
H	0.236019	-4.545233	-1.346782
C	-0.000000	-1.450135	-0.000000
S	-0.265612	-2.321334	1.504247
C	0.439357	-1.934439	-2.493059
H	0.554378	-2.819799	-3.147809
H	1.362899	-1.326210	-2.589987
H	-0.394786	-1.325374	-2.899892
H	-0.228603	-4.815326	1.287774
C	0.000000	0.000000	0.000000
C	0.729909	0.424971	1.113020
C	1.932179	1.124518	0.820578
H	0.394478	0.229765	2.142881
C	2.146756	1.249161	-0.563588
S	0.838724	0.488500	-1.464748
C	2.852364	1.659924	1.882380
H	2.465145	1.434710	2.894974
H	2.970621	2.761183	1.808137
H	3.868160	1.218416	1.808230
H	2.974781	1.731032	-1.097114
$end

$rem
JOBTYPE		SP
EXCHANGE	HF
CORRELATION	pRIMP2
BASIS		cc-pvtz
METHOD		rimp2
AUX_BASIS	rimp2-cc-pvtz
SOLVENT_METHOD	PCM
PURECART	11111
SYMMETRY	false
MEM_TOTAL	110000
SCF_CONVERGENCE = 6
THRESH=10
GUI = 2
$end

$solvent
dielectric 4.90
$end
--------------------------------------------------------------

             Standard Nuclear Orientation (Angstroms)
    I     Atom           X                Y                Z
 ----------------------------------------------------------------
    1      C      -0.1268760000    -3.8878000000     0.7132640000
    2      C       0.1137840000    -3.7014560000    -0.6512670000
    3      C       0.1880430000    -2.3451700000    -1.0687870000
    4      H       0.2360190000    -4.5452330000    -1.3467820000
    5      C       0.0000000000    -1.4501350000     0.0000000000
    6      S      -0.2656120000    -2.3213340000     1.5042470000
    7      C       0.4393570000    -1.9344390000    -2.4930590000
    8      H       0.5543780000    -2.8197990000    -3.1478090000
    9      H       1.3628990000    -1.3262100000    -2.5899870000
   10      H      -0.3947860000    -1.3253740000    -2.8998920000
   11      H      -0.2286030000    -4.8153260000     1.2877740000
   12      C       0.0000000000     0.0000000000     0.0000000000
   13      C       0.7299090000     0.4249710000     1.1130200000
   14      C       1.9321790000     1.1245180000     0.8205780000
   15      H       0.3944780000     0.2297650000     2.1428810000
   16      C       2.1467560000     1.2491610000    -0.5635880000
   17      S       0.8387240000     0.4885000000    -1.4647480000
   18      C       2.8523640000     1.6599240000     1.8823800000
   19      H       2.4651450000     1.4347100000     2.8949740000
   20      H       2.9706210000     2.7611830000     1.8081370000
   21      H       3.8681600000     1.2184160000     1.8082300000
   22      H       2.9747810000     1.7310320000    -1.0971140000
 ----------------------------------------------------------------

   11   -1179.5917470077      6.91e-07  Convergence criterion met
 Total energy in the final basis set =    -1179.5917470077
        RIMP2         total energy =     -1181.5938564370 a.u.

                    Orbital Energies (a.u.)
 --------------------------------------------------------------

 Alpha MOs
 -- Occupied --
-91.9812 -91.9743 -11.2894 -11.2823 -11.2643 -11.2587 -11.2564 -11.2541
-11.2380 -11.2330 -11.2312 -11.2202  -8.9831  -8.9748  -6.6635  -6.6628
 -6.6624  -6.6559  -6.6553  -6.6546  -1.1937  -1.1446  -1.0478  -1.0254
 -0.9978  -0.9491  -0.9108  -0.8968  -0.7931  -0.7677  -0.7250  -0.6934
 -0.6545  -0.6212  -0.5929  -0.5858  -0.5762  -0.5697  -0.5500  -0.5344
 -0.5257  -0.5204  -0.5112  -0.4953  -0.4688  -0.4543  -0.4395  -0.3694
 -0.3390  -0.3326  -0.2611

          Ground-State Mulliken Net Atomic Charges

     Atom                 Charge (a.u.)
  ----------------------------------------
      1 C                    -0.243906
      2 C                    -0.246584
      3 C                     0.008019
      4 H                     0.183362
      5 C                    -0.006488
      6 S                    -0.026299
      7 C                    -0.285655
      8 H                     0.102634
      9 H                     0.116045
     10 H                     0.105335
     11 H                     0.200046
     12 C                    -0.101695
     13 C                    -0.103361
     14 C                    -0.020002
     15 H                     0.187875
     16 C                    -0.185968
     17 S                     0.061277
     18 C                    -0.264506
     19 H                     0.103703
     20 H                     0.107508
     21 H                     0.105822
     22 H                     0.202837
  ----------------------------------------
  Sum of atomic charges =     0.000000

                    Cartesian Multipole Moments
 -----------------------------------------------------------------
    Charge (ESU x 10^10)
                -0.0000
    Dipole Moment (Debye)
         X       3.2343      Y       1.2611      Z      -0.1333
       Tot       3.4741
    Quadrupole Moments (Debye-Ang)
        XX     -82.6202     XY       4.9959     YY     -82.1498
        XZ      -0.9103     YZ       2.9892     ZZ     -79.8420

 Total job time:  59.25s(wall), 1896.97s(cpu)
        *  Thank you very much for using Q-Chem.  Have a nice day.  *
