 Q-Chem 5.4, Q-Chem, Inc., Pleasanton, CA (2021)
 Q-Chem 5.4.0 for Intel X86 EM64T Linux

User input:
--------------------------------------------------------------
$molecule
0 1
C	-0.363176	-3.887800	0.626855
C	0.329669	-3.701456	-0.573074
C	0.542250	-2.345170	-0.940016
H	0.682412	-4.545233	-1.184837
C	0.000000	-1.450135	0.000000
S	-0.764076	-2.321334	1.322686
C	1.265537	-1.934439	-2.192440
H	1.597559	-2.819799	-2.768365
H	2.166534	-1.326210	-1.967653
H	0.620843	-1.325374	-2.860032
H	-0.655262	-4.815326	1.131925
C	0.000000	0.000000	0.000000
C	0.354153	0.766774	1.113020
C	0.937751	2.029404	0.820578
H	0.191350	0.414475	2.142881
C	1.042030	2.254581	-0.563588
S	0.406851	0.881228	-1.464748
C	1.384426	2.995779	1.882380
H	1.196413	2.589194	2.894974
H	0.849641	3.965707	1.808137
H	2.469756	3.216753	1.808230
H	1.443919	3.124243	-1.097114
$end

$rem
JOBTYPE		SP
EXCHANGE	HF
CORRELATION	pRIMP2
BASIS		cc-pvtz
METHOD		rimp2
AUX_BASIS	rimp2-cc-pvtz
SOLVENT_METHOD	PCM
PURECART	11111
SYMMETRY	false
MEM_TOTAL	110000
SCF_CONVERGENCE = 6
THRESH=10
GUI = 2
$end

$solvent
dielectric 4.90
$end
--------------------------------------------------------------

             Standard Nuclear Orientation (Angstroms)
    I     Atom           X                Y                Z
 ----------------------------------------------------------------
    1      C      -0.3631760000    -3.8878000000     0.6268550000
    2      C       0.3296690000    -3.7014560000    -0.5730740000
    3      C       0.5422500000    -2.3451700000    -0.9400160000
    4      H       0.6824120000    -4.5452330000    -1.1848370000
    5      C       0.0000000000    -1.4501350000     0.0000000000
    6      S      -0.7640760000    -2.3213340000     1.3226860000
    7      C       1.2655370000    -1.9344390000    -2.1924400000
    8      H       1.5975590000    -2.8197990000    -2.7683650000
    9      H       2.1665340000    -1.3262100000    -1.9676530000
   10      H       0.6208430000    -1.3253740000    -2.8600320000
   11      H      -0.6552620000    -4.8153260000     1.1319250000
   12      C       0.0000000000     0.0000000000     0.0000000000
   13      C       0.3541530000     0.7667740000     1.1130200000
   14      C       0.9377510000     2.0294040000     0.8205780000
   15      H       0.1913500000     0.4144750000     2.1428810000
   16      C       1.0420300000     2.2545810000    -0.5635880000
   17      S       0.4068510000     0.8812280000    -1.4647480000
   18      C       1.3844260000     2.9957790000     1.8823800000
   19      H       1.1964130000     2.5891940000     2.8949740000
   20      H       0.8496410000     3.9657070000     1.8081370000
   21      H       2.4697560000     3.2167530000     1.8082300000
   22      H       1.4439190000     3.1242430000    -1.0971140000
 ----------------------------------------------------------------

   10   -1179.6700385974      5.29e-07  Convergence criterion met
 Total energy in the final basis set =    -1179.6700385974
        RIMP2         total energy =     -1181.6542246403 a.u.

                    Orbital Energies (a.u.)
 --------------------------------------------------------------

 Alpha MOs
 -- Occupied --
-91.9839 -91.9834 -11.2795 -11.2784 -11.2694 -11.2673 -11.2518 -11.2491
-11.2439 -11.2423 -11.2293 -11.2267  -8.9839  -8.9832  -6.6647  -6.6642
 -6.6642  -6.6636  -6.6636  -6.6630  -1.1811  -1.1490  -1.0417  -1.0227
 -0.9979  -0.9527  -0.9125  -0.8948  -0.7974  -0.7627  -0.7222  -0.6955
 -0.6604  -0.6164  -0.5831  -0.5791  -0.5774  -0.5695  -0.5512  -0.5325
 -0.5258  -0.5198  -0.5114  -0.4959  -0.4828  -0.4654  -0.4518  -0.3649
 -0.3418  -0.3371  -0.2715

          Ground-State Mulliken Net Atomic Charges

     Atom                 Charge (a.u.)
  ----------------------------------------
      1 C                    -0.216623
      2 C                    -0.252065
      3 C                     0.048111
      4 H                     0.185470
      5 C                    -0.037051
      6 S                     0.010926
      7 C                    -0.303468
      8 H                     0.109525
      9 H                     0.120799
     10 H                     0.109503
     11 H                     0.204564
     12 C                     0.003443
     13 C                    -0.218627
     14 C                     0.014873
     15 H                     0.182528
     16 C                    -0.230286
     17 S                     0.019394
     18 C                    -0.269371
     19 H                     0.103073
     20 H                     0.108334
     21 H                     0.107522
     22 H                     0.199424
  ----------------------------------------
  Sum of atomic charges =     0.000000

                    Cartesian Multipole Moments
 -----------------------------------------------------------------
    Charge (ESU x 10^10)
                -0.0000
    Dipole Moment (Debye)
         X       1.6872      Y       0.4570      Z       0.0542
       Tot       1.7488
    Quadrupole Moments (Debye-Ang)
        XX     -89.1002     XY       3.0986     YY     -71.7979
        XZ      -2.4839     YZ       2.9198     ZZ     -81.5314

 Total job time:  54.73s(wall), 1811.90s(cpu)
        *  Thank you very much for using Q-Chem.  Have a nice day.  *
