 Q-Chem 5.4, Q-Chem, Inc., Pleasanton, CA (2021)
 Q-Chem 5.4.0 for Intel X86 EM64T Linux

User input:
--------------------------------------------------------------
$molecule
0 1
C	0.001092	-3.887800	-0.724460
C	0.001036	-3.701456	0.661131
C	0.000406	-2.345170	1.085203
H	0.001433	-4.545233	1.367305
C	-0.000000	-1.450135	-0.000000
S	0.000367	-2.321334	-1.527517
C	0.000233	-1.934439	2.531478
H	0.000656	-2.819799	3.196254
H	-0.892447	-1.326210	2.787305
H	0.892350	-1.325374	2.787282
H	0.001511	-4.815326	-1.307907
C	0.000000	0.000000	0.000000
C	0.070542	0.841660	1.113020
C	0.187101	2.227746	0.820578
H	0.038051	0.454925	2.142881
C	0.208076	2.475009	-0.563588
S	0.080917	0.967235	-1.464748
C	0.276318	3.288613	1.882380
H	0.238704	2.842244	2.894974
H	-0.557951	4.017140	1.808137
H	1.220618	3.867466	1.808230
H	0.288286	3.429678	-1.097114
$end

$rem
JOBTYPE		SP
EXCHANGE	HF
CORRELATION	pRIMP2
BASIS		cc-pvtz
METHOD		rimp2
AUX_BASIS	rimp2-cc-pvtz
SOLVENT_METHOD	PCM
PURECART	11111
SYMMETRY	false
MEM_TOTAL	110000
SCF_CONVERGENCE = 6
THRESH=10
GUI = 2
$end

$solvent
dielectric 4.90
$end
--------------------------------------------------------------

             Standard Nuclear Orientation (Angstroms)
    I     Atom           X                Y                Z
 ----------------------------------------------------------------
    1      C       0.0010920000    -3.8878000000    -0.7244600000
    2      C       0.0010360000    -3.7014560000     0.6611310000
    3      C       0.0004060000    -2.3451700000     1.0852030000
    4      H       0.0014330000    -4.5452330000     1.3673050000
    5      C       0.0000000000    -1.4501350000     0.0000000000
    6      S       0.0003670000    -2.3213340000    -1.5275170000
    7      C       0.0002330000    -1.9344390000     2.5314780000
    8      H       0.0006560000    -2.8197990000     3.1962540000
    9      H      -0.8924470000    -1.3262100000     2.7873050000
   10      H       0.8923500000    -1.3253740000     2.7872820000
   11      H       0.0015110000    -4.8153260000    -1.3079070000
   12      C       0.0000000000     0.0000000000     0.0000000000
   13      C       0.0705420000     0.8416600000     1.1130200000
   14      C       0.1871010000     2.2277460000     0.8205780000
   15      H       0.0380510000     0.4549250000     2.1428810000
   16      C       0.2080760000     2.4750090000    -0.5635880000
   17      S       0.0809170000     0.9672350000    -1.4647480000
   18      C       0.2763180000     3.2886130000     1.8823800000
   19      H       0.2387040000     2.8422440000     2.8949740000
   20      H      -0.5579510000     4.0171400000     1.8081370000
   21      H       1.2206180000     3.8674660000     1.8082300000
   22      H       0.2882860000     3.4296780000    -1.0971140000
 ----------------------------------------------------------------

   10   -1179.6845884633      5.17e-07  Convergence criterion met
 Total energy in the final basis set =    -1179.6845884633
        RIMP2         total energy =     -1181.6646992958 a.u.

                    Orbital Energies (a.u.)
 --------------------------------------------------------------

 Alpha MOs
 -- Occupied --
-91.9860 -91.9860 -11.2844 -11.2798 -11.2733 -11.2642 -11.2541 -11.2522
-11.2446 -11.2385 -11.2320 -11.2295  -8.9859  -8.9858  -6.6669  -6.6667
 -6.6663  -6.6662  -6.6657  -6.6655  -1.1812  -1.1506  -1.0412  -1.0283
 -0.9957  -0.9560  -0.9153  -0.8952  -0.8025  -0.7567  -0.7267  -0.7017
 -0.6620  -0.6146  -0.5918  -0.5826  -0.5701  -0.5633  -0.5516  -0.5404
 -0.5298  -0.5234  -0.5029  -0.4917  -0.4895  -0.4770  -0.4515  -0.3705
 -0.3478  -0.3378  -0.2694

          Ground-State Mulliken Net Atomic Charges

     Atom                 Charge (a.u.)
  ----------------------------------------
      1 C                    -0.211489
      2 C                    -0.257111
      3 C                     0.077715
      4 H                     0.185270
      5 C                    -0.053483
      6 S                     0.008385
      7 C                    -0.314656
      8 H                     0.120763
      9 H                     0.109752
     10 H                     0.109373
     11 H                     0.207556
     12 C                     0.036506
     13 C                    -0.236460
     14 C                     0.019986
     15 H                     0.196331
     16 C                    -0.251237
     17 S                     0.005156
     18 C                    -0.271693
     19 H                     0.101177
     20 H                     0.108604
     21 H                     0.108934
     22 H                     0.200622
  ----------------------------------------
  Sum of atomic charges =     0.000000

                    Cartesian Multipole Moments
 -----------------------------------------------------------------
    Charge (ESU x 10^10)
                -0.0000
    Dipole Moment (Debye)
         X       0.1562      Y       0.0977      Z       2.9850
       Tot       2.9907
    Quadrupole Moments (Debye-Ang)
        XX     -92.7327     XY       0.9161     YY     -68.2977
        XZ       0.1027     YZ      -1.1769     ZZ     -79.9876

 Total job time:  56.26s(wall), 1807.71s(cpu)
        *  Thank you very much for using Q-Chem.  Have a nice day.  *
