 Q-Chem 5.4, Q-Chem, Inc., Pleasanton, CA (2021)
 Q-Chem 5.4.0 for Intel X86 EM64T Linux

User input:
--------------------------------------------------------------
$molecule
0 1
C	-0.713264	-3.887800	-0.126876
C	0.651267	-3.701456	0.113784
C	1.068787	-2.345170	0.188043
H	1.346782	-4.545233	0.236019
C	0.000000	-1.450135	0.000000
S	-1.504247	-2.321334	-0.265612
C	2.493059	-1.934439	0.439357
H	3.147809	-2.819799	0.554378
H	2.589987	-1.326210	1.362899
H	2.899892	-1.325374	-0.394786
H	-1.287774	-4.815326	-0.228603
C	0.000000	0.000000	0.000000
C	0.285976	0.794723	1.113020
C	0.757308	2.103412	0.820578
H	0.154498	0.429575	2.142881
C	0.841565	2.336821	-0.563588
S	0.328498	0.913334	-1.464748
C	1.118059	3.105040	1.882380
H	0.966197	2.683616	2.894974
H	0.500773	4.024668	1.808137
H	2.180000	3.419766	1.808230
H	1.166129	3.238200	-1.097114
$end

$rem
JOBTYPE		SP
EXCHANGE	HF
CORRELATION	pRIMP2
BASIS		cc-pvtz
METHOD		rimp2
AUX_BASIS	rimp2-cc-pvtz
SOLVENT_METHOD	PCM
PURECART	11111
SYMMETRY	false
MEM_TOTAL	110000
SCF_CONVERGENCE = 6
THRESH=10
GUI = 2
$end

$solvent
dielectric 4.90
$end
--------------------------------------------------------------

             Standard Nuclear Orientation (Angstroms)
    I     Atom           X                Y                Z
 ----------------------------------------------------------------
    1      C      -0.7132640000    -3.8878000000    -0.1268760000
    2      C       0.6512670000    -3.7014560000     0.1137840000
    3      C       1.0687870000    -2.3451700000     0.1880430000
    4      H       1.3467820000    -4.5452330000     0.2360190000
    5      C       0.0000000000    -1.4501350000     0.0000000000
    6      S      -1.5042470000    -2.3213340000    -0.2656120000
    7      C       2.4930590000    -1.9344390000     0.4393570000
    8      H       3.1478090000    -2.8197990000     0.5543780000
    9      H       2.5899870000    -1.3262100000     1.3628990000
   10      H       2.8998920000    -1.3253740000    -0.3947860000
   11      H      -1.2877740000    -4.8153260000    -0.2286030000
   12      C       0.0000000000     0.0000000000     0.0000000000
   13      C       0.2859760000     0.7947230000     1.1130200000
   14      C       0.7573080000     2.1034120000     0.8205780000
   15      H       0.1544980000     0.4295750000     2.1428810000
   16      C       0.8415650000     2.3368210000    -0.5635880000
   17      S       0.3284980000     0.9133340000    -1.4647480000
   18      C       1.1180590000     3.1050400000     1.8823800000
   19      H       0.9661970000     2.6836160000     2.8949740000
   20      H       0.5007730000     4.0246680000     1.8081370000
   21      H       2.1800000000     3.4197660000     1.8082300000
   22      H       1.1661290000     3.2382000000    -1.0971140000
 ----------------------------------------------------------------

   10   -1179.6788814373      5.43e-07  Convergence criterion met
 Total energy in the final basis set =    -1179.6788814373
        RIMP2         total energy =     -1181.6591096336 a.u.

                    Orbital Energies (a.u.)
 --------------------------------------------------------------

 Alpha MOs
 -- Occupied --
-91.9853 -91.9833 -11.2758 -11.2733 -11.2717 -11.2679 -11.2530 -11.2513
-11.2440 -11.2417 -11.2295 -11.2285  -8.9848  -8.9830  -6.6657  -6.6651
 -6.6645  -6.6639  -6.6633  -6.6627  -1.1784  -1.1493  -1.0396  -1.0219
 -0.9967  -0.9542  -0.9128  -0.8923  -0.7988  -0.7523  -0.7317  -0.6955
 -0.6611  -0.6167  -0.5821  -0.5798  -0.5714  -0.5682  -0.5510  -0.5310
 -0.5288  -0.5203  -0.5092  -0.4917  -0.4841  -0.4637  -0.4619  -0.3442
 -0.3401  -0.3203  -0.3042

          Ground-State Mulliken Net Atomic Charges

     Atom                 Charge (a.u.)
  ----------------------------------------
      1 C                    -0.213701
      2 C                    -0.250862
      3 C                     0.069323
      4 H                     0.184888
      5 C                    -0.039457
      6 S                     0.026013
      7 C                    -0.282065
      8 H                     0.109540
      9 H                     0.109580
     10 H                     0.112730
     11 H                     0.203485
     12 C                    -0.043786
     13 C                    -0.241525
     14 C                     0.031035
     15 H                     0.187319
     16 C                    -0.237477
     17 S                     0.027375
     18 C                    -0.270134
     19 H                     0.102877
     20 H                     0.108366
     21 H                     0.107615
     22 H                     0.198863
  ----------------------------------------
  Sum of atomic charges =     0.000000

                    Cartesian Multipole Moments
 -----------------------------------------------------------------
    Charge (ESU x 10^10)
                -0.0000
    Dipole Moment (Debye)
         X       2.2154      Y       0.3602      Z       1.7755
       Tot       2.8618
    Quadrupole Moments (Debye-Ang)
        XX     -85.1826     XY       1.2587     YY     -70.2392
        XZ       1.4941     YZ       0.6508     ZZ     -86.4837

 Total job time:  53.85s(wall), 1778.38s(cpu)
        *  Thank you very much for using Q-Chem.  Have a nice day.  *
