 Q-Chem 5.4, Q-Chem, Inc., Pleasanton, CA (2021)
 Q-Chem 5.4.0 for Intel X86 EM64T Linux

User input:
--------------------------------------------------------------
$molecule
0 1
C	-0.555670	-3.887800	0.464838
C	0.505790	-3.701456	-0.425760
C	0.831053	-2.345170	-0.697866
H	1.046496	-4.545233	-0.879984
C	0.000000	-1.450135	0.000000
S	-1.170382	-2.321334	0.981588
C	1.939074	-1.934439	-1.627381
H	2.448051	-2.819799	-2.055015
H	2.708853	-1.326210	-1.107991
H	1.561590	-1.325374	-2.475210
H	-1.002886	-4.815326	0.839549
C	0.000000	0.000000	0.000000
C	0.354153	0.766774	1.113020
C	0.937751	2.029404	0.820578
H	0.191350	0.414475	2.142881
C	1.042030	2.254581	-0.563588
S	0.406851	0.881228	-1.464748
C	1.384426	2.995779	1.882380
H	1.196413	2.589194	2.894974
H	0.849641	3.965707	1.808137
H	2.469756	3.216753	1.808230
H	1.443919	3.124243	-1.097114
$end

$rem
JOBTYPE		SP
EXCHANGE	HF
CORRELATION	pRIMP2
BASIS		cc-pvtz
METHOD		rimp2
AUX_BASIS	rimp2-cc-pvtz
SOLVENT_METHOD	PCM
PURECART	11111
SYMMETRY	false
MEM_TOTAL	110000
SCF_CONVERGENCE = 6
THRESH=10
GUI = 2
$end

$solvent
dielectric 4.90
$end
--------------------------------------------------------------

             Standard Nuclear Orientation (Angstroms)
    I     Atom           X                Y                Z
 ----------------------------------------------------------------
    1      C      -0.5556700000    -3.8878000000     0.4648380000
    2      C       0.5057900000    -3.7014560000    -0.4257600000
    3      C       0.8310530000    -2.3451700000    -0.6978660000
    4      H       1.0464960000    -4.5452330000    -0.8799840000
    5      C       0.0000000000    -1.4501350000     0.0000000000
    6      S      -1.1703820000    -2.3213340000     0.9815880000
    7      C       1.9390740000    -1.9344390000    -1.6273810000
    8      H       2.4480510000    -2.8197990000    -2.0550150000
    9      H       2.7088530000    -1.3262100000    -1.1079910000
   10      H       1.5615900000    -1.3253740000    -2.4752100000
   11      H      -1.0028860000    -4.8153260000     0.8395490000
   12      C       0.0000000000     0.0000000000     0.0000000000
   13      C       0.3541530000     0.7667740000     1.1130200000
   14      C       0.9377510000     2.0294040000     0.8205780000
   15      H       0.1913500000     0.4144750000     2.1428810000
   16      C       1.0420300000     2.2545810000    -0.5635880000
   17      S       0.4068510000     0.8812280000    -1.4647480000
   18      C       1.3844260000     2.9957790000     1.8823800000
   19      H       1.1964130000     2.5891940000     2.8949740000
   20      H       0.8496410000     3.9657070000     1.8081370000
   21      H       2.4697560000     3.2167530000     1.8082300000
   22      H       1.4439190000     3.1242430000    -1.0971140000
 ----------------------------------------------------------------

   10   -1179.6714023844      5.31e-07  Convergence criterion met
 Total energy in the final basis set =    -1179.6714023844
        RIMP2         total energy =     -1181.6546083110 a.u.

                    Orbital Energies (a.u.)
 --------------------------------------------------------------

 Alpha MOs
 -- Occupied --
-91.9843 -91.9834 -11.2774 -11.2764 -11.2691 -11.2689 -11.2518 -11.2491
-11.2454 -11.2417 -11.2295 -11.2257  -8.9842  -8.9830  -6.6651  -6.6645
 -6.6640  -6.6640  -6.6634  -6.6628  -1.1801  -1.1490  -1.0411  -1.0210
 -0.9979  -0.9532  -0.9123  -0.8933  -0.7976  -0.7593  -0.7256  -0.6951
 -0.6600  -0.6167  -0.5820  -0.5785  -0.5749  -0.5696  -0.5507  -0.5319
 -0.5271  -0.5193  -0.5110  -0.4942  -0.4809  -0.4653  -0.4560  -0.3553
 -0.3411  -0.3344  -0.2805

          Ground-State Mulliken Net Atomic Charges

     Atom                 Charge (a.u.)
  ----------------------------------------
      1 C                    -0.216684
      2 C                    -0.253257
      3 C                     0.050432
      4 H                     0.185094
      5 C                    -0.030145
      6 S                     0.017087
      7 C                    -0.294622
      8 H                     0.108006
      9 H                     0.117173
     10 H                     0.113450
     11 H                     0.203549
     12 C                    -0.032681
     13 C                    -0.212831
     14 C                     0.013565
     15 H                     0.187274
     16 C                    -0.224838
     17 S                     0.021060
     18 C                    -0.269292
     19 H                     0.103128
     20 H                     0.108141
     21 H                     0.107443
     22 H                     0.198950
  ----------------------------------------
  Sum of atomic charges =     0.000000

                    Cartesian Multipole Moments
 -----------------------------------------------------------------
    Charge (ESU x 10^10)
                -0.0000
    Dipole Moment (Debye)
         X       2.0901      Y       0.5572      Z       0.4525
       Tot       2.2099
    Quadrupole Moments (Debye-Ang)
        XX     -87.0573     XY       2.6275     YY     -71.7984
        XZ      -2.8063     YZ       2.4249     ZZ     -83.7449

 Total job time:  53.85s(wall), 1758.83s(cpu)
        *  Thank you very much for using Q-Chem.  Have a nice day.  *
