 Q-Chem 5.4, Q-Chem, Inc., Pleasanton, CA (2021)
 Q-Chem 5.4.0 for Intel X86 EM64T Linux

User input:
--------------------------------------------------------------
$molecule
0 1
C	-0.627947	-3.887800	0.361285
C	0.572038	-3.701456	-0.331462
C	0.939610	-2.345170	-0.542953
H	1.183405	-4.545233	-0.684893
C	0.000000	-1.450135	0.000000
S	-1.323052	-2.321334	0.763441
C	2.192207	-1.934439	-1.265941
H	2.767709	-2.819799	-1.598695
H	2.860100	-1.326210	-0.620770
H	1.967682	-1.325374	-2.166438
H	-1.133436	-4.815326	0.652645
C	0.000000	0.000000	0.000000
C	0.645024	0.545262	1.113020
C	1.707554	1.442954	0.820578
H	0.348587	0.294774	2.142881
C	1.897227	1.602964	-0.563588
S	0.741155	0.626722	-1.464748
C	2.520787	2.130014	1.882380
H	2.178559	1.840981	2.894974
H	2.446016	3.235078	1.808137
H	3.597818	1.871604	1.808230
H	2.628997	2.221299	-1.097114
$end

$rem
JOBTYPE		SP
EXCHANGE	HF
CORRELATION	pRIMP2
BASIS		cc-pvtz
METHOD		rimp2
AUX_BASIS	rimp2-cc-pvtz
SOLVENT_METHOD	PCM
PURECART	11111
SYMMETRY	false
MEM_TOTAL	110000
SCF_CONVERGENCE = 6
THRESH=10
GUI = 2
$end

$solvent
dielectric 4.90
$end
--------------------------------------------------------------

             Standard Nuclear Orientation (Angstroms)
    I     Atom           X                Y                Z
 ----------------------------------------------------------------
    1      C      -0.6279470000    -3.8878000000     0.3612850000
    2      C       0.5720380000    -3.7014560000    -0.3314620000
    3      C       0.9396100000    -2.3451700000    -0.5429530000
    4      H       1.1834050000    -4.5452330000    -0.6848930000
    5      C       0.0000000000    -1.4501350000     0.0000000000
    6      S      -1.3230520000    -2.3213340000     0.7634410000
    7      C       2.1922070000    -1.9344390000    -1.2659410000
    8      H       2.7677090000    -2.8197990000    -1.5986950000
    9      H       2.8601000000    -1.3262100000    -0.6207700000
   10      H       1.9676820000    -1.3253740000    -2.1664380000
   11      H      -1.1334360000    -4.8153260000     0.6526450000
   12      C       0.0000000000     0.0000000000     0.0000000000
   13      C       0.6450240000     0.5452620000     1.1130200000
   14      C       1.7075540000     1.4429540000     0.8205780000
   15      H       0.3485870000     0.2947740000     2.1428810000
   16      C       1.8972270000     1.6029640000    -0.5635880000
   17      S       0.7411550000     0.6267220000    -1.4647480000
   18      C       2.5207870000     2.1300140000     1.8823800000
   19      H       2.1785590000     1.8409810000     2.8949740000
   20      H       2.4460160000     3.2350780000     1.8081370000
   21      H       3.5978180000     1.8716040000     1.8082300000
   22      H       2.6289970000     2.2212990000    -1.0971140000
 ----------------------------------------------------------------

   10   -1179.6278502717      9.13e-07  Convergence criterion met
 Total energy in the final basis set =    -1179.6278502717
        RIMP2         total energy =     -1181.6227738824 a.u.

                    Orbital Energies (a.u.)
 --------------------------------------------------------------

 Alpha MOs
 -- Occupied --
-91.9820 -91.9771 -11.2825 -11.2769 -11.2618 -11.2618 -11.2587 -11.2536
-11.2406 -11.2384 -11.2312 -11.2204  -8.9826  -8.9770  -6.6634  -6.6627
 -6.6624  -6.6580  -6.6574  -6.6568  -1.1862  -1.1461  -1.0443  -1.0176
 -0.9988  -0.9527  -0.9108  -0.8919  -0.7941  -0.7573  -0.7314  -0.6947
 -0.6556  -0.6194  -0.5843  -0.5819  -0.5740  -0.5676  -0.5486  -0.5361
 -0.5248  -0.5215  -0.5116  -0.4917  -0.4673  -0.4611  -0.4492  -0.3545
 -0.3374  -0.3280  -0.2809

          Ground-State Mulliken Net Atomic Charges

     Atom                 Charge (a.u.)
  ----------------------------------------
      1 C                    -0.225488
      2 C                    -0.257755
      3 C                     0.033978
      4 H                     0.183967
      5 C                     0.000966
      6 S                    -0.002367
      7 C                    -0.303294
      8 H                     0.108157
      9 H                     0.113028
     10 H                     0.119469
     11 H                     0.200180
     12 C                    -0.115437
     13 C                    -0.129592
     14 C                    -0.011234
     15 H                     0.189220
     16 C                    -0.190209
     17 S                     0.035211
     18 C                    -0.267199
     19 H                     0.103579
     20 H                     0.108186
     21 H                     0.106018
     22 H                     0.200617
  ----------------------------------------
  Sum of atomic charges =     0.000000

                    Cartesian Multipole Moments
 -----------------------------------------------------------------
    Charge (ESU x 10^10)
                -0.0000
    Dipole Moment (Debye)
         X       3.5969      Y       1.0636      Z       0.7544
       Tot       3.8259
    Quadrupole Moments (Debye-Ang)
        XX     -81.2018     XY       4.2391     YY     -78.6357
        XZ      -2.1062     YZ       1.9648     ZZ     -84.2387

 Total job time:  53.97s(wall), 1811.23s(cpu)
        *  Thank you very much for using Q-Chem.  Have a nice day.  *
