 Q-Chem 5.4, Q-Chem, Inc., Pleasanton, CA (2021)
 Q-Chem 5.4.0 for Intel X86 EM64T Linux

User input:
--------------------------------------------------------------
$molecule
0 1
C	-0.554267	-3.887800	-0.466510
C	0.507121	-3.701456	0.424173
C	0.831575	-2.345170	0.697244
H	1.048337	-4.545233	0.877789
C	-0.000000	-1.450135	-0.000000
S	-1.169911	-2.321334	-0.982150
C	1.939374	-1.934439	1.627024
H	2.448894	-2.819799	2.054010
H	1.561545	-1.326210	2.475299
H	2.708773	-1.325374	1.108051
H	-1.000944	-4.815326	-0.841863
C	0.000000	0.000000	0.000000
C	0.215623	0.816623	1.113020
C	0.571102	2.161411	0.820578
H	0.116470	0.441406	2.142881
C	0.634696	2.401276	-0.563588
S	0.247646	0.938489	-1.464748
C	0.843182	3.190669	1.882380
H	0.728628	2.757614	2.894974
H	0.148095	4.052998	1.808137
H	1.873652	3.596752	1.808230
H	0.879464	3.327513	-1.097114
$end

$rem
JOBTYPE		SP
EXCHANGE	HF
CORRELATION	pRIMP2
BASIS		cc-pvtz
METHOD		rimp2
AUX_BASIS	rimp2-cc-pvtz
SOLVENT_METHOD	PCM
PURECART	11111
SYMMETRY	false
MEM_TOTAL	110000
SCF_CONVERGENCE = 6
THRESH=10
GUI = 2
$end

$solvent
dielectric 4.90
$end
--------------------------------------------------------------

             Standard Nuclear Orientation (Angstroms)
    I     Atom           X                Y                Z
 ----------------------------------------------------------------
    1      C      -0.5542670000    -3.8878000000    -0.4665100000
    2      C       0.5071210000    -3.7014560000     0.4241730000
    3      C       0.8315750000    -2.3451700000     0.6972440000
    4      H       1.0483370000    -4.5452330000     0.8777890000
    5      C       0.0000000000    -1.4501350000     0.0000000000
    6      S      -1.1699110000    -2.3213340000    -0.9821500000
    7      C       1.9393740000    -1.9344390000     1.6270240000
    8      H       2.4488940000    -2.8197990000     2.0540100000
    9      H       1.5615450000    -1.3262100000     2.4752990000
   10      H       2.7087730000    -1.3253740000     1.1080510000
   11      H      -1.0009440000    -4.8153260000    -0.8418630000
   12      C       0.0000000000     0.0000000000     0.0000000000
   13      C       0.2156230000     0.8166230000     1.1130200000
   14      C       0.5711020000     2.1614110000     0.8205780000
   15      H       0.1164700000     0.4414060000     2.1428810000
   16      C       0.6346960000     2.4012760000    -0.5635880000
   17      S       0.2476460000     0.9384890000    -1.4647480000
   18      C       0.8431820000     3.1906690000     1.8823800000
   19      H       0.7286280000     2.7576140000     2.8949740000
   20      H       0.1480950000     4.0529980000     1.8081370000
   21      H       1.8736520000     3.5967520000     1.8082300000
   22      H       0.8794640000     3.3275130000    -1.0971140000
 ----------------------------------------------------------------

   10   -1179.6825223187      5.26e-07  Convergence criterion met
 Total energy in the final basis set =    -1179.6825223187
        RIMP2         total energy =     -1181.6622997386 a.u.

                    Orbital Energies (a.u.)
 --------------------------------------------------------------

 Alpha MOs
 -- Occupied --
-91.9856 -91.9845 -11.2792 -11.2757 -11.2727 -11.2659 -11.2536 -11.2518
-11.2429 -11.2415 -11.2296 -11.2290  -8.9851  -8.9843  -6.6660  -6.6655
 -6.6652  -6.6649  -6.6646  -6.6640  -1.1792  -1.1498  -1.0401  -1.0241
 -0.9961  -0.9550  -0.9132  -0.8933  -0.8002  -0.7533  -0.7303  -0.6976
 -0.6614  -0.6159  -0.5860  -0.5803  -0.5706  -0.5645  -0.5512  -0.5351
 -0.5288  -0.5215  -0.5069  -0.4923  -0.4858  -0.4686  -0.4588  -0.3497
 -0.3415  -0.3401  -0.2835

          Ground-State Mulliken Net Atomic Charges

     Atom                 Charge (a.u.)
  ----------------------------------------
      1 C                    -0.211566
      2 C                    -0.250863
      3 C                     0.056896
      4 H                     0.185242
      5 C                    -0.035036
      6 S                     0.020371
      7 C                    -0.285610
      8 H                     0.112368
      9 H                     0.106697
     10 H                     0.115434
     11 H                     0.204760
     12 C                    -0.014513
     13 C                    -0.258865
     14 C                     0.033703
     15 H                     0.191895
     16 C                    -0.243472
     17 S                     0.024861
     18 C                    -0.270610
     19 H                     0.102323
     20 H                     0.108804
     21 H                     0.108311
     22 H                     0.198868
  ----------------------------------------
  Sum of atomic charges =     0.000000

                    Cartesian Multipole Moments
 -----------------------------------------------------------------
    Charge (ESU x 10^10)
                -0.0000
    Dipole Moment (Debye)
         X       1.6794      Y       0.2450      Z       2.4883
       Tot       3.0120
    Quadrupole Moments (Debye-Ang)
        XX     -88.1844     XY       1.0401     YY     -69.3763
        XZ       3.5327     YZ      -0.3534     ZZ     -84.0297

 Total job time:  114.20s(wall), 4140.30s(cpu)
        *  Thank you very much for using Q-Chem.  Have a nice day.  *
