 Q-Chem 5.4, Q-Chem, Inc., Pleasanton, CA (2021)
 Q-Chem 5.4.0 for Intel X86 EM64T Linux

User input:
--------------------------------------------------------------
$molecule
0 1
C	0.337756	-3.873100	0.724460
C	0.321571	-3.687462	-0.661131
C	0.203990	-2.336281	-1.085203
H	0.394716	-4.528062	-1.367305
C	0.126388	-1.444617	0.000000
S	0.201952	-2.312532	1.527517
C	0.168365	-1.927099	-2.531478
H	0.245108	-2.809126	-3.196254
H	1.004638	-1.243381	-2.787305
H	-0.773440	-1.398104	-2.787282
H	0.418178	-4.797134	1.307907
C	0.000000	0.000000	0.000000
C	-0.003081	0.844605	1.113020
C	-0.007772	2.235575	0.820578
H	-0.001743	0.456510	2.142881
C	-0.008427	2.483726	-0.563588
S	-0.003691	0.970607	-1.464748
C	-0.011355	3.300181	1.882380
H	-0.009922	2.852233	2.894974
H	-0.905944	3.953225	1.808137
H	0.878901	3.959133	1.808230
H	-0.011727	3.441752	-1.097114
$end

$rem
JOBTYPE		SP
EXCHANGE	HF
CORRELATION	pRIMP2
BASIS		cc-pvtz
METHOD		rimp2
AUX_BASIS	rimp2-cc-pvtz
SOLVENT_METHOD	PCM
PURECART	11111
SYMMETRY	false
MEM_TOTAL	110000
SCF_CONVERGENCE = 6
THRESH=10
GUI = 2
$end

$solvent
dielectric 4.90
$end
--------------------------------------------------------------

             Standard Nuclear Orientation (Angstroms)
    I     Atom           X                Y                Z
 ----------------------------------------------------------------
    1      C       0.3377560000    -3.8731000000     0.7244600000
    2      C       0.3215710000    -3.6874620000    -0.6611310000
    3      C       0.2039900000    -2.3362810000    -1.0852030000
    4      H       0.3947160000    -4.5280620000    -1.3673050000
    5      C       0.1263880000    -1.4446170000     0.0000000000
    6      S       0.2019520000    -2.3125320000     1.5275170000
    7      C       0.1683650000    -1.9270990000    -2.5314780000
    8      H       0.2451080000    -2.8091260000    -3.1962540000
    9      H       1.0046380000    -1.2433810000    -2.7873050000
   10      H      -0.7734400000    -1.3981040000    -2.7872820000
   11      H       0.4181780000    -4.7971340000     1.3079070000
   12      C       0.0000000000     0.0000000000     0.0000000000
   13      C      -0.0030810000     0.8446050000     1.1130200000
   14      C      -0.0077720000     2.2355750000     0.8205780000
   15      H      -0.0017430000     0.4565100000     2.1428810000
   16      C      -0.0084270000     2.4837260000    -0.5635880000
   17      S      -0.0036910000     0.9706070000    -1.4647480000
   18      C      -0.0113550000     3.3001810000     1.8823800000
   19      H      -0.0099220000     2.8522330000     2.8949740000
   20      H      -0.9059440000     3.9532250000     1.8081370000
   21      H       0.8789010000     3.9591330000     1.8082300000
   22      H      -0.0117270000     3.4417520000    -1.0971140000
 ----------------------------------------------------------------

   10   -1179.6862203391      5.42e-07  Convergence criterion met
 Total energy in the final basis set =    -1179.6862203391
        RIMP2         total energy =     -1181.6664597403 a.u.

                    Orbital Energies (a.u.)
 --------------------------------------------------------------

 Alpha MOs
 -- Occupied --
-91.9859 -91.9855 -11.2848 -11.2792 -11.2738 -11.2616 -11.2542 -11.2522
-11.2441 -11.2386 -11.2304 -11.2289  -8.9857  -8.9852  -6.6667  -6.6661
 -6.6661  -6.6656  -6.6655  -6.6649  -1.1810  -1.1502  -1.0415  -1.0259
 -0.9986  -0.9525  -0.9150  -0.8957  -0.7997  -0.7653  -0.7190  -0.6960
 -0.6635  -0.6160  -0.5840  -0.5826  -0.5772  -0.5696  -0.5530  -0.5336
 -0.5230  -0.5207  -0.5110  -0.4976  -0.4913  -0.4680  -0.4508  -0.3708
 -0.3440  -0.3402  -0.2689

          Ground-State Mulliken Net Atomic Charges

     Atom                 Charge (a.u.)
  ----------------------------------------
      1 C                    -0.210458
      2 C                    -0.257531
      3 C                     0.056639
      4 H                     0.185990
      5 C                    -0.024825
      6 S                     0.007513
      7 C                    -0.324211
      8 H                     0.119308
      9 H                     0.115967
     10 H                     0.116173
     11 H                     0.207726
     12 C                     0.062303
     13 C                    -0.275343
     14 C                     0.036218
     15 H                     0.175507
     16 C                    -0.261774
     17 S                     0.022203
     18 C                    -0.270948
     19 H                     0.102855
     20 H                     0.108414
     21 H                     0.108720
     22 H                     0.199553
  ----------------------------------------
  Sum of atomic charges =     0.000000

                    Cartesian Multipole Moments
 -----------------------------------------------------------------
    Charge (ESU x 10^10)
                -0.0000
    Dipole Moment (Debye)
         X       0.1528      Y      -0.0053      Z      -0.1832
       Tot       0.2386
    Quadrupole Moments (Debye-Ang)
        XX     -92.6987     XY      -1.2129     YY     -68.5762
        XZ      -0.2211     YZ       3.5616     ZZ     -79.7354

 Total job time:  55.32s(wall), 1950.10s(cpu)
        *  Thank you very much for using Q-Chem.  Have a nice day.  *
