 Q-Chem 5.4, Q-Chem, Inc., Pleasanton, CA (2021)
 Q-Chem 5.4.0 for Intel X86 EM64T Linux

User input:
--------------------------------------------------------------
$molecule
0 1
C	0.248806	-3.887800	-0.680396
C	-0.225147	-3.701456	0.621614
C	-0.370780	-2.345170	1.019896
H	-0.466300	-4.545233	1.285337
C	0.000000	-1.450135	0.000000
S	0.522786	-2.321334	-1.435271
C	-0.865597	-1.934439	2.378891
H	-1.092567	-2.819799	3.003720
H	-1.791940	-1.326210	2.313975
H	-0.114772	-1.325374	2.924390
H	0.448750	-4.815326	-1.228514
C	0.000000	0.000000	0.000000
C	0.143630	0.832309	1.113020
C	0.380550	2.202961	0.820578
H	0.077556	0.449877	2.142881
C	0.422995	2.447456	-0.563588
S	0.164909	0.956502	-1.464748
C	0.561888	3.252016	1.882380
H	0.485513	2.810624	2.894974
H	-0.205711	4.050482	1.808137
H	1.553045	3.746365	1.808230
H	0.586105	3.391501	-1.097114
$end

$rem
JOBTYPE		SP
EXCHANGE	HF
CORRELATION	pRIMP2
BASIS		cc-pvtz
METHOD		rimp2
AUX_BASIS	rimp2-cc-pvtz
SOLVENT_METHOD	PCM
PURECART	11111
SYMMETRY	false
MEM_TOTAL	110000
SCF_CONVERGENCE = 6
THRESH=10
GUI = 2
$end

$solvent
dielectric 4.90
$end
--------------------------------------------------------------

             Standard Nuclear Orientation (Angstroms)
    I     Atom           X                Y                Z
 ----------------------------------------------------------------
    1      C       0.2488060000    -3.8878000000    -0.6803960000
    2      C      -0.2251470000    -3.7014560000     0.6216140000
    3      C      -0.3707800000    -2.3451700000     1.0198960000
    4      H      -0.4663000000    -4.5452330000     1.2853370000
    5      C       0.0000000000    -1.4501350000     0.0000000000
    6      S       0.5227860000    -2.3213340000    -1.4352710000
    7      C      -0.8655970000    -1.9344390000     2.3788910000
    8      H      -1.0925670000    -2.8197990000     3.0037200000
    9      H      -1.7919400000    -1.3262100000     2.3139750000
   10      H      -0.1147720000    -1.3253740000     2.9243900000
   11      H       0.4487500000    -4.8153260000    -1.2285140000
   12      C       0.0000000000     0.0000000000     0.0000000000
   13      C       0.1436300000     0.8323090000     1.1130200000
   14      C       0.3805500000     2.2029610000     0.8205780000
   15      H       0.0775560000     0.4498770000     2.1428810000
   16      C       0.4229950000     2.4474560000    -0.5635880000
   17      S       0.1649090000     0.9565020000    -1.4647480000
   18      C       0.5618880000     3.2520160000     1.8823800000
   19      H       0.4855130000     2.8106240000     2.8949740000
   20      H      -0.2057110000     4.0504820000     1.8081370000
   21      H       1.5530450000     3.7463650000     1.8082300000
   22      H       0.5861050000     3.3915010000    -1.0971140000
 ----------------------------------------------------------------

   10   -1179.6835923529      5.05e-07  Convergence criterion met
 Total energy in the final basis set =    -1179.6835923529
        RIMP2         total energy =     -1181.6637415763 a.u.

                    Orbital Energies (a.u.)
 --------------------------------------------------------------

 Alpha MOs
 -- Occupied --
-91.9864 -91.9861 -11.2837 -11.2792 -11.2722 -11.2649 -11.2528 -11.2525
-11.2441 -11.2400 -11.2312 -11.2296  -8.9861  -8.9859  -6.6670  -6.6668
 -6.6665  -6.6663  -6.6659  -6.6656  -1.1810  -1.1505  -1.0412  -1.0270
 -0.9959  -0.9561  -0.9143  -0.8949  -0.8024  -0.7558  -0.7278  -0.7005
 -0.6618  -0.6150  -0.5910  -0.5821  -0.5703  -0.5628  -0.5514  -0.5396
 -0.5303  -0.5224  -0.5041  -0.4913  -0.4889  -0.4762  -0.4530  -0.3676
 -0.3463  -0.3383  -0.2711

          Ground-State Mulliken Net Atomic Charges

     Atom                 Charge (a.u.)
  ----------------------------------------
      1 C                    -0.215016
      2 C                    -0.252413
      3 C                     0.064686
      4 H                     0.185159
      5 C                    -0.047989
      6 S                     0.010641
      7 C                    -0.311986
      8 H                     0.116903
      9 H                     0.118000
     10 H                     0.104589
     11 H                     0.206375
     12 C                     0.024692
     13 C                    -0.225362
     14 C                     0.016063
     15 H                     0.194777
     16 C                    -0.242413
     17 S                     0.005733
     18 C                    -0.271813
     19 H                     0.101424
     20 H                     0.108647
     21 H                     0.109043
     22 H                     0.200258
  ----------------------------------------
  Sum of atomic charges =     0.000000

                    Cartesian Multipole Moments
 -----------------------------------------------------------------
    Charge (ESU x 10^10)
                -0.0000
    Dipole Moment (Debye)
         X      -0.1904      Y       0.2099      Z       2.8741
       Tot       2.8881
    Quadrupole Moments (Debye-Ang)
        XX     -91.6762     XY       2.6305     YY     -68.7795
        XZ      -1.9572     YZ      -1.0270     ZZ     -80.8318

 Total job time:  53.75s(wall), 1827.54s(cpu)
        *  Thank you very much for using Q-Chem.  Have a nice day.  *
