 Q-Chem 5.4, Q-Chem, Inc., Pleasanton, CA (2021)
 Q-Chem 5.4.0 for Intel X86 EM64T Linux

User input:
--------------------------------------------------------------
$molecule
0 1
C	-0.126876	-3.887800	0.713264
C	0.113784	-3.701456	-0.651267
C	0.188043	-2.345170	-1.068787
H	0.236019	-4.545233	-1.346782
C	-0.000000	-1.450135	-0.000000
S	-0.265612	-2.321334	1.504247
C	0.439357	-1.934439	-2.493059
H	0.554378	-2.819799	-3.147809
H	1.362899	-1.326210	-2.589987
H	-0.394786	-1.325374	-2.899892
H	-0.228603	-4.815326	1.287774
C	0.000000	0.000000	0.000000
C	0.215623	0.816623	1.113020
C	0.571102	2.161411	0.820578
H	0.116470	0.441406	2.142881
C	0.634696	2.401276	-0.563588
S	0.247646	0.938489	-1.464748
C	0.843182	3.190669	1.882380
H	0.728628	2.757614	2.894974
H	0.148095	4.052998	1.808137
H	1.873652	3.596752	1.808230
H	0.879464	3.327513	-1.097114
$end

$rem
JOBTYPE		SP
EXCHANGE	HF
CORRELATION	pRIMP2
BASIS		cc-pvtz
METHOD		rimp2
AUX_BASIS	rimp2-cc-pvtz
SOLVENT_METHOD	PCM
PURECART	11111
SYMMETRY	false
MEM_TOTAL	110000
SCF_CONVERGENCE = 6
THRESH=10
GUI = 2
$end

$solvent
dielectric 4.90
$end
--------------------------------------------------------------

             Standard Nuclear Orientation (Angstroms)
    I     Atom           X                Y                Z
 ----------------------------------------------------------------
    1      C      -0.1268760000    -3.8878000000     0.7132640000
    2      C       0.1137840000    -3.7014560000    -0.6512670000
    3      C       0.1880430000    -2.3451700000    -1.0687870000
    4      H       0.2360190000    -4.5452330000    -1.3467820000
    5      C       0.0000000000    -1.4501350000     0.0000000000
    6      S      -0.2656120000    -2.3213340000     1.5042470000
    7      C       0.4393570000    -1.9344390000    -2.4930590000
    8      H       0.5543780000    -2.8197990000    -3.1478090000
    9      H       1.3628990000    -1.3262100000    -2.5899870000
   10      H      -0.3947860000    -1.3253740000    -2.8998920000
   11      H      -0.2286030000    -4.8153260000     1.2877740000
   12      C       0.0000000000     0.0000000000     0.0000000000
   13      C       0.2156230000     0.8166230000     1.1130200000
   14      C       0.5711020000     2.1614110000     0.8205780000
   15      H       0.1164700000     0.4414060000     2.1428810000
   16      C       0.6346960000     2.4012760000    -0.5635880000
   17      S       0.2476460000     0.9384890000    -1.4647480000
   18      C       0.8431820000     3.1906690000     1.8823800000
   19      H       0.7286280000     2.7576140000     2.8949740000
   20      H       0.1480950000     4.0529980000     1.8081370000
   21      H       1.8736520000     3.5967520000     1.8082300000
   22      H       0.8794640000     3.3275130000    -1.0971140000
 ----------------------------------------------------------------

   10   -1179.6811361117      5.12e-07  Convergence criterion met
 Total energy in the final basis set =    -1179.6811361117
        RIMP2         total energy =     -1181.6627901729 a.u.

                    Orbital Energies (a.u.)
 --------------------------------------------------------------

 Alpha MOs
 -- Occupied --
-91.9851 -91.9850 -11.2834 -11.2792 -11.2725 -11.2631 -11.2526 -11.2522
-11.2436 -11.2400 -11.2294 -11.2290  -8.9849  -8.9849  -6.6659  -6.6657
 -6.6653  -6.6652  -6.6647  -6.6645  -1.1812  -1.1499  -1.0417  -1.0252
 -0.9984  -0.9525  -0.9143  -0.8956  -0.7990  -0.7649  -0.7196  -0.6959
 -0.6626  -0.6160  -0.5839  -0.5819  -0.5774  -0.5696  -0.5525  -0.5333
 -0.5235  -0.5205  -0.5113  -0.4973  -0.4889  -0.4673  -0.4505  -0.3702
 -0.3434  -0.3396  -0.2687

          Ground-State Mulliken Net Atomic Charges

     Atom                 Charge (a.u.)
  ----------------------------------------
      1 C                    -0.212588
      2 C                    -0.252846
      3 C                     0.052434
      4 H                     0.185864
      5 C                    -0.032387
      6 S                     0.008056
      7 C                    -0.320033
      8 H                     0.116767
      9 H                     0.119030
     10 H                     0.112473
     11 H                     0.206675
     12 C                     0.050295
     13 C                    -0.258379
     14 C                     0.031606
     15 H                     0.176298
     16 C                    -0.254226
     17 S                     0.021484
     18 C                    -0.269827
     19 H                     0.102832
     20 H                     0.108473
     21 H                     0.108457
     22 H                     0.199542
  ----------------------------------------
  Sum of atomic charges =     0.000000

                    Cartesian Multipole Moments
 -----------------------------------------------------------------
    Charge (ESU x 10^10)
                -0.0000
    Dipole Moment (Debye)
         X       0.7728      Y       0.1154      Z      -0.1568
       Tot       0.7970
    Quadrupole Moments (Debye-Ang)
        XX     -91.8388     XY       2.2507     YY     -69.5850
        XZ      -0.9334     YZ       3.4433     ZZ     -79.9796

 Total job time:  49.89s(wall), 1722.28s(cpu)
        *  Thank you very much for using Q-Chem.  Have a nice day.  *
