 Q-Chem 5.4, Q-Chem, Inc., Pleasanton, CA (2021)
 Q-Chem 5.4.0 for Intel X86 EM64T Linux

User input:
--------------------------------------------------------------
$molecule
0 1
C	-0.713264	-3.887800	-0.126876
C	0.651267	-3.701456	0.113784
C	1.068787	-2.345170	0.188043
H	1.346782	-4.545233	0.236019
C	0.000000	-1.450135	0.000000
S	-1.504247	-2.321334	-0.265612
C	2.493059	-1.934439	0.439357
H	3.147809	-2.819799	0.554378
H	2.589987	-1.326210	1.362899
H	2.899892	-1.325374	-0.394786
H	-1.287774	-4.815326	-0.228603
C	0.000000	0.000000	0.000000
C	0.354153	0.766774	1.113020
C	0.937751	2.029404	0.820578
H	0.191350	0.414475	2.142881
C	1.042030	2.254581	-0.563588
S	0.406851	0.881228	-1.464748
C	1.384426	2.995779	1.882380
H	1.196413	2.589194	2.894974
H	0.849641	3.965707	1.808137
H	2.469756	3.216753	1.808230
H	1.443919	3.124243	-1.097114
$end

$rem
JOBTYPE		SP
EXCHANGE	HF
CORRELATION	pRIMP2
BASIS		cc-pvtz
METHOD		rimp2
AUX_BASIS	rimp2-cc-pvtz
SOLVENT_METHOD	PCM
PURECART	11111
SYMMETRY	false
MEM_TOTAL	110000
SCF_CONVERGENCE = 6
THRESH=10
GUI = 2
$end

$solvent
dielectric 4.90
$end
--------------------------------------------------------------

             Standard Nuclear Orientation (Angstroms)
    I     Atom           X                Y                Z
 ----------------------------------------------------------------
    1      C      -0.7132640000    -3.8878000000    -0.1268760000
    2      C       0.6512670000    -3.7014560000     0.1137840000
    3      C       1.0687870000    -2.3451700000     0.1880430000
    4      H       1.3467820000    -4.5452330000     0.2360190000
    5      C       0.0000000000    -1.4501350000     0.0000000000
    6      S      -1.5042470000    -2.3213340000    -0.2656120000
    7      C       2.4930590000    -1.9344390000     0.4393570000
    8      H       3.1478090000    -2.8197990000     0.5543780000
    9      H       2.5899870000    -1.3262100000     1.3628990000
   10      H       2.8998920000    -1.3253740000    -0.3947860000
   11      H      -1.2877740000    -4.8153260000    -0.2286030000
   12      C       0.0000000000     0.0000000000     0.0000000000
   13      C       0.3541530000     0.7667740000     1.1130200000
   14      C       0.9377510000     2.0294040000     0.8205780000
   15      H       0.1913500000     0.4144750000     2.1428810000
   16      C       1.0420300000     2.2545810000    -0.5635880000
   17      S       0.4068510000     0.8812280000    -1.4647480000
   18      C       1.3844260000     2.9957790000     1.8823800000
   19      H       1.1964130000     2.5891940000     2.8949740000
   20      H       0.8496410000     3.9657070000     1.8081370000
   21      H       2.4697560000     3.2167530000     1.8082300000
   22      H       1.4439190000     3.1242430000    -1.0971140000
 ----------------------------------------------------------------

   10   -1179.6748298537      5.69e-07  Convergence criterion met
 Total energy in the final basis set =    -1179.6748298537
        RIMP2         total energy =     -1181.6564062881 a.u.

                    Orbital Energies (a.u.)
 --------------------------------------------------------------

 Alpha MOs
 -- Occupied --
-91.9851 -91.9825 -11.2741 -11.2730 -11.2709 -11.2694 -11.2522 -11.2515
-11.2453 -11.2414 -11.2297 -11.2282  -8.9846  -8.9822  -6.6655  -6.6649
 -6.6644  -6.6631  -6.6625  -6.6619  -1.1788  -1.1490  -1.0399  -1.0214
 -0.9968  -0.9540  -0.9128  -0.8921  -0.7982  -0.7520  -0.7323  -0.6955
 -0.6605  -0.6169  -0.5821  -0.5800  -0.5716  -0.5681  -0.5508  -0.5312
 -0.5283  -0.5205  -0.5098  -0.4914  -0.4820  -0.4637  -0.4610  -0.3440
 -0.3404  -0.3199  -0.3037

          Ground-State Mulliken Net Atomic Charges

     Atom                 Charge (a.u.)
  ----------------------------------------
      1 C                    -0.213235
      2 C                    -0.252092
      3 C                     0.072933
      4 H                     0.184736
      5 C                    -0.039139
      6 S                     0.023690
      7 C                    -0.283514
      8 H                     0.110161
      9 H                     0.109509
     10 H                     0.113054
     11 H                     0.203153
     12 C                    -0.048515
     13 C                    -0.247102
     14 C                     0.037336
     15 H                     0.187864
     16 C                    -0.235535
     17 S                     0.028197
     18 C                    -0.269522
     19 H                     0.102998
     20 H                     0.108429
     21 H                     0.107427
     22 H                     0.199167
  ----------------------------------------
  Sum of atomic charges =     0.000000

                    Cartesian Multipole Moments
 -----------------------------------------------------------------
    Charge (ESU x 10^10)
                -0.0000
    Dipole Moment (Debye)
         X       2.4212      Y       0.4254      Z       1.7935
       Tot       3.0430
    Quadrupole Moments (Debye-Ang)
        XX     -84.5441     XY       1.9649     YY     -71.0741
        XZ       1.5639     YZ       0.5995     ZZ     -86.4367

 Total job time:  55.45s(wall), 1838.95s(cpu)
        *  Thank you very much for using Q-Chem.  Have a nice day.  *
