 Q-Chem 5.4, Q-Chem, Inc., Pleasanton, CA (2021)
 Q-Chem 5.4.0 for Intel X86 EM64T Linux

User input:
--------------------------------------------------------------
$molecule
0 1
C	-0.713644	-3.887800	0.124726
C	0.650907	-3.701456	-0.115824
C	1.068646	-2.345170	-0.188844
H	1.346284	-4.545233	-0.238841
C	-0.000000	-1.450135	-0.000000
S	-1.504375	-2.321334	0.264890
C	2.492978	-1.934439	-0.439816
H	3.147582	-2.819799	-0.555669
H	2.899931	-1.326210	0.394879
H	2.589982	-1.325374	-1.362799
H	-1.288299	-4.815326	0.225628
C	0.000000	0.000000	0.000000
C	0.070542	0.841660	1.113020
C	0.187101	2.227746	0.820578
H	0.038051	0.454925	2.142881
C	0.208076	2.475009	-0.563588
S	0.080917	0.967235	-1.464748
C	0.276318	3.288613	1.882380
H	0.238704	2.842244	2.894974
H	-0.557951	4.017140	1.808137
H	1.220618	3.867466	1.808230
H	0.288286	3.429678	-1.097114
$end

$rem
JOBTYPE		SP
EXCHANGE	HF
CORRELATION	pRIMP2
BASIS		cc-pvtz
METHOD		rimp2
AUX_BASIS	rimp2-cc-pvtz
SOLVENT_METHOD	PCM
PURECART	11111
SYMMETRY	false
MEM_TOTAL	110000
SCF_CONVERGENCE = 6
THRESH=10
GUI = 2
$end

$solvent
dielectric 4.90
$end
--------------------------------------------------------------

             Standard Nuclear Orientation (Angstroms)
    I     Atom           X                Y                Z
 ----------------------------------------------------------------
    1      C      -0.7136440000    -3.8878000000     0.1247260000
    2      C       0.6509070000    -3.7014560000    -0.1158240000
    3      C       1.0686460000    -2.3451700000    -0.1888440000
    4      H       1.3462840000    -4.5452330000    -0.2388410000
    5      C       0.0000000000    -1.4501350000     0.0000000000
    6      S      -1.5043750000    -2.3213340000     0.2648900000
    7      C       2.4929780000    -1.9344390000    -0.4398160000
    8      H       3.1475820000    -2.8197990000    -0.5556690000
    9      H       2.8999310000    -1.3262100000     0.3948790000
   10      H       2.5899820000    -1.3253740000    -1.3627990000
   11      H      -1.2882990000    -4.8153260000     0.2256280000
   12      C       0.0000000000     0.0000000000     0.0000000000
   13      C       0.0705420000     0.8416600000     1.1130200000
   14      C       0.1871010000     2.2277460000     0.8205780000
   15      H       0.0380510000     0.4549250000     2.1428810000
   16      C       0.2080760000     2.4750090000    -0.5635880000
   17      S       0.0809170000     0.9672350000    -1.4647480000
   18      C       0.2763180000     3.2886130000     1.8823800000
   19      H       0.2387040000     2.8422440000     2.8949740000
   20      H      -0.5579510000     4.0171400000     1.8081370000
   21      H       1.2206180000     3.8674660000     1.8082300000
   22      H       0.2882860000     3.4296780000    -1.0971140000
 ----------------------------------------------------------------

   10   -1179.6855489422      5.08e-07  Convergence criterion met
 Total energy in the final basis set =    -1179.6855489422
        RIMP2         total energy =     -1181.6633496430 a.u.

                    Orbital Energies (a.u.)
 --------------------------------------------------------------

 Alpha MOs
 -- Occupied --
-91.9856 -91.9852 -11.2791 -11.2736 -11.2726 -11.2652 -11.2537 -11.2510
-11.2422 -11.2420 -11.2291 -11.2289  -8.9850  -8.9848  -6.6659  -6.6656
 -6.6654  -6.6651  -6.6648  -6.6645  -1.1778  -1.1496  -1.0392  -1.0225
 -0.9971  -0.9538  -0.9134  -0.8924  -0.7996  -0.7548  -0.7288  -0.6947
 -0.6621  -0.6166  -0.5821  -0.5789  -0.5715  -0.5693  -0.5515  -0.5310
 -0.5285  -0.5195  -0.5078  -0.4926  -0.4884  -0.4646  -0.4621  -0.3449
 -0.3401  -0.3209  -0.3041

          Ground-State Mulliken Net Atomic Charges

     Atom                 Charge (a.u.)
  ----------------------------------------
      1 C                    -0.214813
      2 C                    -0.248133
      3 C                     0.044871
      4 H                     0.185288
      5 C                    -0.040138
      6 S                     0.027311
      7 C                    -0.281685
      8 H                     0.107947
      9 H                     0.110531
     10 H                     0.110139
     11 H                     0.204016
     12 C                    -0.018112
     13 C                    -0.226301
     14 C                     0.017504
     15 H                     0.185972
     16 C                    -0.237430
     17 S                     0.026846
     18 C                    -0.271169
     19 H                     0.102913
     20 H                     0.108350
     21 H                     0.107848
     22 H                     0.198246
  ----------------------------------------
  Sum of atomic charges =     0.000000

                    Cartesian Multipole Moments
 -----------------------------------------------------------------
    Charge (ESU x 10^10)
                -0.0000
    Dipole Moment (Debye)
         X       1.6543      Y       0.2609      Z       1.2005
       Tot       2.0605
    Quadrupole Moments (Debye-Ang)
        XX     -86.2777     XY      -1.3084     YY     -68.8722
        XZ      -1.0605     YZ       1.5420     ZZ     -86.5329

 Total job time:  53.26s(wall), 1848.15s(cpu)
        *  Thank you very much for using Q-Chem.  Have a nice day.  *
