 Q-Chem 5.4, Q-Chem, Inc., Pleasanton, CA (2021)
 Q-Chem 5.4.0 for Intel X86 EM64T Linux

User input:
--------------------------------------------------------------
$molecule
0 1
C	0.001092	-3.887800	-0.724460
C	0.001036	-3.701456	0.661131
C	0.000406	-2.345170	1.085203
H	0.001433	-4.545233	1.367305
C	-0.000000	-1.450135	-0.000000
S	0.000367	-2.321334	-1.527517
C	0.000233	-1.934439	2.531478
H	0.000656	-2.819799	3.196254
H	-0.892447	-1.326210	2.787305
H	0.892350	-1.325374	2.787282
H	0.001511	-4.815326	-1.307907
C	0.000000	0.000000	0.000000
C	0.540541	0.648986	1.113020
C	1.431046	1.717546	0.820578
H	0.292104	0.350827	2.142881
C	1.590053	1.908061	-0.563588
S	0.621066	0.745901	-1.464748
C	2.112618	2.535384	1.882380
H	1.825779	2.191315	2.894974
H	1.847090	3.610676	1.808137
H	3.218159	2.467925	1.808230
H	2.203332	2.644073	-1.097114
$end

$rem
JOBTYPE		SP
EXCHANGE	HF
CORRELATION	pRIMP2
BASIS		cc-pvtz
METHOD		rimp2
AUX_BASIS	rimp2-cc-pvtz
SOLVENT_METHOD	PCM
PURECART	11111
SYMMETRY	false
MEM_TOTAL	110000
SCF_CONVERGENCE = 6
THRESH=10
GUI = 2
$end

$solvent
dielectric 4.90
$end
--------------------------------------------------------------

             Standard Nuclear Orientation (Angstroms)
    I     Atom           X                Y                Z
 ----------------------------------------------------------------
    1      C       0.0010920000    -3.8878000000    -0.7244600000
    2      C       0.0010360000    -3.7014560000     0.6611310000
    3      C       0.0004060000    -2.3451700000     1.0852030000
    4      H       0.0014330000    -4.5452330000     1.3673050000
    5      C       0.0000000000    -1.4501350000     0.0000000000
    6      S       0.0003670000    -2.3213340000    -1.5275170000
    7      C       0.0002330000    -1.9344390000     2.5314780000
    8      H       0.0006560000    -2.8197990000     3.1962540000
    9      H      -0.8924470000    -1.3262100000     2.7873050000
   10      H       0.8923500000    -1.3253740000     2.7872820000
   11      H       0.0015110000    -4.8153260000    -1.3079070000
   12      C       0.0000000000     0.0000000000     0.0000000000
   13      C       0.5405410000     0.6489860000     1.1130200000
   14      C       1.4310460000     1.7175460000     0.8205780000
   15      H       0.2921040000     0.3508270000     2.1428810000
   16      C       1.5900530000     1.9080610000    -0.5635880000
   17      S       0.6210660000     0.7459010000    -1.4647480000
   18      C       2.1126180000     2.5353840000     1.8823800000
   19      H       1.8257790000     2.1913150000     2.8949740000
   20      H       1.8470900000     3.6106760000     1.8081370000
   21      H       3.2181590000     2.4679250000     1.8082300000
   22      H       2.2033320000     2.6440730000    -1.0971140000
 ----------------------------------------------------------------

   10   -1179.6501468599      7.78e-07  Convergence criterion met
 Total energy in the final basis set =    -1179.6501468599
        RIMP2         total energy =     -1181.6389669479 a.u.

                    Orbital Energies (a.u.)
 --------------------------------------------------------------

 Alpha MOs
 -- Occupied --
-91.9848 -91.9802 -11.2796 -11.2770 -11.2735 -11.2645 -11.2540 -11.2498
-11.2438 -11.2408 -11.2310 -11.2294  -8.9851  -8.9803  -6.6660  -6.6654
 -6.6648  -6.6613  -6.6607  -6.6601  -1.1850  -1.1484  -1.0438  -1.0260
 -0.9956  -0.9551  -0.9134  -0.8950  -0.7999  -0.7556  -0.7289  -0.7023
 -0.6573  -0.6154  -0.5953  -0.5830  -0.5708  -0.5607  -0.5503  -0.5417
 -0.5308  -0.5217  -0.5035  -0.4899  -0.4813  -0.4727  -0.4477  -0.3701
 -0.3487  -0.3337  -0.2652

          Ground-State Mulliken Net Atomic Charges

     Atom                 Charge (a.u.)
  ----------------------------------------
      1 C                    -0.232983
      2 C                    -0.245921
      3 C                     0.044916
      4 H                     0.183969
      5 C                    -0.029252
      6 S                     0.003372
      7 C                    -0.306754
      8 H                     0.116112
      9 H                     0.107810
     10 H                     0.102960
     11 H                     0.203778
     12 C                    -0.015906
     13 C                    -0.207222
     14 C                     0.017788
     15 H                     0.198556
     16 C                    -0.215669
     17 S                     0.021048
     18 C                    -0.268678
     19 H                     0.101898
     20 H                     0.109579
     21 H                     0.108358
     22 H                     0.202241
  ----------------------------------------
  Sum of atomic charges =     0.000000

                    Cartesian Multipole Moments
 -----------------------------------------------------------------
    Charge (ESU x 10^10)
                -0.0000
    Dipole Moment (Debye)
         X       1.6580      Y       0.9015      Z       3.0686
       Tot       3.6025
    Quadrupole Moments (Debye-Ang)
        XX     -87.7114     XY       5.9010     YY     -75.0548
        XZ       0.6444     YZ      -1.6189     ZZ     -80.0820

 Total job time:  52.29s(wall), 1841.74s(cpu)
        *  Thank you very much for using Q-Chem.  Have a nice day.  *
