 Q-Chem 5.4, Q-Chem, Inc., Pleasanton, CA (2021)
 Q-Chem 5.4.0 for Intel X86 EM64T Linux

User input:
--------------------------------------------------------------
$molecule
0 1
C	0.626855	-3.887800	0.363176
C	-0.573074	-3.701456	-0.329669
C	-0.940016	-2.345170	-0.542250
H	-1.184837	-4.545233	-0.682412
C	0.000000	-1.450135	0.000000
S	1.322686	-2.321334	0.764076
C	-2.192440	-1.934439	-1.265537
H	-2.768365	-2.819799	-1.597559
H	-1.967653	-1.326210	-2.166534
H	-2.860032	-1.325374	-0.620843
H	1.131925	-4.815326	0.655262
C	0.000000	0.000000	0.000000
C	0.143630	0.832309	1.113020
C	0.380550	2.202961	0.820578
H	0.077556	0.449877	2.142881
C	0.422995	2.447456	-0.563588
S	0.164909	0.956502	-1.464748
C	0.561888	3.252016	1.882380
H	0.485513	2.810624	2.894974
H	-0.205711	4.050482	1.808137
H	1.553045	3.746365	1.808230
H	0.586105	3.391501	-1.097114
$end

$rem
JOBTYPE		SP
EXCHANGE	HF
CORRELATION	pRIMP2
BASIS		cc-pvtz
METHOD		rimp2
AUX_BASIS	rimp2-cc-pvtz
SOLVENT_METHOD	PCM
PURECART	11111
SYMMETRY	false
MEM_TOTAL	110000
SCF_CONVERGENCE = 6
THRESH=10
GUI = 2
$end

$solvent
dielectric 4.90
$end
--------------------------------------------------------------

             Standard Nuclear Orientation (Angstroms)
    I     Atom           X                Y                Z
 ----------------------------------------------------------------
    1      C       0.6268550000    -3.8878000000     0.3631760000
    2      C      -0.5730740000    -3.7014560000    -0.3296690000
    3      C      -0.9400160000    -2.3451700000    -0.5422500000
    4      H      -1.1848370000    -4.5452330000    -0.6824120000
    5      C       0.0000000000    -1.4501350000     0.0000000000
    6      S       1.3226860000    -2.3213340000     0.7640760000
    7      C      -2.1924400000    -1.9344390000    -1.2655370000
    8      H      -2.7683650000    -2.8197990000    -1.5975590000
    9      H      -1.9676530000    -1.3262100000    -2.1665340000
   10      H      -2.8600320000    -1.3253740000    -0.6208430000
   11      H       1.1319250000    -4.8153260000     0.6552620000
   12      C       0.0000000000     0.0000000000     0.0000000000
   13      C       0.1436300000     0.8323090000     1.1130200000
   14      C       0.3805500000     2.2029610000     0.8205780000
   15      H       0.0775560000     0.4498770000     2.1428810000
   16      C       0.4229950000     2.4474560000    -0.5635880000
   17      S       0.1649090000     0.9565020000    -1.4647480000
   18      C       0.5618880000     3.2520160000     1.8823800000
   19      H       0.4855130000     2.8106240000     2.8949740000
   20      H      -0.2057110000     4.0504820000     1.8081370000
   21      H       1.5530450000     3.7463650000     1.8082300000
   22      H       0.5861050000     3.3915010000    -1.0971140000
 ----------------------------------------------------------------

   10   -1179.6855788125      5.14e-07  Convergence criterion met
 Total energy in the final basis set =    -1179.6855788125
        RIMP2         total energy =     -1181.6636012880 a.u.

                    Orbital Energies (a.u.)
 --------------------------------------------------------------

 Alpha MOs
 -- Occupied --
-91.9862 -91.9854 -11.2798 -11.2742 -11.2726 -11.2653 -11.2527 -11.2512
-11.2424 -11.2415 -11.2292 -11.2290  -8.9857  -8.9849  -6.6665  -6.6660
 -6.6658  -6.6654  -6.6653  -6.6646  -1.1786  -1.1497  -1.0396  -1.0230
 -0.9978  -0.9529  -0.9141  -0.8927  -0.7996  -0.7581  -0.7259  -0.6938
 -0.6623  -0.6166  -0.5828  -0.5786  -0.5729  -0.5695  -0.5516  -0.5326
 -0.5267  -0.5191  -0.5073  -0.4945  -0.4883  -0.4666  -0.4602  -0.3444
 -0.3433  -0.3355  -0.2895

          Ground-State Mulliken Net Atomic Charges

     Atom                 Charge (a.u.)
  ----------------------------------------
      1 C                    -0.211104
      2 C                    -0.249816
      3 C                     0.036713
      4 H                     0.185068
      5 C                    -0.036640
      6 S                     0.025192
      7 C                    -0.285904
      8 H                     0.108345
      9 H                     0.109698
     10 H                     0.111739
     11 H                     0.204393
     12 C                     0.011114
     13 C                    -0.257191
     14 C                     0.029243
     15 H                     0.187914
     16 C                    -0.240580
     17 S                     0.024995
     18 C                    -0.271094
     19 H                     0.102951
     20 H                     0.107944
     21 H                     0.108518
     22 H                     0.198503
  ----------------------------------------
  Sum of atomic charges =     0.000000

                    Cartesian Multipole Moments
 -----------------------------------------------------------------
    Charge (ESU x 10^10)
                -0.0000
    Dipole Moment (Debye)
         X      -0.9756      Y       0.2260      Z       0.7039
       Tot       1.2241
    Quadrupole Moments (Debye-Ang)
        XX     -87.4506     XY       3.7647     YY     -69.0072
        XZ       3.1221     YZ       2.2336     ZZ     -85.0397

 Total job time:  56.91s(wall), 1923.59s(cpu)
        *  Thank you very much for using Q-Chem.  Have a nice day.  *
