 Q-Chem 5.4, Q-Chem, Inc., Pleasanton, CA (2021)
 Q-Chem 5.4.0 for Intel X86 EM64T Linux

User input:
--------------------------------------------------------------
$molecule
0 1
C	0.713644	-3.887800	-0.124726
C	-0.650907	-3.701456	0.115824
C	-1.068646	-2.345170	0.188844
H	-1.346284	-4.545233	0.238841
C	0.000000	-1.450135	0.000000
S	1.504375	-2.321334	-0.264890
C	-2.492978	-1.934439	0.439816
H	-3.147582	-2.819799	0.555669
H	-2.899931	-1.326210	-0.394879
H	-2.589982	-1.325374	1.362799
H	1.288299	-4.815326	-0.225628
C	0.000000	0.000000	0.000000
C	0.645024	0.545262	1.113020
C	1.707554	1.442954	0.820578
H	0.348587	0.294774	2.142881
C	1.897227	1.602964	-0.563588
S	0.741155	0.626722	-1.464748
C	2.520787	2.130014	1.882380
H	2.178559	1.840981	2.894974
H	2.446016	3.235078	1.808137
H	3.597818	1.871604	1.808230
H	2.628997	2.221299	-1.097114
$end

$rem
JOBTYPE		SP
EXCHANGE	HF
CORRELATION	pRIMP2
BASIS		cc-pvtz
METHOD		rimp2
AUX_BASIS	rimp2-cc-pvtz
SOLVENT_METHOD	PCM
PURECART	11111
SYMMETRY	false
MEM_TOTAL	110000
SCF_CONVERGENCE = 6
THRESH=10
GUI = 2
$end

$solvent
dielectric 4.90
$end
--------------------------------------------------------------

             Standard Nuclear Orientation (Angstroms)
    I     Atom           X                Y                Z
 ----------------------------------------------------------------
    1      C       0.7136440000    -3.8878000000    -0.1247260000
    2      C      -0.6509070000    -3.7014560000     0.1158240000
    3      C      -1.0686460000    -2.3451700000     0.1888440000
    4      H      -1.3462840000    -4.5452330000     0.2388410000
    5      C       0.0000000000    -1.4501350000     0.0000000000
    6      S       1.5043750000    -2.3213340000    -0.2648900000
    7      C      -2.4929780000    -1.9344390000     0.4398160000
    8      H      -3.1475820000    -2.8197990000     0.5556690000
    9      H      -2.8999310000    -1.3262100000    -0.3948790000
   10      H      -2.5899820000    -1.3253740000     1.3627990000
   11      H       1.2882990000    -4.8153260000    -0.2256280000
   12      C       0.0000000000     0.0000000000     0.0000000000
   13      C       0.6450240000     0.5452620000     1.1130200000
   14      C       1.7075540000     1.4429540000     0.8205780000
   15      H       0.3485870000     0.2947740000     2.1428810000
   16      C       1.8972270000     1.6029640000    -0.5635880000
   17      S       0.7411550000     0.6267220000    -1.4647480000
   18      C       2.5207870000     2.1300140000     1.8823800000
   19      H       2.1785590000     1.8409810000     2.8949740000
   20      H       2.4460160000     3.2350780000     1.8081370000
   21      H       3.5978180000     1.8716040000     1.8082300000
   22      H       2.6289970000     2.2212990000    -1.0971140000
 ----------------------------------------------------------------

   10   -1179.6380840467      6.93e-07  Convergence criterion met
 Total energy in the final basis set =    -1179.6380840467
        RIMP2         total energy =     -1181.6265933434 a.u.

                    Orbital Energies (a.u.)
 --------------------------------------------------------------

 Alpha MOs
 -- Occupied --
-91.9832 -91.9773 -11.2830 -11.2709 -11.2658 -11.2592 -11.2575 -11.2528
-11.2418 -11.2369 -11.2305 -11.2258  -8.9834  -8.9774  -6.6642  -6.6635
 -6.6631  -6.6583  -6.6577  -6.6571  -1.1851  -1.1463  -1.0430  -1.0182
 -0.9980  -0.9520  -0.9110  -0.8910  -0.7971  -0.7485  -0.7381  -0.6908
 -0.6570  -0.6199  -0.5851  -0.5795  -0.5688  -0.5681  -0.5487  -0.5330
 -0.5308  -0.5162  -0.5082  -0.4897  -0.4695  -0.4618  -0.4609  -0.3594
 -0.3308  -0.3173  -0.2940

          Ground-State Mulliken Net Atomic Charges

     Atom                 Charge (a.u.)
  ----------------------------------------
      1 C                    -0.220359
      2 C                    -0.251886
      3 C                     0.047506
      4 H                     0.181665
      5 C                    -0.060323
      6 S                     0.017017
      7 C                    -0.284737
      8 H                     0.105913
      9 H                     0.109201
     10 H                     0.106427
     11 H                     0.202068
     12 C                    -0.084197
     13 C                    -0.148082
     14 C                     0.001499
     15 H                     0.184315
     16 C                    -0.190984
     17 S                     0.033208
     18 C                    -0.267132
     19 H                     0.103175
     20 H                     0.107849
     21 H                     0.106979
     22 H                     0.200877
  ----------------------------------------
  Sum of atomic charges =     0.000000

                    Cartesian Multipole Moments
 -----------------------------------------------------------------
    Charge (ESU x 10^10)
                -0.0000
    Dipole Moment (Debye)
         X       0.7831      Y       0.8201      Z       1.8759
       Tot       2.1919
    Quadrupole Moments (Debye-Ang)
        XX     -79.6377     XY       8.3709     YY     -77.2238
        XZ      -0.3878     YZ       0.2620     ZZ     -85.8207

 Total job time:  50.94s(wall), 1734.22s(cpu)
        *  Thank you very much for using Q-Chem.  Have a nice day.  *
