 Q-Chem 5.4, Q-Chem, Inc., Pleasanton, CA (2021)
 Q-Chem 5.4.0 for Intel X86 EM64T Linux

User input:
--------------------------------------------------------------
$molecule
0 1
C	0.555670	-3.887800	-0.464838
C	-0.505790	-3.701456	0.425760
C	-0.831053	-2.345170	0.697866
H	-1.046496	-4.545233	0.879984
C	0.000000	-1.450135	0.000000
S	1.170382	-2.321334	-0.981588
C	-1.939074	-1.934439	1.627381
H	-2.448051	-2.819799	2.055015
H	-2.708853	-1.326210	1.107991
H	-1.561590	-1.325374	2.475210
H	1.002886	-4.815326	-0.839549
C	0.000000	0.000000	0.000000
C	0.285976	0.794723	1.113020
C	0.757308	2.103412	0.820578
H	0.154498	0.429575	2.142881
C	0.841565	2.336821	-0.563588
S	0.328498	0.913334	-1.464748
C	1.118059	3.105040	1.882380
H	0.966197	2.683616	2.894974
H	0.500773	4.024668	1.808137
H	2.180000	3.419766	1.808230
H	1.166129	3.238200	-1.097114
$end

$rem
JOBTYPE		SP
EXCHANGE	HF
CORRELATION	pRIMP2
BASIS		cc-pvtz
METHOD		rimp2
AUX_BASIS	rimp2-cc-pvtz
SOLVENT_METHOD	PCM
PURECART	11111
SYMMETRY	false
MEM_TOTAL	110000
SCF_CONVERGENCE = 6
THRESH=10
GUI = 2
$end

$solvent
dielectric 4.90
$end
--------------------------------------------------------------

             Standard Nuclear Orientation (Angstroms)
    I     Atom           X                Y                Z
 ----------------------------------------------------------------
    1      C       0.5556700000    -3.8878000000    -0.4648380000
    2      C      -0.5057900000    -3.7014560000     0.4257600000
    3      C      -0.8310530000    -2.3451700000     0.6978660000
    4      H      -1.0464960000    -4.5452330000     0.8799840000
    5      C       0.0000000000    -1.4501350000     0.0000000000
    6      S       1.1703820000    -2.3213340000    -0.9815880000
    7      C      -1.9390740000    -1.9344390000     1.6273810000
    8      H      -2.4480510000    -2.8197990000     2.0550150000
    9      H      -2.7088530000    -1.3262100000     1.1079910000
   10      H      -1.5615900000    -1.3253740000     2.4752100000
   11      H       1.0028860000    -4.8153260000    -0.8395490000
   12      C       0.0000000000     0.0000000000     0.0000000000
   13      C       0.2859760000     0.7947230000     1.1130200000
   14      C       0.7573080000     2.1034120000     0.8205780000
   15      H       0.1544980000     0.4295750000     2.1428810000
   16      C       0.8415650000     2.3368210000    -0.5635880000
   17      S       0.3284980000     0.9133340000    -1.4647480000
   18      C       1.1180590000     3.1050400000     1.8823800000
   19      H       0.9661970000     2.6836160000     2.8949740000
   20      H       0.5007730000     4.0246680000     1.8081370000
   21      H       2.1800000000     3.4197660000     1.8082300000
   22      H       1.1661290000     3.2382000000    -1.0971140000
 ----------------------------------------------------------------

   10   -1179.6793811215      5.00e-07  Convergence criterion met
 Total energy in the final basis set =    -1179.6793811215
        RIMP2         total energy =     -1181.6593853071 a.u.

                    Orbital Energies (a.u.)
 --------------------------------------------------------------

 Alpha MOs
 -- Occupied --
-91.9865 -91.9852 -11.2794 -11.2762 -11.2700 -11.2673 -11.2524 -11.2498
-11.2438 -11.2420 -11.2297 -11.2290  -8.9861  -8.9848  -6.6670  -6.6665
 -6.6659  -6.6657  -6.6651  -6.6645  -1.1799  -1.1496  -1.0407  -1.0234
 -0.9961  -0.9555  -0.9122  -0.8935  -0.8010  -0.7522  -0.7311  -0.6963
 -0.6610  -0.6160  -0.5857  -0.5801  -0.5698  -0.5657  -0.5515  -0.5347
 -0.5299  -0.5199  -0.5072  -0.4914  -0.4851  -0.4714  -0.4581  -0.3557
 -0.3412  -0.3360  -0.2813

          Ground-State Mulliken Net Atomic Charges

     Atom                 Charge (a.u.)
  ----------------------------------------
      1 C                    -0.216335
      2 C                    -0.250102
      3 C                     0.039399
      4 H                     0.184494
      5 C                    -0.036406
      6 S                     0.022836
      7 C                    -0.287945
      8 H                     0.108714
      9 H                     0.111408
     10 H                     0.106647
     11 H                     0.204062
     12 C                    -0.012296
     13 C                    -0.209814
     14 C                     0.011877
     15 H                     0.191971
     16 C                    -0.227267
     17 S                     0.012164
     18 C                    -0.271502
     19 H                     0.102343
     20 H                     0.108235
     21 H                     0.108465
     22 H                     0.199053
  ----------------------------------------
  Sum of atomic charges =     0.000000

                    Cartesian Multipole Moments
 -----------------------------------------------------------------
    Charge (ESU x 10^10)
                -0.0000
    Dipole Moment (Debye)
         X      -0.4271      Y       0.4569      Z       2.4477
       Tot       2.5263
    Quadrupole Moments (Debye-Ang)
        XX     -87.6629     XY       5.2347     YY     -70.4356
        XZ      -2.7889     YZ      -0.4147     ZZ     -83.9212

 Total job time:  58.94s(wall), 1714.79s(cpu)
        *  Thank you very much for using Q-Chem.  Have a nice day.  *
