 Q-Chem 5.4, Q-Chem, Inc., Pleasanton, CA (2021)
 Q-Chem 5.4.0 for Intel X86 EM64T Linux

User input:
--------------------------------------------------------------
$molecule
0 1
C	0.626855	-3.887800	0.363176
C	-0.573074	-3.701456	-0.329669
C	-0.940016	-2.345170	-0.542250
H	-1.184837	-4.545233	-0.682412
C	-0.000000	-1.450135	-0.000000
S	1.322686	-2.321334	0.764076
C	-2.192440	-1.934439	-1.265537
H	-2.768365	-2.819799	-1.597559
H	-1.967653	-1.326210	-2.166534
H	-2.860032	-1.325374	-0.620843
H	1.131925	-4.815326	0.655262
C	0.000000	0.000000	0.000000
C	0.070542	0.841660	1.113020
C	0.187101	2.227746	0.820578
H	0.038051	0.454925	2.142881
C	0.208076	2.475009	-0.563588
S	0.080917	0.967235	-1.464748
C	0.276318	3.288613	1.882380
H	0.238704	2.842244	2.894974
H	-0.557951	4.017140	1.808137
H	1.220618	3.867466	1.808230
H	0.288286	3.429678	-1.097114
$end

$rem
JOBTYPE		SP
EXCHANGE	HF
CORRELATION	pRIMP2
BASIS		cc-pvtz
METHOD		rimp2
AUX_BASIS	rimp2-cc-pvtz
SOLVENT_METHOD	PCM
PURECART	11111
SYMMETRY	false
MEM_TOTAL	110000
SCF_CONVERGENCE = 6
THRESH=10
GUI = 2
$end

$solvent
dielectric 4.90
$end
--------------------------------------------------------------

             Standard Nuclear Orientation (Angstroms)
    I     Atom           X                Y                Z
 ----------------------------------------------------------------
    1      C       0.6268550000    -3.8878000000     0.3631760000
    2      C      -0.5730740000    -3.7014560000    -0.3296690000
    3      C      -0.9400160000    -2.3451700000    -0.5422500000
    4      H      -1.1848370000    -4.5452330000    -0.6824120000
    5      C       0.0000000000    -1.4501350000     0.0000000000
    6      S       1.3226860000    -2.3213340000     0.7640760000
    7      C      -2.1924400000    -1.9344390000    -1.2655370000
    8      H      -2.7683650000    -2.8197990000    -1.5975590000
    9      H      -1.9676530000    -1.3262100000    -2.1665340000
   10      H      -2.8600320000    -1.3253740000    -0.6208430000
   11      H       1.1319250000    -4.8153260000     0.6552620000
   12      C       0.0000000000     0.0000000000     0.0000000000
   13      C       0.0705420000     0.8416600000     1.1130200000
   14      C       0.1871010000     2.2277460000     0.8205780000
   15      H       0.0380510000     0.4549250000     2.1428810000
   16      C       0.2080760000     2.4750090000    -0.5635880000
   17      S       0.0809170000     0.9672350000    -1.4647480000
   18      C       0.2763180000     3.2886130000     1.8823800000
   19      H       0.2387040000     2.8422440000     2.8949740000
   20      H      -0.5579510000     4.0171400000     1.8081370000
   21      H       1.2206180000     3.8674660000     1.8082300000
   22      H       0.2882860000     3.4296780000    -1.0971140000
 ----------------------------------------------------------------

   10   -1179.6866560739      5.13e-07  Convergence criterion met
 Total energy in the final basis set =    -1179.6866560739
        RIMP2         total energy =     -1181.6644790881 a.u.

                    Orbital Energies (a.u.)
 --------------------------------------------------------------

 Alpha MOs
 -- Occupied --
-91.9863 -91.9855 -11.2804 -11.2745 -11.2727 -11.2649 -11.2530 -11.2512
-11.2426 -11.2413 -11.2291 -11.2290  -8.9857  -8.9850  -6.6666  -6.6661
 -6.6659  -6.6654  -6.6654  -6.6648  -1.1785  -1.1498  -1.0396  -1.0230
 -0.9978  -0.9531  -0.9140  -0.8928  -0.7997  -0.7581  -0.7258  -0.6942
 -0.6624  -0.6165  -0.5827  -0.5784  -0.5731  -0.5695  -0.5517  -0.5325
 -0.5268  -0.5192  -0.5075  -0.4945  -0.4888  -0.4666  -0.4601  -0.3447
 -0.3438  -0.3350  -0.2895

          Ground-State Mulliken Net Atomic Charges

     Atom                 Charge (a.u.)
  ----------------------------------------
      1 C                    -0.212723
      2 C                    -0.249071
      3 C                     0.034031
      4 H                     0.185298
      5 C                    -0.035149
      6 S                     0.024938
      7 C                    -0.286460
      8 H                     0.108764
      9 H                     0.110200
     10 H                     0.112106
     11 H                     0.204427
     12 C                     0.007668
     13 C                    -0.246219
     14 C                     0.023334
     15 H                     0.187750
     16 C                    -0.239881
     17 S                     0.024320
     18 C                    -0.271240
     19 H                     0.102986
     20 H                     0.107963
     21 H                     0.108436
     22 H                     0.198520
  ----------------------------------------
  Sum of atomic charges =     0.000000

                    Cartesian Multipole Moments
 -----------------------------------------------------------------
    Charge (ESU x 10^10)
                -0.0000
    Dipole Moment (Debye)
         X      -1.1469      Y       0.2199      Z       0.6958
       Tot       1.3594
    Quadrupole Moments (Debye-Ang)
        XX     -87.7029     XY       2.8332     YY     -68.7751
        XZ       3.0248     YZ       2.2488     ZZ     -85.0413

 Total job time:  54.79s(wall), 1839.11s(cpu)
        *  Thank you very much for using Q-Chem.  Have a nice day.  *
