 Q-Chem 5.4, Q-Chem, Inc., Pleasanton, CA (2021)
 Q-Chem 5.4.0 for Intel X86 EM64T Linux

User input:
--------------------------------------------------------------
$molecule
0 1
C	0.126876	-3.887800	-0.713264
C	-0.113784	-3.701456	0.651267
C	-0.188043	-2.345170	1.068787
H	-0.236019	-4.545233	1.346782
C	0.000000	-1.450135	0.000000
S	0.265612	-2.321334	-1.504247
C	-0.439357	-1.934439	2.493059
H	-0.554378	-2.819799	3.147809
H	-1.362899	-1.326210	2.589987
H	0.394786	-1.325374	2.899892
H	0.228603	-4.815326	-1.287774
C	0.000000	0.000000	0.000000
C	0.729909	0.424971	1.113020
C	1.932179	1.124518	0.820578
H	0.394478	0.229765	2.142881
C	2.146756	1.249161	-0.563588
S	0.838724	0.488500	-1.464748
C	2.852364	1.659924	1.882380
H	2.465145	1.434710	2.894974
H	2.970621	2.761183	1.808137
H	3.868160	1.218416	1.808230
H	2.974781	1.731032	-1.097114
$end

$rem
JOBTYPE		SP
EXCHANGE	HF
CORRELATION	pRIMP2
BASIS		cc-pvtz
METHOD		rimp2
AUX_BASIS	rimp2-cc-pvtz
SOLVENT_METHOD	PCM
PURECART	11111
SYMMETRY	false
MEM_TOTAL	110000
SCF_CONVERGENCE = 6
THRESH=10
GUI = 2
$end

$solvent
dielectric 4.90
$end
--------------------------------------------------------------

             Standard Nuclear Orientation (Angstroms)
    I     Atom           X                Y                Z
 ----------------------------------------------------------------
    1      C       0.1268760000    -3.8878000000    -0.7132640000
    2      C      -0.1137840000    -3.7014560000     0.6512670000
    3      C      -0.1880430000    -2.3451700000     1.0687870000
    4      H      -0.2360190000    -4.5452330000     1.3467820000
    5      C       0.0000000000    -1.4501350000     0.0000000000
    6      S       0.2656120000    -2.3213340000    -1.5042470000
    7      C      -0.4393570000    -1.9344390000     2.4930590000
    8      H      -0.5543780000    -2.8197990000     3.1478090000
    9      H      -1.3628990000    -1.3262100000     2.5899870000
   10      H       0.3947860000    -1.3253740000     2.8998920000
   11      H       0.2286030000    -4.8153260000    -1.2877740000
   12      C       0.0000000000     0.0000000000     0.0000000000
   13      C       0.7299090000     0.4249710000     1.1130200000
   14      C       1.9321790000     1.1245180000     0.8205780000
   15      H       0.3944780000     0.2297650000     2.1428810000
   16      C       2.1467560000     1.2491610000    -0.5635880000
   17      S       0.8387240000     0.4885000000    -1.4647480000
   18      C       2.8523640000     1.6599240000     1.8823800000
   19      H       2.4651450000     1.4347100000     2.8949740000
   20      H       2.9706210000     2.7611830000     1.8081370000
   21      H       3.8681600000     1.2184160000     1.8082300000
   22      H       2.9747810000     1.7310320000    -1.0971140000
 ----------------------------------------------------------------

   11   -1179.6048778705      6.06e-07  Convergence criterion met
 Total energy in the final basis set =    -1179.6048778705
        RIMP2         total energy =     -1181.6018698517 a.u.

                    Orbital Energies (a.u.)
 --------------------------------------------------------------

 Alpha MOs
 -- Occupied --
-91.9852 -91.9751 -11.2952 -11.2810 -11.2680 -11.2585 -11.2571 -11.2517
-11.2365 -11.2331 -11.2299 -11.2262  -8.9863  -8.9754  -6.6670  -6.6662
 -6.6659  -6.6563  -6.6556  -6.6549  -1.1950  -1.1445  -1.0486  -1.0248
 -0.9969  -0.9542  -0.9110  -0.8944  -0.8002  -0.7579  -0.7304  -0.7012
 -0.6524  -0.6195  -0.6019  -0.5834  -0.5708  -0.5574  -0.5494  -0.5432
 -0.5348  -0.5178  -0.5050  -0.4859  -0.4854  -0.4591  -0.4416  -0.3722
 -0.3494  -0.3270  -0.2610

          Ground-State Mulliken Net Atomic Charges

     Atom                 Charge (a.u.)
  ----------------------------------------
      1 C                    -0.263886
      2 C                    -0.241078
      3 C                     0.013645
      4 H                     0.180688
      5 C                    -0.006916
      6 S                    -0.000012
      7 C                    -0.300051
      8 H                     0.112280
      9 H                     0.108726
     10 H                     0.091567
     11 H                     0.198933
     12 C                    -0.110419
     13 C                    -0.092409
     14 C                    -0.029140
     15 H                     0.202548
     16 C                    -0.157793
     17 S                     0.033794
     18 C                    -0.266847
     19 H                     0.102784
     20 H                     0.109771
     21 H                     0.107845
     22 H                     0.205970
  ----------------------------------------
  Sum of atomic charges =     0.000000

                    Cartesian Multipole Moments
 -----------------------------------------------------------------
    Charge (ESU x 10^10)
                -0.0000
    Dipole Moment (Debye)
         X       2.8861      Y       1.6658      Z       3.0128
       Tot       4.4924
    Quadrupole Moments (Debye-Ang)
        XX     -82.1818     XY       6.3697     YY     -82.5146
        XZ      -0.4186     YZ      -1.8399     ZZ     -80.0658

 Total job time:  54.29s(wall), 1909.93s(cpu)
        *  Thank you very much for using Q-Chem.  Have a nice day.  *
