 Q-Chem 5.4, Q-Chem, Inc., Pleasanton, CA (2021)
 Q-Chem 5.4.0 for Intel X86 EM64T Linux

User input:
--------------------------------------------------------------
$molecule
0 1
C	0.361285	-3.887800	0.627947
C	-0.331462	-3.701456	-0.572038
C	-0.542953	-2.345170	-0.939610
H	-0.684893	-4.545233	-1.183405
C	0.000000	-1.450135	0.000000
S	0.763441	-2.321334	1.323052
C	-1.265941	-1.934439	-2.192207
H	-1.598695	-2.819799	-2.767709
H	-0.620770	-1.326210	-2.860100
H	-2.166438	-1.325374	-1.967682
H	0.652645	-4.815326	1.133436
C	0.000000	0.000000	0.000000
C	0.285976	0.794723	1.113020
C	0.757308	2.103412	0.820578
H	0.154498	0.429575	2.142881
C	0.841565	2.336821	-0.563588
S	0.328498	0.913334	-1.464748
C	1.118059	3.105040	1.882380
H	0.966197	2.683616	2.894974
H	0.500773	4.024668	1.808137
H	2.180000	3.419766	1.808230
H	1.166129	3.238200	-1.097114
$end

$rem
JOBTYPE		SP
EXCHANGE	HF
CORRELATION	pRIMP2
BASIS		cc-pvtz
METHOD		rimp2
AUX_BASIS	rimp2-cc-pvtz
SOLVENT_METHOD	PCM
PURECART	11111
SYMMETRY	false
MEM_TOTAL	110000
SCF_CONVERGENCE = 6
THRESH=10
GUI = 2
$end

$solvent
dielectric 4.90
$end
--------------------------------------------------------------

             Standard Nuclear Orientation (Angstroms)
    I     Atom           X                Y                Z
 ----------------------------------------------------------------
    1      C       0.3612850000    -3.8878000000     0.6279470000
    2      C      -0.3314620000    -3.7014560000    -0.5720380000
    3      C      -0.5429530000    -2.3451700000    -0.9396100000
    4      H      -0.6848930000    -4.5452330000    -1.1834050000
    5      C       0.0000000000    -1.4501350000     0.0000000000
    6      S       0.7634410000    -2.3213340000     1.3230520000
    7      C      -1.2659410000    -1.9344390000    -2.1922070000
    8      H      -1.5986950000    -2.8197990000    -2.7677090000
    9      H      -0.6207700000    -1.3262100000    -2.8601000000
   10      H      -2.1664380000    -1.3253740000    -1.9676820000
   11      H       0.6526450000    -4.8153260000     1.1334360000
   12      C       0.0000000000     0.0000000000     0.0000000000
   13      C       0.2859760000     0.7947230000     1.1130200000
   14      C       0.7573080000     2.1034120000     0.8205780000
   15      H       0.1544980000     0.4295750000     2.1428810000
   16      C       0.8415650000     2.3368210000    -0.5635880000
   17      S       0.3284980000     0.9133340000    -1.4647480000
   18      C       1.1180590000     3.1050400000     1.8823800000
   19      H       0.9661970000     2.6836160000     2.8949740000
   20      H       0.5007730000     4.0246680000     1.8081370000
   21      H       2.1800000000     3.4197660000     1.8082300000
   22      H       1.1661290000     3.2382000000    -1.0971140000
 ----------------------------------------------------------------

   10   -1179.6806613447      5.28e-07  Convergence criterion met
 Total energy in the final basis set =    -1179.6806613447
        RIMP2         total energy =     -1181.6615070169 a.u.

                    Orbital Energies (a.u.)
 --------------------------------------------------------------

 Alpha MOs
 -- Occupied --
-91.9857 -91.9854 -11.2808 -11.2767 -11.2715 -11.2663 -11.2525 -11.2510
-11.2428 -11.2420 -11.2298 -11.2293  -8.9853  -8.9852  -6.6662  -6.6661
 -6.6656  -6.6655  -6.6650  -6.6649  -1.1807  -1.1499  -1.0411  -1.0242
 -0.9989  -0.9521  -0.9148  -0.8941  -0.7993  -0.7631  -0.7219  -0.6941
 -0.6624  -0.6167  -0.5836  -0.5785  -0.5780  -0.5699  -0.5520  -0.5337
 -0.5248  -0.5194  -0.5092  -0.4970  -0.4874  -0.4682  -0.4549  -0.3608
 -0.3428  -0.3414  -0.2736

          Ground-State Mulliken Net Atomic Charges

     Atom                 Charge (a.u.)
  ----------------------------------------
      1 C                    -0.214839
      2 C                    -0.249473
      3 C                     0.038792
      4 H                     0.184980
      5 C                    -0.020201
      6 S                     0.016728
      7 C                    -0.308941
      8 H                     0.112599
      9 H                     0.112433
     10 H                     0.117154
     11 H                     0.205220
     12 C                     0.046386
     13 C                    -0.307565
     14 C                     0.054151
     15 H                     0.183241
     16 C                    -0.254115
     17 S                     0.034212
     18 C                    -0.269619
     19 H                     0.103229
     20 H                     0.108218
     21 H                     0.109183
     22 H                     0.198227
  ----------------------------------------
  Sum of atomic charges =     0.000000

                    Cartesian Multipole Moments
 -----------------------------------------------------------------
    Charge (ESU x 10^10)
                -0.0000
    Dipole Moment (Debye)
         X      -0.0920      Y       0.2586      Z       0.1443
       Tot       0.3101
    Quadrupole Moments (Debye-Ang)
        XX     -89.8002     XY       4.7327     YY     -70.0214
        XZ       3.3346     YZ       3.0950     ZZ     -81.5702

 Total job time:  49.24s(wall), 1713.49s(cpu)
        *  Thank you very much for using Q-Chem.  Have a nice day.  *
