 Q-Chem 5.4, Q-Chem, Inc., Pleasanton, CA (2021)
 Q-Chem 5.4.0 for Intel X86 EM64T Linux

User input:
--------------------------------------------------------------
$molecule
0 1
C	-0.466510	-3.887800	0.554267
C	0.424173	-3.701456	-0.507121
C	0.697244	-2.345170	-0.831575
H	0.877789	-4.545233	-1.048337
C	0.000000	-1.450135	0.000000
S	-0.982150	-2.321334	1.169911
C	1.627024	-1.934439	-1.939374
H	2.054010	-2.819799	-2.448894
H	2.475299	-1.326210	-1.561545
H	1.108051	-1.325374	-2.708773
H	-0.841863	-4.815326	1.000944
C	0.000000	0.000000	0.000000
C	0.354153	0.766774	1.113020
C	0.937751	2.029404	0.820578
H	0.191350	0.414475	2.142881
C	1.042030	2.254581	-0.563588
S	0.406851	0.881228	-1.464748
C	1.384426	2.995779	1.882380
H	1.196413	2.589194	2.894974
H	0.849641	3.965707	1.808137
H	2.469756	3.216753	1.808230
H	1.443919	3.124243	-1.097114
$end

$rem
JOBTYPE		SP
EXCHANGE	HF
CORRELATION	pRIMP2
BASIS		cc-pvtz
METHOD		rimp2
AUX_BASIS	rimp2-cc-pvtz
SOLVENT_METHOD	PCM
PURECART	11111
SYMMETRY	false
MEM_TOTAL	110000
SCF_CONVERGENCE = 6
THRESH=10
GUI = 2
$end

$solvent
dielectric 4.90
$end
--------------------------------------------------------------

             Standard Nuclear Orientation (Angstroms)
    I     Atom           X                Y                Z
 ----------------------------------------------------------------
    1      C      -0.4665100000    -3.8878000000     0.5542670000
    2      C       0.4241730000    -3.7014560000    -0.5071210000
    3      C       0.6972440000    -2.3451700000    -0.8315750000
    4      H       0.8777890000    -4.5452330000    -1.0483370000
    5      C       0.0000000000    -1.4501350000     0.0000000000
    6      S      -0.9821500000    -2.3213340000     1.1699110000
    7      C       1.6270240000    -1.9344390000    -1.9393740000
    8      H       2.0540100000    -2.8197990000    -2.4488940000
    9      H       2.4752990000    -1.3262100000    -1.5615450000
   10      H       1.1080510000    -1.3253740000    -2.7087730000
   11      H      -0.8418630000    -4.8153260000     1.0009440000
   12      C       0.0000000000     0.0000000000     0.0000000000
   13      C       0.3541530000     0.7667740000     1.1130200000
   14      C       0.9377510000     2.0294040000     0.8205780000
   15      H       0.1913500000     0.4144750000     2.1428810000
   16      C       1.0420300000     2.2545810000    -0.5635880000
   17      S       0.4068510000     0.8812280000    -1.4647480000
   18      C       1.3844260000     2.9957790000     1.8823800000
   19      H       1.1964130000     2.5891940000     2.8949740000
   20      H       0.8496410000     3.9657070000     1.8081370000
   21      H       2.4697560000     3.2167530000     1.8082300000
   22      H       1.4439190000     3.1242430000    -1.0971140000
 ----------------------------------------------------------------

   10   -1179.6703855043      5.29e-07  Convergence criterion met
 Total energy in the final basis set =    -1179.6703855043
        RIMP2         total energy =     -1181.6541502538 a.u.

                    Orbital Energies (a.u.)
 --------------------------------------------------------------

 Alpha MOs
 -- Occupied --
-91.9840 -91.9834 -11.2785 -11.2775 -11.2691 -11.2682 -11.2517 -11.2489
-11.2447 -11.2420 -11.2294 -11.2260  -8.9840  -8.9832  -6.6648  -6.6643
 -6.6641  -6.6637  -6.6636  -6.6629  -1.1806  -1.1490  -1.0414  -1.0217
 -0.9979  -0.9530  -0.9123  -0.8941  -0.7975  -0.7611  -0.7238  -0.6953
 -0.6601  -0.6165  -0.5825  -0.5785  -0.5763  -0.5695  -0.5509  -0.5322
 -0.5266  -0.5195  -0.5112  -0.4951  -0.4816  -0.4653  -0.4539  -0.3604
 -0.3414  -0.3361  -0.2754

          Ground-State Mulliken Net Atomic Charges

     Atom                 Charge (a.u.)
  ----------------------------------------
      1 C                    -0.216752
      2 C                    -0.252927
      3 C                     0.048081
      4 H                     0.185316
      5 C                    -0.033694
      6 S                     0.014302
      7 C                    -0.298587
      8 H                     0.108233
      9 H                     0.119331
     10 H                     0.111526
     11 H                     0.203970
     12 C                    -0.015206
     13 C                    -0.214122
     14 C                     0.012724
     15 H                     0.185680
     16 C                    -0.226150
     17 S                     0.019643
     18 C                    -0.269308
     19 H                     0.103103
     20 H                     0.108200
     21 H                     0.107454
     22 H                     0.199184
  ----------------------------------------
  Sum of atomic charges =     0.000000

                    Cartesian Multipole Moments
 -----------------------------------------------------------------
    Charge (ESU x 10^10)
                -0.0000
    Dipole Moment (Debye)
         X       1.9067      Y       0.5226      Z       0.2344
       Tot       1.9909
    Quadrupole Moments (Debye-Ang)
        XX     -88.1047     XY       2.8567     YY     -71.8485
        XZ      -2.8290     YZ       2.6747     ZZ     -82.6064

 Total job time:  51.24s(wall), 1789.94s(cpu)
        *  Thank you very much for using Q-Chem.  Have a nice day.  *
