 Q-Chem 5.4, Q-Chem, Inc., Pleasanton, CA (2021)
 Q-Chem 5.4.0 for Intel X86 EM64T Linux

User input:
--------------------------------------------------------------
$molecule
0 1
C	-0.555670	-3.887800	0.464838
C	0.505790	-3.701456	-0.425760
C	0.831053	-2.345170	-0.697866
H	1.046496	-4.545233	-0.879984
C	-0.000000	-1.450135	-0.000000
S	-1.170382	-2.321334	0.981588
C	1.939074	-1.934439	-1.627381
H	2.448051	-2.819799	-2.055015
H	2.708853	-1.326210	-1.107991
H	1.561590	-1.325374	-2.475210
H	-1.002886	-4.815326	0.839549
C	0.000000	0.000000	0.000000
C	0.215623	0.816623	1.113020
C	0.571102	2.161411	0.820578
H	0.116470	0.441406	2.142881
C	0.634696	2.401276	-0.563588
S	0.247646	0.938489	-1.464748
C	0.843182	3.190669	1.882380
H	0.728628	2.757614	2.894974
H	0.148095	4.052998	1.808137
H	1.873652	3.596752	1.808230
H	0.879464	3.327513	-1.097114
$end

$rem
JOBTYPE		SP
EXCHANGE	HF
CORRELATION	pRIMP2
BASIS		cc-pvtz
METHOD		rimp2
AUX_BASIS	rimp2-cc-pvtz
SOLVENT_METHOD	PCM
PURECART	11111
SYMMETRY	false
MEM_TOTAL	110000
SCF_CONVERGENCE = 6
THRESH=10
GUI = 2
$end

$solvent
dielectric 4.90
$end
--------------------------------------------------------------

             Standard Nuclear Orientation (Angstroms)
    I     Atom           X                Y                Z
 ----------------------------------------------------------------
    1      C      -0.5556700000    -3.8878000000     0.4648380000
    2      C       0.5057900000    -3.7014560000    -0.4257600000
    3      C       0.8310530000    -2.3451700000    -0.6978660000
    4      H       1.0464960000    -4.5452330000    -0.8799840000
    5      C       0.0000000000    -1.4501350000     0.0000000000
    6      S      -1.1703820000    -2.3213340000     0.9815880000
    7      C       1.9390740000    -1.9344390000    -1.6273810000
    8      H       2.4480510000    -2.8197990000    -2.0550150000
    9      H       2.7088530000    -1.3262100000    -1.1079910000
   10      H       1.5615900000    -1.3253740000    -2.4752100000
   11      H      -1.0028860000    -4.8153260000     0.8395490000
   12      C       0.0000000000     0.0000000000     0.0000000000
   13      C       0.2156230000     0.8166230000     1.1130200000
   14      C       0.5711020000     2.1614110000     0.8205780000
   15      H       0.1164700000     0.4414060000     2.1428810000
   16      C       0.6346960000     2.4012760000    -0.5635880000
   17      S       0.2476460000     0.9384890000    -1.4647480000
   18      C       0.8431820000     3.1906690000     1.8823800000
   19      H       0.7286280000     2.7576140000     2.8949740000
   20      H       0.1480950000     4.0529980000     1.8081370000
   21      H       1.8736520000     3.5967520000     1.8082300000
   22      H       0.8794640000     3.3275130000    -1.0971140000
 ----------------------------------------------------------------

   10   -1179.6809686381      5.03e-07  Convergence criterion met
 Total energy in the final basis set =    -1179.6809686381
        RIMP2         total energy =     -1181.6612875305 a.u.

                    Orbital Energies (a.u.)
 --------------------------------------------------------------

 Alpha MOs
 -- Occupied --
-91.9851 -91.9850 -11.2801 -11.2763 -11.2711 -11.2661 -11.2515 -11.2515
-11.2427 -11.2425 -11.2292 -11.2274  -8.9847  -8.9846  -6.6656  -6.6655
 -6.6651  -6.6650  -6.6645  -6.6644  -1.1793  -1.1496  -1.0404  -1.0222
 -0.9980  -0.9533  -0.9132  -0.8933  -0.7988  -0.7596  -0.7248  -0.6950
 -0.6614  -0.6165  -0.5824  -0.5778  -0.5750  -0.5697  -0.5513  -0.5321
 -0.5270  -0.5192  -0.5100  -0.4947  -0.4854  -0.4664  -0.4573  -0.3537
 -0.3422  -0.3358  -0.2820

          Ground-State Mulliken Net Atomic Charges

     Atom                 Charge (a.u.)
  ----------------------------------------
      1 C                    -0.216095
      2 C                    -0.251035
      3 C                     0.043486
      4 H                     0.185330
      5 C                    -0.030155
      6 S                     0.022276
      7 C                    -0.295361
      8 H                     0.109458
      9 H                     0.116632
     10 H                     0.112959
     11 H                     0.204254
     12 C                    -0.012014
     13 C                    -0.228522
     14 C                     0.016996
     15 H                     0.186908
     16 C                    -0.233434
     17 S                     0.020728
     18 C                    -0.270265
     19 H                     0.103001
     20 H                     0.108260
     21 H                     0.107870
     22 H                     0.198724
  ----------------------------------------
  Sum of atomic charges =     0.000000

                    Cartesian Multipole Moments
 -----------------------------------------------------------------
    Charge (ESU x 10^10)
                -0.0000
    Dipole Moment (Debye)
         X       1.6831      Y       0.3654      Z       0.4501
       Tot       1.7802
    Quadrupole Moments (Debye-Ang)
        XX     -88.2334     XY       1.0590     YY     -69.9557
        XZ      -3.0089     YZ       2.5099     ZZ     -83.8446

 Total job time:  61.99s(wall), 1698.29s(cpu)
        *  Thank you very much for using Q-Chem.  Have a nice day.  *
