 Q-Chem 5.4, Q-Chem, Inc., Pleasanton, CA (2021)
 Q-Chem 5.4.0 for Intel X86 EM64T Linux

User input:
--------------------------------------------------------------
$molecule
0 1
C	0.554267	-3.887800	0.466510
C	-0.507121	-3.701456	-0.424173
C	-0.831575	-2.345170	-0.697244
H	-1.048337	-4.545233	-0.877789
C	-0.000000	-1.450135	-0.000000
S	1.169911	-2.321334	0.982150
C	-1.939374	-1.934439	-1.627024
H	-2.448894	-2.819799	-2.054010
H	-1.561545	-1.326210	-2.475299
H	-2.708773	-1.325374	-1.108051
H	1.000944	-4.815326	0.841863
C	0.000000	0.000000	0.000000
C	0.070542	0.841660	1.113020
C	0.187101	2.227746	0.820578
H	0.038051	0.454925	2.142881
C	0.208076	2.475009	-0.563588
S	0.080917	0.967235	-1.464748
C	0.276318	3.288613	1.882380
H	0.238704	2.842244	2.894974
H	-0.557951	4.017140	1.808137
H	1.220618	3.867466	1.808230
H	0.288286	3.429678	-1.097114
$end

$rem
JOBTYPE		SP
EXCHANGE	HF
CORRELATION	pRIMP2
BASIS		cc-pvtz
METHOD		rimp2
AUX_BASIS	rimp2-cc-pvtz
SOLVENT_METHOD	PCM
PURECART	11111
SYMMETRY	false
MEM_TOTAL	110000
SCF_CONVERGENCE = 6
THRESH=10
GUI = 2
$end

$solvent
dielectric 4.90
$end
--------------------------------------------------------------

             Standard Nuclear Orientation (Angstroms)
    I     Atom           X                Y                Z
 ----------------------------------------------------------------
    1      C       0.5542670000    -3.8878000000     0.4665100000
    2      C      -0.5071210000    -3.7014560000    -0.4241730000
    3      C      -0.8315750000    -2.3451700000    -0.6972440000
    4      H      -1.0483370000    -4.5452330000    -0.8777890000
    5      C       0.0000000000    -1.4501350000     0.0000000000
    6      S       1.1699110000    -2.3213340000     0.9821500000
    7      C      -1.9393740000    -1.9344390000    -1.6270240000
    8      H      -2.4488940000    -2.8197990000    -2.0540100000
    9      H      -1.5615450000    -1.3262100000    -2.4752990000
   10      H      -2.7087730000    -1.3253740000    -1.1080510000
   11      H       1.0009440000    -4.8153260000     0.8418630000
   12      C       0.0000000000     0.0000000000     0.0000000000
   13      C       0.0705420000     0.8416600000     1.1130200000
   14      C       0.1871010000     2.2277460000     0.8205780000
   15      H       0.0380510000     0.4549250000     2.1428810000
   16      C       0.2080760000     2.4750090000    -0.5635880000
   17      S       0.0809170000     0.9672350000    -1.4647480000
   18      C       0.2763180000     3.2886130000     1.8823800000
   19      H       0.2387040000     2.8422440000     2.8949740000
   20      H      -0.5579510000     4.0171400000     1.8081370000
   21      H       1.2206180000     3.8674660000     1.8082300000
   22      H       0.2882860000     3.4296780000    -1.0971140000
 ----------------------------------------------------------------

   10   -1179.6869471865      5.21e-07  Convergence criterion met
 Total energy in the final basis set =    -1179.6869471865
        RIMP2         total energy =     -1181.6651529102 a.u.

                    Orbital Energies (a.u.)
 --------------------------------------------------------------

 Alpha MOs
 -- Occupied --
-91.9865 -91.9855 -11.2814 -11.2755 -11.2727 -11.2646 -11.2528 -11.2514
-11.2429 -11.2409 -11.2292 -11.2290  -8.9860  -8.9851  -6.6668  -6.6663
 -6.6660  -6.6657  -6.6655  -6.6648  -1.1790  -1.1499  -1.0400  -1.0234
 -0.9981  -0.9529  -0.9142  -0.8932  -0.7997  -0.7599  -0.7242  -0.6943
 -0.6625  -0.6165  -0.5830  -0.5782  -0.5745  -0.5696  -0.5518  -0.5329
 -0.5262  -0.5192  -0.5079  -0.4954  -0.4890  -0.4674  -0.4586  -0.3504
 -0.3432  -0.3382  -0.2833

          Ground-State Mulliken Net Atomic Charges

     Atom                 Charge (a.u.)
  ----------------------------------------
      1 C                    -0.213538
      2 C                    -0.248677
      3 C                     0.030545
      4 H                     0.185450
      5 C                    -0.028952
      6 S                     0.023434
      7 C                    -0.292794
      8 H                     0.109930
      9 H                     0.111392
     10 H                     0.113971
     11 H                     0.204605
     12 C                     0.019752
     13 C                    -0.256255
     14 C                     0.025879
     15 H                     0.187380
     16 C                    -0.242967
     17 S                     0.024114
     18 C                    -0.271493
     19 H                     0.103053
     20 H                     0.108046
     21 H                     0.108544
     22 H                     0.198581
  ----------------------------------------
  Sum of atomic charges =     0.000000

                    Cartesian Multipole Moments
 -----------------------------------------------------------------
    Charge (ESU x 10^10)
                -0.0000
    Dipole Moment (Debye)
         X      -1.0028      Y       0.2007      Z       0.4687
       Tot       1.1250
    Quadrupole Moments (Debye-Ang)
        XX     -88.7860     XY       2.6180     YY     -68.7512
        XZ       3.4366     YZ       2.5689     ZZ     -83.9187

 Total job time:  53.22s(wall), 1829.11s(cpu)
        *  Thank you very much for using Q-Chem.  Have a nice day.  *
