 Q-Chem 5.4, Q-Chem, Inc., Pleasanton, CA (2021)
 Q-Chem 5.4.0 for Intel X86 EM64T Linux

User input:
--------------------------------------------------------------
$molecule
0 1
C	0.248806	-3.887800	-0.680396
C	-0.225147	-3.701456	0.621614
C	-0.370780	-2.345170	1.019896
H	-0.466300	-4.545233	1.285337
C	0.000000	-1.450135	0.000000
S	0.522786	-2.321334	-1.435271
C	-0.865597	-1.934439	2.378891
H	-1.092567	-2.819799	3.003720
H	-1.791940	-1.326210	2.313975
H	-0.114772	-1.325374	2.924390
H	0.448750	-4.815326	-1.228514
C	0.000000	0.000000	0.000000
C	0.729909	0.424971	1.113020
C	1.932179	1.124518	0.820578
H	0.394478	0.229765	2.142881
C	2.146756	1.249161	-0.563588
S	0.838724	0.488500	-1.464748
C	2.852364	1.659924	1.882380
H	2.465145	1.434710	2.894974
H	2.970621	2.761183	1.808137
H	3.868160	1.218416	1.808230
H	2.974781	1.731032	-1.097114
$end

$rem
JOBTYPE		SP
EXCHANGE	HF
CORRELATION	pRIMP2
BASIS		cc-pvtz
METHOD		rimp2
AUX_BASIS	rimp2-cc-pvtz
SOLVENT_METHOD	PCM
PURECART	11111
SYMMETRY	false
MEM_TOTAL	110000
SCF_CONVERGENCE = 6
THRESH=10
GUI = 2
$end

$solvent
dielectric 4.90
$end
--------------------------------------------------------------

             Standard Nuclear Orientation (Angstroms)
    I     Atom           X                Y                Z
 ----------------------------------------------------------------
    1      C       0.2488060000    -3.8878000000    -0.6803960000
    2      C      -0.2251470000    -3.7014560000     0.6216140000
    3      C      -0.3707800000    -2.3451700000     1.0198960000
    4      H      -0.4663000000    -4.5452330000     1.2853370000
    5      C       0.0000000000    -1.4501350000     0.0000000000
    6      S       0.5227860000    -2.3213340000    -1.4352710000
    7      C      -0.8655970000    -1.9344390000     2.3788910000
    8      H      -1.0925670000    -2.8197990000     3.0037200000
    9      H      -1.7919400000    -1.3262100000     2.3139750000
   10      H      -0.1147720000    -1.3253740000     2.9243900000
   11      H       0.4487500000    -4.8153260000    -1.2285140000
   12      C       0.0000000000     0.0000000000     0.0000000000
   13      C       0.7299090000     0.4249710000     1.1130200000
   14      C       1.9321790000     1.1245180000     0.8205780000
   15      H       0.3944780000     0.2297650000     2.1428810000
   16      C       2.1467560000     1.2491610000    -0.5635880000
   17      S       0.8387240000     0.4885000000    -1.4647480000
   18      C       2.8523640000     1.6599240000     1.8823800000
   19      H       2.4651450000     1.4347100000     2.8949740000
   20      H       2.9706210000     2.7611830000     1.8081370000
   21      H       3.8681600000     1.2184160000     1.8082300000
   22      H       2.9747810000     1.7310320000    -1.0971140000
 ----------------------------------------------------------------

   11   -1179.6080224795      5.66e-07  Convergence criterion met
 Total energy in the final basis set =    -1179.6080224795
        RIMP2         total energy =     -1181.6043540632 a.u.

                    Orbital Energies (a.u.)
 --------------------------------------------------------------

 Alpha MOs
 -- Occupied --
-91.9858 -91.9762 -11.2953 -11.2808 -11.2701 -11.2591 -11.2578 -11.2499
-11.2362 -11.2332 -11.2285 -11.2256  -8.9868  -8.9763  -6.6676  -6.6668
 -6.6665  -6.6571  -6.6564  -6.6558  -1.1953  -1.1443  -1.0489  -1.0230
 -0.9976  -0.9548  -0.9099  -0.8936  -0.8010  -0.7570  -0.7312  -0.6993
 -0.6524  -0.6203  -0.6004  -0.5824  -0.5703  -0.5584  -0.5491  -0.5431
 -0.5351  -0.5169  -0.5058  -0.4875  -0.4856  -0.4579  -0.4430  -0.3720
 -0.3452  -0.3296  -0.2619

          Ground-State Mulliken Net Atomic Charges

     Atom                 Charge (a.u.)
  ----------------------------------------
      1 C                    -0.271127
      2 C                    -0.238189
      3 C                     0.006099
      4 H                     0.180219
      5 C                     0.004375
      6 S                     0.005533
      7 C                    -0.303091
      8 H                     0.110767
      9 H                     0.110279
     10 H                     0.090239
     11 H                     0.198131
     12 C                    -0.112192
     13 C                    -0.085079
     14 C                    -0.032048
     15 H                     0.204378
     16 C                    -0.158605
     17 S                     0.030601
     18 C                    -0.266103
     19 H                     0.102986
     20 H                     0.108979
     21 H                     0.107711
     22 H                     0.206138
  ----------------------------------------
  Sum of atomic charges =     0.000000

                    Cartesian Multipole Moments
 -----------------------------------------------------------------
    Charge (ESU x 10^10)
                -0.0000
    Dipole Moment (Debye)
         X       2.6837      Y       1.7618      Z       2.9004
       Tot       4.3265
    Quadrupole Moments (Debye-Ang)
        XX     -81.6745     XY       6.8216     YY     -82.7866
        XZ      -1.2283     YZ      -1.6917     ZZ     -80.5684

 Total job time:  54.41s(wall), 1908.85s(cpu)
        *  Thank you very much for using Q-Chem.  Have a nice day.  *
