 Q-Chem 5.4, Q-Chem, Inc., Pleasanton, CA (2021)
 Q-Chem 5.4.0 for Intel X86 EM64T Linux

User input:
--------------------------------------------------------------
$molecule
0 1
C	-0.681143	-3.887800	0.246754
C	0.620906	-3.701456	-0.227093
C	1.019618	-2.345170	-0.371543
H	1.284357	-4.545233	-0.468992
C	-0.000000	-1.450135	-0.000000
S	-1.435522	-2.321334	0.522097
C	2.378731	-1.934439	-0.866035
H	3.003272	-2.819799	-1.093799
H	2.924444	-1.326210	-0.114688
H	2.313987	-1.325374	-1.791841
H	-1.229547	-4.815326	0.445911
C	0.000000	0.000000	0.000000
C	0.215623	0.816623	1.113020
C	0.571102	2.161411	0.820578
H	0.116470	0.441406	2.142881
C	0.634696	2.401276	-0.563588
S	0.247646	0.938489	-1.464748
C	0.843182	3.190669	1.882380
H	0.728628	2.757614	2.894974
H	0.148095	4.052998	1.808137
H	1.873652	3.596752	1.808230
H	0.879464	3.327513	-1.097114
$end

$rem
JOBTYPE		SP
EXCHANGE	HF
CORRELATION	pRIMP2
BASIS		cc-pvtz
METHOD		rimp2
AUX_BASIS	rimp2-cc-pvtz
SOLVENT_METHOD	PCM
PURECART	11111
SYMMETRY	false
MEM_TOTAL	110000
SCF_CONVERGENCE = 6
THRESH=10
GUI = 2
$end

$solvent
dielectric 4.90
$end
--------------------------------------------------------------

             Standard Nuclear Orientation (Angstroms)
    I     Atom           X                Y                Z
 ----------------------------------------------------------------
    1      C      -0.6811430000    -3.8878000000     0.2467540000
    2      C       0.6209060000    -3.7014560000    -0.2270930000
    3      C       1.0196180000    -2.3451700000    -0.3715430000
    4      H       1.2843570000    -4.5452330000    -0.4689920000
    5      C       0.0000000000    -1.4501350000     0.0000000000
    6      S      -1.4355220000    -2.3213340000     0.5220970000
    7      C       2.3787310000    -1.9344390000    -0.8660350000
    8      H       3.0032720000    -2.8197990000    -1.0937990000
    9      H       2.9244440000    -1.3262100000    -0.1146880000
   10      H       2.3139870000    -1.3253740000    -1.7918410000
   11      H      -1.2295470000    -4.8153260000     0.4459110000
   12      C       0.0000000000     0.0000000000     0.0000000000
   13      C       0.2156230000     0.8166230000     1.1130200000
   14      C       0.5711020000     2.1614110000     0.8205780000
   15      H       0.1164700000     0.4414060000     2.1428810000
   16      C       0.6346960000     2.4012760000    -0.5635880000
   17      S       0.2476460000     0.9384890000    -1.4647480000
   18      C       0.8431820000     3.1906690000     1.8823800000
   19      H       0.7286280000     2.7576140000     2.8949740000
   20      H       0.1480950000     4.0529980000     1.8081370000
   21      H       1.8736520000     3.5967520000     1.8082300000
   22      H       0.8794640000     3.3275130000    -1.0971140000
 ----------------------------------------------------------------

   10   -1179.6816465969      5.11e-07  Convergence criterion met
 Total energy in the final basis set =    -1179.6816465969
        RIMP2         total energy =     -1181.6611202057 a.u.

                    Orbital Energies (a.u.)
 --------------------------------------------------------------

 Alpha MOs
 -- Occupied --
-91.9855 -91.9846 -11.2783 -11.2745 -11.2714 -11.2666 -11.2524 -11.2513
-11.2433 -11.2421 -11.2293 -11.2279  -8.9850  -8.9842  -6.6659  -6.6653
 -6.6651  -6.6647  -6.6645  -6.6639  -1.1785  -1.1495  -1.0398  -1.0217
 -0.9975  -0.9537  -0.9131  -0.8925  -0.7989  -0.7561  -0.7280  -0.6949
 -0.6614  -0.6167  -0.5819  -0.5786  -0.5727  -0.5696  -0.5512  -0.5312
 -0.5280  -0.5194  -0.5093  -0.4930  -0.4856  -0.4653  -0.4602  -0.3452
 -0.3425  -0.3273  -0.2954

          Ground-State Mulliken Net Atomic Charges

     Atom                 Charge (a.u.)
  ----------------------------------------
      1 C                    -0.216374
      2 C                    -0.249766
      3 C                     0.051600
      4 H                     0.185112
      5 C                    -0.031862
      6 S                     0.026499
      7 C                    -0.284566
      8 H                     0.108881
      9 H                     0.111869
     10 H                     0.111427
     11 H                     0.203784
     12 C                    -0.034873
     13 C                    -0.226635
     14 C                     0.020001
     15 H                     0.186347
     16 C                    -0.234130
     17 S                     0.025860
     18 C                    -0.270618
     19 H                     0.102974
     20 H                     0.108321
     21 H                     0.107785
     22 H                     0.198362
  ----------------------------------------
  Sum of atomic charges =     0.000000

                    Cartesian Multipole Moments
 -----------------------------------------------------------------
    Charge (ESU x 10^10)
                -0.0000
    Dipole Moment (Debye)
         X       1.9394      Y       0.3692      Z       0.9451
       Tot       2.1888
    Quadrupole Moments (Debye-Ang)
        XX     -86.3065     XY       0.6230     YY     -69.8147
        XZ      -1.8642     YZ       1.8831     ZZ     -85.8719

 Total job time:  59.30s(wall), 2289.29s(cpu)
        *  Thank you very much for using Q-Chem.  Have a nice day.  *
