 Q-Chem 5.4, Q-Chem, Inc., Pleasanton, CA (2021)
 Q-Chem 5.4.0 for Intel X86 EM64T Linux

User input:
--------------------------------------------------------------
$molecule
0 1
C	-0.466510	-3.887800	0.554267
C	0.424173	-3.701456	-0.507121
C	0.697244	-2.345170	-0.831575
H	0.877789	-4.545233	-1.048337
C	-0.000000	-1.450135	-0.000000
S	-0.982150	-2.321334	1.169911
C	1.627024	-1.934439	-1.939374
H	2.054010	-2.819799	-2.448894
H	2.475299	-1.326210	-1.561545
H	1.108051	-1.325374	-2.708773
H	-0.841863	-4.815326	1.000944
C	0.000000	0.000000	0.000000
C	0.540541	0.648986	1.113020
C	1.431046	1.717546	0.820578
H	0.292104	0.350827	2.142881
C	1.590053	1.908061	-0.563588
S	0.621066	0.745901	-1.464748
C	2.112618	2.535384	1.882380
H	1.825779	2.191315	2.894974
H	1.847090	3.610676	1.808137
H	3.218159	2.467925	1.808230
H	2.203332	2.644073	-1.097114
$end

$rem
JOBTYPE		SP
EXCHANGE	HF
CORRELATION	pRIMP2
BASIS		cc-pvtz
METHOD		rimp2
AUX_BASIS	rimp2-cc-pvtz
SOLVENT_METHOD	PCM
PURECART	11111
SYMMETRY	false
MEM_TOTAL	110000
SCF_CONVERGENCE = 6
THRESH=10
GUI = 2
$end

$solvent
dielectric 4.90
$end
--------------------------------------------------------------

             Standard Nuclear Orientation (Angstroms)
    I     Atom           X                Y                Z
 ----------------------------------------------------------------
    1      C      -0.4665100000    -3.8878000000     0.5542670000
    2      C       0.4241730000    -3.7014560000    -0.5071210000
    3      C       0.6972440000    -2.3451700000    -0.8315750000
    4      H       0.8777890000    -4.5452330000    -1.0483370000
    5      C       0.0000000000    -1.4501350000     0.0000000000
    6      S      -0.9821500000    -2.3213340000     1.1699110000
    7      C       1.6270240000    -1.9344390000    -1.9393740000
    8      H       2.0540100000    -2.8197990000    -2.4488940000
    9      H       2.4752990000    -1.3262100000    -1.5615450000
   10      H       1.1080510000    -1.3253740000    -2.7087730000
   11      H      -0.8418630000    -4.8153260000     1.0009440000
   12      C       0.0000000000     0.0000000000     0.0000000000
   13      C       0.5405410000     0.6489860000     1.1130200000
   14      C       1.4310460000     1.7175460000     0.8205780000
   15      H       0.2921040000     0.3508270000     2.1428810000
   16      C       1.5900530000     1.9080610000    -0.5635880000
   17      S       0.6210660000     0.7459010000    -1.4647480000
   18      C       2.1126180000     2.5353840000     1.8823800000
   19      H       1.8257790000     2.1913150000     2.8949740000
   20      H       1.8470900000     3.6106760000     1.8081370000
   21      H       3.2181590000     2.4679250000     1.8082300000
   22      H       2.2033320000     2.6440730000    -1.0971140000
 ----------------------------------------------------------------

   10   -1179.6447103387      7.41e-07  Convergence criterion met
 Total energy in the final basis set =    -1179.6447103387
        RIMP2         total energy =     -1181.6352426024 a.u.

                    Orbital Energies (a.u.)
 --------------------------------------------------------------

 Alpha MOs
 -- Occupied --
-91.9820 -91.9798 -11.2785 -11.2753 -11.2709 -11.2645 -11.2525 -11.2510
-11.2434 -11.2402 -11.2301 -11.2229  -8.9827  -8.9798  -6.6634  -6.6628
 -6.6623  -6.6607  -6.6602  -6.6595  -1.1834  -1.1474  -1.0431  -1.0203
 -0.9978  -0.9525  -0.9106  -0.8943  -0.7949  -0.7610  -0.7256  -0.6952
 -0.6573  -0.6176  -0.5836  -0.5804  -0.5757  -0.5689  -0.5497  -0.5337
 -0.5259  -0.5205  -0.5114  -0.4945  -0.4739  -0.4610  -0.4508  -0.3617
 -0.3395  -0.3332  -0.2724

          Ground-State Mulliken Net Atomic Charges

     Atom                 Charge (a.u.)
  ----------------------------------------
      1 C                    -0.223165
      2 C                    -0.254144
      3 C                     0.034205
      4 H                     0.184837
      5 C                    -0.018755
      6 S                     0.001959
      7 C                    -0.289437
      8 H                     0.104745
      9 H                     0.116853
     10 H                     0.110049
     11 H                     0.202244
     12 C                    -0.055461
     13 C                    -0.170006
     14 C                    -0.000364
     15 H                     0.187379
     16 C                    -0.209065
     17 S                     0.028251
     18 C                    -0.267587
     19 H                     0.103140
     20 H                     0.107787
     21 H                     0.106578
     22 H                     0.199957
  ----------------------------------------
  Sum of atomic charges =     0.000000

                    Cartesian Multipole Moments
 -----------------------------------------------------------------
    Charge (ESU x 10^10)
                -0.0000
    Dipole Moment (Debye)
         X       2.6577      Y       0.8950      Z       0.2284
       Tot       2.8137
    Quadrupole Moments (Debye-Ang)
        XX     -85.3207     XY       4.3649     YY     -75.9384
        XZ      -2.6029     YZ       2.4974     ZZ     -82.4291

 Total job time:  53.18s(wall), 1832.79s(cpu)
        *  Thank you very much for using Q-Chem.  Have a nice day.  *
