 Q-Chem 5.4, Q-Chem, Inc., Pleasanton, CA (2021)
 Q-Chem 5.4.0 for Intel X86 EM64T Linux

User input:
--------------------------------------------------------------
$molecule
0 1
C	-0.246754	-3.887800	-0.681143
C	0.227093	-3.701456	0.620906
C	0.371543	-2.345170	1.019618
H	0.468992	-4.545233	1.284357
C	0.000000	-1.450135	0.000000
S	-0.522097	-2.321334	-1.435522
C	0.866035	-1.934439	2.378731
H	1.093799	-2.819799	3.003272
H	0.114688	-1.326210	2.924444
H	1.791841	-1.325374	2.313987
H	-0.445911	-4.815326	-1.229547
C	0.000000	0.000000	0.000000
C	0.285976	0.794723	1.113020
C	0.757308	2.103412	0.820578
H	0.154498	0.429575	2.142881
C	0.841565	2.336821	-0.563588
S	0.328498	0.913334	-1.464748
C	1.118059	3.105040	1.882380
H	0.966197	2.683616	2.894974
H	0.500773	4.024668	1.808137
H	2.180000	3.419766	1.808230
H	1.166129	3.238200	-1.097114
$end

$rem
JOBTYPE		SP
EXCHANGE	HF
CORRELATION	pRIMP2
BASIS		cc-pvtz
METHOD		rimp2
AUX_BASIS	rimp2-cc-pvtz
SOLVENT_METHOD	PCM
PURECART	11111
SYMMETRY	false
MEM_TOTAL	110000
SCF_CONVERGENCE = 6
THRESH=10
GUI = 2
$end

$solvent
dielectric 4.90
$end
--------------------------------------------------------------

             Standard Nuclear Orientation (Angstroms)
    I     Atom           X                Y                Z
 ----------------------------------------------------------------
    1      C      -0.2467540000    -3.8878000000    -0.6811430000
    2      C       0.2270930000    -3.7014560000     0.6209060000
    3      C       0.3715430000    -2.3451700000     1.0196180000
    4      H       0.4689920000    -4.5452330000     1.2843570000
    5      C       0.0000000000    -1.4501350000     0.0000000000
    6      S      -0.5220970000    -2.3213340000    -1.4355220000
    7      C       0.8660350000    -1.9344390000     2.3787310000
    8      H       1.0937990000    -2.8197990000     3.0032720000
    9      H       0.1146880000    -1.3262100000     2.9244440000
   10      H       1.7918410000    -1.3253740000     2.3139870000
   11      H      -0.4459110000    -4.8153260000    -1.2295470000
   12      C       0.0000000000     0.0000000000     0.0000000000
   13      C       0.2859760000     0.7947230000     1.1130200000
   14      C       0.7573080000     2.1034120000     0.8205780000
   15      H       0.1544980000     0.4295750000     2.1428810000
   16      C       0.8415650000     2.3368210000    -0.5635880000
   17      S       0.3284980000     0.9133340000    -1.4647480000
   18      C       1.1180590000     3.1050400000     1.8823800000
   19      H       0.9661970000     2.6836160000     2.8949740000
   20      H       0.5007730000     4.0246680000     1.8081370000
   21      H       2.1800000000     3.4197660000     1.8082300000
   22      H       1.1661290000     3.2382000000    -1.0971140000
 ----------------------------------------------------------------

   10   -1179.6768914305      4.93e-07  Convergence criterion met
 Total energy in the final basis set =    -1179.6768914305
        RIMP2         total energy =     -1181.6590383633 a.u.

                    Orbital Energies (a.u.)
 --------------------------------------------------------------

 Alpha MOs
 -- Occupied --
-91.9854 -91.9843 -11.2809 -11.2788 -11.2721 -11.2667 -11.2526 -11.2523
-11.2437 -11.2409 -11.2308 -11.2298  -8.9851  -8.9843  -6.6661  -6.6655
 -6.6652  -6.6649  -6.6647  -6.6641  -1.1813  -1.1501  -1.0413  -1.0270
 -0.9956  -0.9554  -0.9147  -0.8947  -0.8010  -0.7558  -0.7279  -0.7014
 -0.6608  -0.6150  -0.5918  -0.5820  -0.5705  -0.5624  -0.5508  -0.5399
 -0.5292  -0.5230  -0.5041  -0.4926  -0.4848  -0.4742  -0.4531  -0.3658
 -0.3462  -0.3384  -0.2710

          Ground-State Mulliken Net Atomic Charges

     Atom                 Charge (a.u.)
  ----------------------------------------
      1 C                    -0.214076
      2 C                    -0.249729
      3 C                     0.063108
      4 H                     0.185489
      5 C                    -0.040316
      6 S                     0.011935
      7 C                    -0.308923
      8 H                     0.117129
      9 H                     0.104335
     10 H                     0.117774
     11 H                     0.206096
     12 C                     0.031793
     13 C                    -0.286623
     14 C                     0.049161
     15 H                     0.196499
     16 C                    -0.253651
     17 S                     0.021069
     18 C                    -0.269681
     19 H                     0.101875
     20 H                     0.108774
     21 H                     0.108910
     22 H                     0.199051
  ----------------------------------------
  Sum of atomic charges =     0.000000

                    Cartesian Multipole Moments
 -----------------------------------------------------------------
    Charge (ESU x 10^10)
                -0.0000
    Dipole Moment (Debye)
         X       1.2063      Y       0.2479      Z       2.9484
       Tot       3.1953
    Quadrupole Moments (Debye-Ang)
        XX     -90.6724     XY       2.7758     YY     -69.8892
        XZ       2.5543     YZ      -1.1080     ZZ     -80.8795

 Total job time:  53.90s(wall), 1731.61s(cpu)
        *  Thank you very much for using Q-Chem.  Have a nice day.  *
